; ITP file created by ByteFF-ML, 2025-12-06 07:52:33.240189

[ atomtypes ]
;name           bonded.type        at.num        mass        charge   ptype           sigma         epsilon
 c0bf                                   6      0.0000       0.00000       A     3.31590e-01     4.15123e-01
 n1bf                                   7      0.0000       0.00000       A     3.38488e-01     3.91921e-01
 n2bf                                   7      0.0000       0.00000       A     3.38508e-01     3.92603e-01
 c3bf                                   6      0.0000       0.00000       A     3.31556e-01     4.15645e-01
 n4bf                                   7      0.0000       0.00000       A     3.20896e-01     8.42680e-01
 c5bf                                   6      0.0000       0.00000       A     3.39827e-01     4.48156e-01
 c6bf                                   6      0.0000       0.00000       A     3.39915e-01     4.48540e-01
 o7bf                                   8      0.0000       0.00000       A     3.24549e-01     3.87420e-01
 c8bf                                   6      0.0000       0.00000       A     3.40020e-01     4.49999e-01
 o9bf                                   8      0.0000       0.00000       A     3.24320e-01     3.87708e-01
 c10bf                                  6      0.0000       0.00000       A     3.39647e-01     4.56832e-01
 c11bf                                  6      0.0000       0.00000       A     3.39820e-01     4.52529e-01
 o12bf                                  8      0.0000       0.00000       A     3.24359e-01     3.88520e-01
 o13bf                                  8      0.0000       0.00000       A     3.15681e-01     3.03220e-01
 c14bf                                  6      0.0000       0.00000       A     3.39902e-01     4.49017e-01
 s15bf                                 16      0.0000       0.00000       A     3.53471e-01     1.18027e+00
 c16bf                                  6      0.0000       0.00000       A     3.31440e-01     4.14040e-01
 c17bf                                  6      0.0000       0.00000       A     3.31442e-01     4.12547e-01
 c18bf                                  6      0.0000       0.00000       A     3.31490e-01     4.13165e-01
 c19bf                                  6      0.0000       0.00000       A     3.31485e-01     4.12621e-01
 c20bf                                  6      0.0000       0.00000       A     3.31490e-01     4.13165e-01
 c21bf                                  6      0.0000       0.00000       A     3.31442e-01     4.12547e-01
 h22bf                                  1      0.0000       0.00000       A     2.53971e-01     6.75425e-02
 h23bf                                  1      0.0000       0.00000       A     2.42787e-01     8.64894e-02
 h24bf                                  1      0.0000       0.00000       A     2.41856e-01     8.61239e-02
 h25bf                                  1      0.0000       0.00000       A     5.37872e-02     1.99573e-02
 h26bf                                  1      0.0000       0.00000       A     2.42193e-01     8.65469e-02
 h27bf                                  1      0.0000       0.00000       A     5.35538e-02     2.00387e-02
 h28bf                                  1      0.0000       0.00000       A     2.42310e-01     8.69235e-02
 h29bf                                  1      0.0000       0.00000       A     2.42100e-01     8.75827e-02
 h30bf                                  1      0.0000       0.00000       A     2.42100e-01     8.75827e-02
 h31bf                                  1      0.0000       0.00000       A     5.36851e-02     2.04855e-02
 h32bf                                  1      0.0000       0.00000       A     2.25673e-01     8.91197e-02
 h33bf                                  1      0.0000       0.00000       A     2.62590e-01     6.78345e-02
 h34bf                                  1      0.0000       0.00000       A     2.62482e-01     6.71674e-02
 h35bf                                  1      0.0000       0.00000       A     2.62482e-01     6.71674e-02
 h36bf                                  1      0.0000       0.00000       A     2.62590e-01     6.78345e-02
 c37bf                                  6      0.0000       0.00000       A     3.39812e-01     4.50526e-01
 h38bf                                  1      0.0000       0.00000       A     2.59993e-01     8.72348e-02
 h39bf                                  1      0.0000       0.00000       A     2.59993e-01     8.72348e-02
 h40bf                                  1      0.0000       0.00000       A     2.59993e-01     8.72348e-02
 c41bf                                  6      0.0000       0.00000       A     3.31577e-01     4.13934e-01
 n42bf                                  7      0.0000       0.00000       A     3.38490e-01     3.93013e-01
 c43bf                                  6      0.0000       0.00000       A     3.31620e-01     4.12147e-01
 n44bf                                  7      0.0000       0.00000       A     3.20725e-01     8.54344e-01
 c45bf                                  6      0.0000       0.00000       A     3.31476e-01     4.12849e-01
 h46bf                                  1      0.0000       0.00000       A     2.45306e-01     6.69615e-02
 h47bf                                  1      0.0000       0.00000       A     1.10907e-01     4.03917e-02
 h48bf                                  1      0.0000       0.00000       A     2.53647e-01     6.76191e-02

[ moleculetype ]
;name             nrexcl
 17r                   3

[ atoms ]
;       nr            type      resi   res      atom      cgnr      charge          mass ; qtot
         1            c0bf         1   UNL        c0         1     0.17507       12.0110 ; qtot    0.175
         2            n1bf         1   UNL        n1         2    -0.34068       14.0070 ; qtot   -0.166
         3            n2bf         1   UNL        n2         3    -0.21182       14.0070 ; qtot   -0.377
         4            c3bf         1   UNL        c3         4    -0.15462       12.0110 ; qtot   -0.532
         5            n4bf         1   UNL        n4         5     0.11992       14.0070 ; qtot   -0.412
         6            c5bf         1   UNL        c5         6     0.06821       12.0110 ; qtot   -0.344
         7            c6bf         1   UNL        c6         7     0.18086       12.0110 ; qtot   -0.163
         8            o7bf         1   UNL        o7         8    -0.69248       15.9990 ; qtot   -0.856
         9            c8bf         1   UNL        c8         9     0.16600       12.0110 ; qtot   -0.690
        10            o9bf         1   UNL        o9        10    -0.69733       15.9990 ; qtot   -1.387
        11           c10bf         1   UNL       c10        11     0.12245       12.0110 ; qtot   -1.264
        12           c11bf         1   UNL       c11        12     0.15857       12.0110 ; qtot   -1.106
        13           o12bf         1   UNL       o12        13    -0.67968       15.9990 ; qtot   -1.786
        14           o13bf         1   UNL       o13        14    -0.43842       15.9990 ; qtot   -2.224
        15           c14bf         1   UNL       c14        15     0.30762       12.0110 ; qtot   -1.916
        16           s15bf         1   UNL       s15        16    -0.22319       32.0670 ; qtot   -2.140
        17           c16bf         1   UNL       c16        17    -0.11437       12.0110 ; qtot   -2.254
        18           c17bf         1   UNL       c17        18    -0.07085       12.0110 ; qtot   -2.325
        19           c18bf         1   UNL       c18        19    -0.11727       12.0110 ; qtot   -2.442
        20           c19bf         1   UNL       c19        20    -0.06564       12.0110 ; qtot   -2.508
        21           c20bf         1   UNL       c20        21    -0.11727       12.0110 ; qtot   -2.625
        22           c21bf         1   UNL       c21        22    -0.07085       12.0110 ; qtot   -2.696
        23           h22bf         1   UNL       h22        23     0.18124        1.0080 ; qtot   -2.515
        24           h23bf         1   UNL       h23        24     0.09635        1.0080 ; qtot   -2.418
        25           h24bf         1   UNL       h24        25     0.07453        1.0080 ; qtot   -2.344
        26           h25bf         1   UNL       h25        26     0.49318        1.0080 ; qtot   -1.850
        27           h26bf         1   UNL       h26        27     0.06676        1.0080 ; qtot   -1.784
        28           h27bf         1   UNL       h27        28     0.49179        1.0080 ; qtot   -1.292
        29           h28bf         1   UNL       h28        29     0.07347        1.0080 ; qtot   -1.218
        30           h29bf         1   UNL       h29        30     0.04981        1.0080 ; qtot   -1.169
        31           h30bf         1   UNL       h30        31     0.04981        1.0080 ; qtot   -1.119
        32           h31bf         1   UNL       h31        32     0.46110        1.0080 ; qtot   -0.658
        33           h32bf         1   UNL       h32        33     0.08799        1.0080 ; qtot   -0.570
        34           h33bf         1   UNL       h33        34     0.12284        1.0080 ; qtot   -0.447
        35           h34bf         1   UNL       h34        35     0.11553        1.0080 ; qtot   -0.331
        36           h35bf         1   UNL       h35        36     0.11553        1.0080 ; qtot   -0.216
        37           h36bf         1   UNL       h36        37     0.12284        1.0080 ; qtot   -0.093
        38           c37bf         1   UNL       c37        38    -0.04806       12.0110 ; qtot   -0.141
        39           h38bf         1   UNL       h38        39     0.04333        1.0080 ; qtot   -0.098
        40           h39bf         1   UNL       h39        40     0.04333        1.0080 ; qtot   -0.054
        41           h40bf         1   UNL       h40        41     0.04333        1.0080 ; qtot   -0.011
        42           c41bf         1   UNL       c41        42     0.20846       12.0110 ; qtot    0.197
        43           n42bf         1   UNL       n42        43    -0.66271       14.0070 ; qtot   -0.465
        44           c43bf         1   UNL       c43        44     0.39061       12.0110 ; qtot   -0.075
        45           n44bf         1   UNL       n44        45    -0.31370       14.0070 ; qtot   -0.388
        46           c45bf         1   UNL       c45        46    -0.18981       12.0110 ; qtot   -0.578
        47           h46bf         1   UNL       h46        47     0.05832        1.0080 ; qtot   -0.520
        48           h47bf         1   UNL       h47        48     0.35439        1.0080 ; qtot   -0.166
        49           h48bf         1   UNL       h48        49     0.16551        1.0080 ; qtot   -0.000

[ bonds ]
;       ai        aj funct               r               k
         1         2     1        0.137080   240451.267432
         1         4     1        0.138723   324586.262109
         1        42     1        0.145696   252452.048926
         2         3     1        0.130463   331297.056934
         3         5     1        0.135724   194517.617725
         4         5     1        0.135703   307471.316943
         4        23     1        0.107870   346376.617871
         5         6     1        0.146183   193018.602173
         6         7     1        0.154116   162600.534009
         6         9     1        0.154115   162601.619336
         6        24     1        0.109331   303086.595264
         7         8     1        0.142135   208733.015649
         7        15     1        0.154044   163767.720361
         7        25     1        0.109548   296027.244434
         8        26     1        0.097570   447174.499805
         9        10     1        0.142523   206605.059399
         9        11     1        0.154084   163172.399268
         9        27     1        0.109618   293622.695752
        10        28     1        0.097438   453206.211816
        11        12     1        0.152837   181609.400586
        11        14     1        0.144022   172846.469189
        11        29     1        0.109738   290579.974707
        12        13     1        0.142806   214851.821973
        12        30     1        0.109612   292209.548730
        12        31     1        0.109612   292209.548730
        13        32     1        0.097057   469375.594434
        14        15     1        0.141198   193409.651929
        15        16     1        0.185356    89023.537988
        15        33     1        0.109428   301568.618408
        16        17     1        0.179110   139046.521631
        17        18     1        0.140242   291728.429590
        17        22     1        0.140242   291728.429590
        18        19     1        0.139734   312067.690186
        18        34     1        0.108549   320360.202490
        19        20     1        0.140319   288269.045068
        19        35     1        0.108726   315373.954199
        20        21     1        0.140319   288269.045068
        20        38     1        0.151086   206426.018726
        21        22     1        0.139734   312067.690186
        21        36     1        0.108726   315373.954199
        22        37     1        0.108549   320360.228027
        38        39     1        0.109458   298881.910205
        38        40     1        0.109458   298881.910205
        38        41     1        0.109458   298881.910205
        42        43     1        0.138586   232089.575098
        42        46     1        0.138371   337468.661230
        43        44     1        0.131537   387519.301563
        44        45     1        0.137105   287450.069971
        44        47     1        0.108209   333880.927197
        45        46     1        0.138112   287574.231396
        45        48     1        0.101067   430464.241211
        46        49     1        0.107880   345845.241699

[ angles ]
;       ai        aj        ak funct           theta             cth
         1         2         3     1      109.250626      440.771976
         1         4         5     1      104.601967      178.588236
         1         4        23     1      132.253143      295.825323
         1        42        43     1      121.717697      498.244677
         1        42        46     1      127.856735      489.798342
         2         1         4     1      108.042526      272.473296
         2         1        42     1      122.981628      562.067564
         2         3         5     1      107.908348      697.192071
         3         5         4     1      110.472885      167.360000
         3         5         6     1      120.079247      563.888870
         4         1        42     1      128.431183      471.892232
         4         5         6     1      128.998917      463.131822
         5         4        23     1      122.844604      480.464369
         5         6         7     1      111.356544      622.220544
         5         6         9     1      111.512772      624.680917
         5         6        24     1      105.777367      565.594749
         6         7         8     1      110.388321      605.791947
         6         7        15     1      109.443703      624.143808
         6         7        25     1      108.627304      456.119939
         6         9        10     1      110.124695      598.902290
         6         9        11     1      109.657898      634.759520
         6         9        27     1      108.375938      461.072925
         7         6         9     1      111.097473      609.200577
         7         6        24     1      107.750931      473.919272
         7         8        26     1      107.001907      563.536714
         7        15        14     1      111.649391      530.812472
         7        15        16     1      111.121826      476.858434
         7        15        33     1      109.398842      459.056961
         8         7        15     1      110.632996      584.342052
         8         7        25     1      109.505226      454.566357
         9         6        24     1      107.913597      474.895332
         9        10        28     1      107.163124      571.830145
         9        11        12     1      113.952560      623.316980
         9        11        14     1      110.586624      537.401014
         9        11        29     1      107.974205      474.645483
        10         9        11     1      110.194969      604.101773
        10         9        27     1      109.353859      458.374450
        11         9        27     1      108.484055      460.689868
        11        12        13     1      111.065964      625.867882
        11        12        30     1      109.070946      478.304951
        11        12        31     1      109.070946      478.304951
        11        14        15     1      114.299454      561.641094
        12        11        14     1      107.501694      641.977776
        12        11        29     1      108.404587      488.419881
        12        13        32     1      107.524818      590.048638
        13        12        30     1      109.382347      473.459476
        13        12        31     1      109.382347      473.459476
        14        11        29     1      107.711388      457.078250
        14        15        16     1      109.595230      522.927826
        14        15        33     1      108.505638      449.403998
        15         7        25     1      108.186974      467.658722
        15        16        17     1      100.042709      754.237185
        16        15        33     1      107.190735      378.175222
        16        17        18     1      120.348305      387.060029
        16        17        22     1      120.348305      387.060029
        17        18        19     1      120.173157      641.204193
        17        18        34     1      119.877075      381.600770
        17        22        21     1      120.173157      641.204193
        17        22        37     1      119.877075      381.600770
        18        17        22     1      119.113083      679.871079
        18        19        20     1      121.290512      701.461811
        18        19        35     1      119.123253      429.501939
        19        18        34     1      119.993553      418.843388
        19        20        21     1      117.876991      697.308456
        19        20        38     1      121.020920      483.446433
        20        19        35     1      119.593529      395.778207
        20        21        22     1      121.290512      701.461811
        20        21        36     1      119.593529      395.778207
        20        38        39     1      111.248535      482.985073
        20        38        40     1      111.248535      482.985073
        20        38        41     1      111.248535      482.985073
        21        20        38     1      121.020920      483.446497
        21        22        37     1      119.993553      418.843388
        22        21        36     1      119.123268      429.501939
        30        12        31     1      108.155106      339.092304
        39        38        40     1      107.633995      359.456202
        39        38        41     1      107.633995      359.456202
        40        38        41     1      107.633995      359.456202
        42        43        44     1      105.707726      458.730086
        42        46        45     1      105.286621      167.360000
        42        46        49     1      132.034271      285.164282
        43        42        46     1      110.046005      228.883461
        43        44        45     1      111.552017      290.410210
        43        44        47     1      125.826073      304.600416
        44        45        46     1      107.452469      183.600963
        44        45        48     1      126.471298      376.699943
        45        44        47     1      122.705627      436.454896
        45        46        49     1      122.870041      461.640264
        46        45        48     1      126.092453      403.344501

[ dihedrals ] ; propers for gromacs 4.5 or higher, use funct 9
;       ai        aj        ak        al funct           phase               k        pn
         1         2         3         5     9        0.000000        0.136376         1
         1         2         3         5     9      180.000000       44.984296         2
         1         2         3         5     9        0.000000       -4.541942         3
         1         2         3         5     9      180.000000        0.281017         4
         1         4         5         3     9        0.000000        0.056906         1
         1         4         5         3     9      180.000000       28.162797         2
         1         4         5         3     9        0.000000       -7.054663         3
         1         4         5         3     9      180.000000       -0.225870         4
         1         4         5         6     9        0.000000        0.883779         1
         1         4         5         6     9      180.000000        7.127331         2
         1         4         5         6     9        0.000000        0.979480         3
         1         4         5         6     9      180.000000       -0.205182         4
         1        42        43        44     9        0.000000        0.427333         1
         1        42        43        44     9      180.000000       22.512536         2
         1        42        43        44     9        0.000000        0.567223         3
         1        42        43        44     9      180.000000       -0.680080         4
         1        42        46        45     9        0.000000        0.236318         1
         1        42        46        45     9      180.000000       20.591810         2
         1        42        46        45     9        0.000000       -0.701816         3
         1        42        46        45     9      180.000000       -1.311556         4
         1        42        46        49     9        0.000000       -0.180683         1
         1        42        46        49     9      180.000000       11.107581         2
         1        42        46        49     9        0.000000       -0.092499         3
         1        42        46        49     9      180.000000        0.008959         4
         2         1         4         5     9        0.000000       -0.420282         1
         2         1         4         5     9      180.000000       32.725969         2
         2         1         4         5     9        0.000000       -9.092530         3
         2         1         4         5     9      180.000000        0.201893         4
         2         1         4        23     9        0.000000        0.405694         1
         2         1         4        23     9      180.000000       12.716847         2
         2         1         4        23     9        0.000000       -0.268731         3
         2         1         4        23     9      180.000000       -0.439603         4
         2         1        42        43     9        0.000000       -3.021123         1
         2         1        42        43     9      180.000000        2.962245         2
         2         1        42        43     9        0.000000        0.422570         3
         2         1        42        43     9      180.000000       -0.109808         4
         2         1        42        46     9        0.000000        0.982242         1
         2         1        42        46     9      180.000000        2.398134         2
         2         1        42        46     9        0.000000       -0.420495         3
         2         1        42        46     9      180.000000       -0.004616         4
         2         3         5         4     9        0.000000       -0.173285         1
         2         3         5         4     9      180.000000       34.597656         2
         2         3         5         4     9        0.000000       -5.681462         3
         2         3         5         4     9      180.000000       -0.054648         4
         2         3         5         6     9        0.000000        1.249409         1
         2         3         5         6     9      180.000000       14.284105         2
         2         3         5         6     9        0.000000        1.154762         3
         2         3         5         6     9      180.000000       -0.439744         4
         3         2         1         4     9        0.000000       -0.142036         1
         3         2         1         4     9      180.000000       36.234916         2
         3         2         1         4     9        0.000000       -6.368562         3
         3         2         1         4     9      180.000000        0.078427         4
         3         2         1        42     9        0.000000        0.633404         1
         3         2         1        42     9      180.000000       25.187702         2
         3         2         1        42     9        0.000000        0.530710         3
         3         2         1        42     9      180.000000       -1.103198         4
         3         5         4        23     9        0.000000        1.330304         1
         3         5         4        23     9      180.000000       11.602830         2
         3         5         4        23     9        0.000000       -0.077329         3
         3         5         4        23     9      180.000000       -0.279431         4
         3         5         6         7     9        0.000000       -1.462451         1
         3         5         6         7     9      180.000000        0.115481         2
         3         5         6         7     9        0.000000        0.152914         3
         3         5         6         7     9      180.000000        0.124146         4
         3         5         6         9     9        0.000000       -1.362024         1
         3         5         6         9     9      180.000000       -0.004678         2
         3         5         6         9     9        0.000000        0.167909         3
         3         5         6         9     9      180.000000        0.125024         4
         3         5         6        24     9        0.000000        0.253519         1
         3         5         6        24     9      180.000000        0.297424         2
         3         5         6        24     9        0.000000        0.118440         3
         3         5         6        24     9      180.000000        0.150747         4
         4         1        42        43     9        0.000000        1.276940         1
         4         1        42        43     9      180.000000        2.433972         2
         4         1        42        43     9        0.000000       -0.375776         3
         4         1        42        43     9      180.000000        0.048148         4
         4         1        42        46     9        0.000000       -0.208148         1
         4         1        42        46     9      180.000000        2.074045         2
         4         1        42        46     9        0.000000        0.172406         3
         4         1        42        46     9      180.000000       -0.215230         4
         4         5         6         7     9        0.000000       -0.411476         1
         4         5         6         7     9      180.000000       -0.114048         2
         4         5         6         7     9        0.000000        0.342319         3
         4         5         6         7     9      180.000000        0.042998         4
         4         5         6         9     9        0.000000       -0.262418         1
         4         5         6         9     9      180.000000       -0.141421         2
         4         5         6         9     9        0.000000        0.349680         3
         4         5         6         9     9      180.000000        0.066185         4
         4         5         6        24     9        0.000000       -0.198743         1
         4         5         6        24     9      180.000000        0.185084         2
         4         5         6        24     9        0.000000        0.338371         3
         4         5         6        24     9      180.000000        0.107120         4
         5         4         1        42     9        0.000000        0.381417         1
         5         4         1        42     9      180.000000       18.166896         2
         5         4         1        42     9        0.000000       -0.904799         3
         5         4         1        42     9      180.000000       -0.857739         4
         5         6         7         8     9        0.000000       -2.493935         1
         5         6         7         8     9      180.000000       -0.728046         2
         5         6         7         8     9        0.000000        0.513960         3
         5         6         7         8     9      180.000000        0.125588         4
         5         6         7        15     9        0.000000       -0.954333         1
         5         6         7        15     9      180.000000        0.077860         2
         5         6         7        15     9        0.000000        0.147474         3
         5         6         7        15     9      180.000000        0.077210         4
         5         6         7        25     9        0.000000        0.219317         1
         5         6         7        25     9      180.000000       -0.232072         2
         5         6         7        25     9        0.000000        0.520049         3
         5         6         7        25     9      180.000000       -0.015622         4
         5         6         9        10     9        0.000000       -2.390590         1
         5         6         9        10     9      180.000000       -1.016045         2
         5         6         9        10     9        0.000000        0.526885         3
         5         6         9        10     9      180.000000        0.118196         4
         5         6         9        11     9        0.000000       -1.063661         1
         5         6         9        11     9      180.000000        0.321225         2
         5         6         9        11     9        0.000000        0.200084         3
         5         6         9        11     9      180.000000        0.100382         4
         5         6         9        27     9        0.000000        0.360880         1
         5         6         9        27     9      180.000000       -0.218278         2
         5         6         9        27     9        0.000000        0.512969         3
         5         6         9        27     9      180.000000       -0.013161         4
         6         5         4        23     9        0.000000       -0.184942         1
         6         5         4        23     9      180.000000        4.848953         2
         6         5         4        23     9        0.000000        0.385578         3
         6         5         4        23     9      180.000000        0.106863         4
         6         7         8        26     9        0.000000        5.910989         1
         6         7         8        26     9      180.000000       -4.734643         2
         6         7         8        26     9        0.000000        1.129447         3
         6         7         8        26     9      180.000000        0.150308         4
         6         7        15        14     9        0.000000        1.413246         1
         6         7        15        14     9      180.000000       -0.540506         2
         6         7        15        14     9        0.000000        0.143149         3
         6         7        15        14     9      180.000000        0.078239         4
         6         7        15        16     9        0.000000        0.900124         1
         6         7        15        16     9      180.000000       -0.208214         2
         6         7        15        16     9        0.000000        0.400111         3
         6         7        15        16     9      180.000000        0.241668         4
         6         7        15        33     9        0.000000        0.100507         1
         6         7        15        33     9      180.000000        0.064763         2
         6         7        15        33     9        0.000000        0.324727         3
         6         7        15        33     9      180.000000        0.017619         4
         6         9        10        28     9        0.000000        5.995186         1
         6         9        10        28     9      180.000000       -4.813199         2
         6         9        10        28     9        0.000000        1.193980         3
         6         9        10        28     9      180.000000        0.199209         4
         6         9        11        12     9        0.000000       -0.955761         1
         6         9        11        12     9      180.000000        0.594386         2
         6         9        11        12     9        0.000000        0.085632         3
         6         9        11        12     9      180.000000        0.018695         4
         6         9        11        14     9        0.000000        1.798078         1
         6         9        11        14     9      180.000000       -0.727710         2
         6         9        11        14     9        0.000000       -0.028673         3
         6         9        11        14     9      180.000000        0.219196         4
         6         9        11        29     9        0.000000       -0.351185         1
         6         9        11        29     9      180.000000       -0.052200         2
         6         9        11        29     9        0.000000        0.226505         3
         6         9        11        29     9      180.000000        0.120936         4
         7         6         9        10     9        0.000000       -3.014851         1
         7         6         9        10     9      180.000000        0.884245         2
         7         6         9        10     9        0.000000        0.086355         3
         7         6         9        10     9      180.000000        0.205777         4
         7         6         9        11     9        0.000000        2.476996         1
         7         6         9        11     9      180.000000       -1.298674         2
         7         6         9        11     9        0.000000       -0.206499         3
         7         6         9        11     9      180.000000        0.054222         4
         7         6         9        27     9        0.000000       -0.309683         1
         7         6         9        27     9      180.000000        0.011070         2
         7         6         9        27     9        0.000000        0.172324         3
         7         6         9        27     9      180.000000        0.022063         4
         7        15        14        11     9        0.000000        4.426470         1
         7        15        14        11     9      180.000000       -1.814803         2
         7        15        14        11     9        0.000000       -0.132018         3
         7        15        14        11     9      180.000000        0.157704         4
         7        15        16        17     9        0.000000        0.288375         1
         7        15        16        17     9      180.000000       -0.479928         2
         7        15        16        17     9        0.000000        0.676080         3
         7        15        16        17     9      180.000000       -0.043483         4
         8         7         6         9     9        0.000000       -3.104586         1
         8         7         6         9     9      180.000000        0.860545         2
         8         7         6         9     9        0.000000        0.100985         3
         8         7         6         9     9      180.000000        0.210831         4
         8         7         6        24     9        0.000000       -0.217464         1
         8         7         6        24     9      180.000000        0.234298         2
         8         7         6        24     9        0.000000        0.374759         3
         8         7         6        24     9      180.000000       -0.065169         4
         8         7        15        14     9        0.000000       -0.853634         1
         8         7        15        14     9      180.000000       -0.261158         2
         8         7        15        14     9        0.000000        0.450676         3
         8         7        15        14     9      180.000000       -0.054142         4
         8         7        15        16     9        0.000000        1.136788         1
         8         7        15        16     9      180.000000        0.071958         2
         8         7        15        16     9        0.000000        0.753281         3
         8         7        15        16     9      180.000000        0.029231         4
         8         7        15        33     9        0.000000        0.505888         1
         8         7        15        33     9      180.000000        0.384251         2
         8         7        15        33     9        0.000000        0.478938         3
         8         7        15        33     9      180.000000       -0.092338         4
         9         6         7        15     9        0.000000        2.181822         1
         9         6         7        15     9      180.000000       -1.123794         2
         9         6         7        15     9        0.000000       -0.285029         3
         9         6         7        15     9      180.000000       -0.002052         4
         9         6         7        25     9        0.000000       -0.348356         1
         9         6         7        25     9      180.000000        0.009326         2
         9         6         7        25     9        0.000000        0.175306         3
         9         6         7        25     9      180.000000        0.031850         4
         9        11        12        13     9        0.000000       -0.227661         1
         9        11        12        13     9      180.000000        0.198709         2
         9        11        12        13     9        0.000000        0.575653         3
         9        11        12        13     9      180.000000        0.042898         4
         9        11        12        30     9        0.000000       -0.018814         1
         9        11        12        30     9      180.000000        0.048557         2
         9        11        12        30     9        0.000000        0.576120         3
         9        11        12        30     9      180.000000        0.074092         4
         9        11        12        31     9        0.000000       -0.018814         1
         9        11        12        31     9      180.000000        0.048557         2
         9        11        12        31     9        0.000000        0.576120         3
         9        11        12        31     9      180.000000        0.074092         4
         9        11        14        15     9        0.000000        4.352346         1
         9        11        14        15     9      180.000000       -2.206175         2
         9        11        14        15     9        0.000000       -0.003556         3
         9        11        14        15     9      180.000000        0.165333         4
        10         9         6        24     9        0.000000       -0.196717         1
        10         9         6        24     9      180.000000        0.223613         2
        10         9         6        24     9        0.000000        0.389316         3
        10         9         6        24     9      180.000000       -0.058994         4
        10         9        11        12     9        0.000000        0.016896         1
        10         9        11        12     9      180.000000        0.496116         2
        10         9        11        12     9        0.000000        0.448333         3
        10         9        11        12     9      180.000000       -0.009281         4
        10         9        11        14     9        0.000000       -0.545333         1
        10         9        11        14     9      180.000000       -0.637964         2
        10         9        11        14     9        0.000000        0.329188         3
        10         9        11        14     9      180.000000        0.018467         4
        10         9        11        29     9        0.000000        0.285187         1
        10         9        11        29     9      180.000000        0.379094         2
        10         9        11        29     9        0.000000        0.476484         3
        10         9        11        29     9      180.000000       -0.166707         4
        11         9         6        24     9        0.000000       -0.762762         1
        11         9         6        24     9      180.000000        0.076028         2
        11         9         6        24     9        0.000000        0.095150         3
        11         9         6        24     9      180.000000        0.111605         4
        11         9        10        28     9        0.000000        7.727266         1
        11         9        10        28     9      180.000000       -5.206494         2
        11         9        10        28     9        0.000000        1.323975         3
        11         9        10        28     9      180.000000        0.328749         4
        11        12        13        32     9        0.000000        4.007016         1
        11        12        13        32     9      180.000000       -3.320209         2
        11        12        13        32     9        0.000000        1.326460         3
        11        12        13        32     9      180.000000        0.255147         4
        11        14        15        16     9        0.000000       -0.375262         1
        11        14        15        16     9      180.000000       -3.083586         2
        11        14        15        16     9        0.000000        0.304677         3
        11        14        15        16     9      180.000000        0.420919         4
        11        14        15        33     9        0.000000        0.266636         1
        11        14        15        33     9      180.000000        0.330187         2
        11        14        15        33     9        0.000000        0.477844         3
        11        14        15        33     9      180.000000       -0.186567         4
        12        11         9        27     9        0.000000       -0.201523         1
        12        11         9        27     9      180.000000        0.092106         2
        12        11         9        27     9        0.000000        0.387143         3
        12        11         9        27     9      180.000000       -0.008226         4
        12        11        14        15     9        0.000000       -0.966881         1
        12        11        14        15     9      180.000000        0.096258         2
        12        11        14        15     9        0.000000        0.174197         3
        12        11        14        15     9      180.000000        0.002285         4
        13        12        11        14     9        0.000000        0.402627         1
        13        12        11        14     9      180.000000       -1.643645         2
        13        12        11        14     9        0.000000        0.640951         3
        13        12        11        14     9      180.000000       -0.056513         4
        13        12        11        29     9        0.000000        0.211518         1
        13        12        11        29     9      180.000000        0.462525         2
        13        12        11        29     9        0.000000        0.743999         3
        13        12        11        29     9      180.000000        0.005084         4
        14        11         9        27     9        0.000000       -0.462764         1
        14        11         9        27     9      180.000000        0.209772         2
        14        11         9        27     9        0.000000        0.208553         3
        14        11         9        27     9      180.000000        0.011047         4
        14        11        12        30     9        0.000000        0.093355         1
        14        11        12        30     9      180.000000        0.124033         2
        14        11        12        30     9        0.000000        0.565329         3
        14        11        12        30     9      180.000000        0.025602         4
        14        11        12        31     9        0.000000        0.093355         1
        14        11        12        31     9      180.000000        0.124033         2
        14        11        12        31     9        0.000000        0.565329         3
        14        11        12        31     9      180.000000        0.025602         4
        14        15         7        25     9        0.000000       -0.261393         1
        14        15         7        25     9      180.000000        0.249258         2
        14        15         7        25     9        0.000000        0.357451         3
        14        15         7        25     9      180.000000       -0.040922         4
        14        15        16        17     9        0.000000       -1.894297         1
        14        15        16        17     9      180.000000       -2.746319         2
        14        15        16        17     9        0.000000        0.615789         3
        14        15        16        17     9      180.000000        0.127890         4
        15         7         6        24     9        0.000000       -0.961131         1
        15         7         6        24     9      180.000000       -0.043718         2
        15         7         6        24     9        0.000000        0.042130         3
        15         7         6        24     9      180.000000        0.127921         4
        15         7         8        26     9        0.000000        8.623688         1
        15         7         8        26     9      180.000000       -5.226138         2
        15         7         8        26     9        0.000000        1.322936         3
        15         7         8        26     9      180.000000        0.245137         4
        15        14        11        29     9        0.000000       -0.287618         1
        15        14        11        29     9      180.000000       -0.309009         2
        15        14        11        29     9        0.000000        0.387380         3
        15        14        11        29     9      180.000000        0.045662         4
        15        16        17        18     9        0.000000        0.284689         1
        15        16        17        18     9      180.000000        2.064076         2
        15        16        17        18     9        0.000000        0.006933         3
        15        16        17        18     9      180.000000        0.354834         4
        15        16        17        22     9        0.000000        0.284689         1
        15        16        17        22     9      180.000000        2.064076         2
        15        16        17        22     9        0.000000        0.006933         3
        15        16        17        22     9      180.000000        0.354834         4
        16        15         7        25     9        0.000000        0.252547         1
        16        15         7        25     9      180.000000       -0.123767         2
        16        15         7        25     9        0.000000        0.596959         3
        16        15         7        25     9      180.000000       -0.099829         4
        16        17        18        19     9        0.000000        0.090767         1
        16        17        18        19     9      180.000000       14.906646         2
        16        17        18        19     9        0.000000        0.077297         3
        16        17        18        19     9      180.000000       -0.276970         4
        16        17        18        34     9        0.000000        0.034744         1
        16        17        18        34     9      180.000000       12.254992         2
        16        17        18        34     9        0.000000        0.012883         3
        16        17        18        34     9      180.000000        0.080876         4
        16        17        22        21     9        0.000000        0.090767         1
        16        17        22        21     9      180.000000       14.906646         2
        16        17        22        21     9        0.000000        0.077297         3
        16        17        22        21     9      180.000000       -0.276970         4
        16        17        22        37     9        0.000000        0.034744         1
        16        17        22        37     9      180.000000       12.254992         2
        16        17        22        37     9        0.000000        0.012883         3
        16        17        22        37     9      180.000000        0.080876         4
        17        16        15        33     9        0.000000        1.415589         1
        17        16        15        33     9      180.000000       -0.246318         2
        17        16        15        33     9        0.000000        0.951127         3
        17        16        15        33     9      180.000000       -0.121517         4
        17        18        19        20     9        0.000000        0.008502         1
        17        18        19        20     9      180.000000       18.033237         2
        17        18        19        20     9        0.000000       -1.503915         3
        17        18        19        20     9      180.000000       -0.413491         4
        17        18        19        35     9        0.000000        0.103565         1
        17        18        19        35     9      180.000000       14.220273         2
        17        18        19        35     9        0.000000       -0.516611         3
        17        18        19        35     9      180.000000        0.127951         4
        17        22        21        20     9        0.000000        0.008502         1
        17        22        21        20     9      180.000000       18.033237         2
        17        22        21        20     9        0.000000       -1.503915         3
        17        22        21        20     9      180.000000       -0.413491         4
        17        22        21        36     9        0.000000        0.103565         1
        17        22        21        36     9      180.000000       14.220273         2
        17        22        21        36     9        0.000000       -0.516611         3
        17        22        21        36     9      180.000000        0.127951         4
        18        17        22        21     9        0.000000        0.084359         1
        18        17        22        21     9      180.000000       18.238250         2
        18        17        22        21     9        0.000000       -1.324121         3
        18        17        22        21     9      180.000000       -0.437229         4
        18        17        22        37     9        0.000000        0.085492         1
        18        17        22        37     9      180.000000       13.243304         2
        18        17        22        37     9        0.000000       -0.540870         3
        18        17        22        37     9      180.000000        0.076148         4
        18        19        20        21     9        0.000000       -0.066714         1
        18        19        20        21     9      180.000000       18.829512         2
        18        19        20        21     9        0.000000       -1.336610         3
        18        19        20        21     9      180.000000       -0.462957         4
        18        19        20        38     9        0.000000        0.142438         1
        18        19        20        38     9      180.000000       15.590057         2
        18        19        20        38     9        0.000000       -0.174449         3
        18        19        20        38     9      180.000000       -0.113364         4
        19        18        17        22     9        0.000000        0.084359         1
        19        18        17        22     9      180.000000       18.238250         2
        19        18        17        22     9        0.000000       -1.324121         3
        19        18        17        22     9      180.000000       -0.437229         4
        19        20        21        22     9        0.000000       -0.066714         1
        19        20        21        22     9      180.000000       18.829512         2
        19        20        21        22     9        0.000000       -1.336610         3
        19        20        21        22     9      180.000000       -0.462957         4
        19        20        21        36     9        0.000000       -0.040104         1
        19        20        21        36     9      180.000000       14.335381         2
        19        20        21        36     9        0.000000       -0.542025         3
        19        20        21        36     9      180.000000        0.083423         4
        19        20        38        39     9        0.000000       -0.021448         1
        19        20        38        39     9      180.000000        0.013149         2
        19        20        38        39     9        0.000000       -0.015868         3
        19        20        38        39     9      180.000000        0.007989         4
        19        20        38        40     9        0.000000       -0.021448         1
        19        20        38        40     9      180.000000        0.013149         2
        19        20        38        40     9        0.000000       -0.015868         3
        19        20        38        40     9      180.000000        0.007989         4
        19        20        38        41     9        0.000000       -0.021448         1
        19        20        38        41     9      180.000000        0.013149         2
        19        20        38        41     9        0.000000       -0.015868         3
        19        20        38        41     9      180.000000        0.007989         4
        20        19        18        34     9        0.000000        0.140304         1
        20        19        18        34     9      180.000000       14.166239         2
        20        19        18        34     9        0.000000       -0.708834         3
        20        19        18        34     9      180.000000        0.143764         4
        20        21        22        37     9        0.000000        0.140304         1
        20        21        22        37     9      180.000000       14.166239         2
        20        21        22        37     9        0.000000       -0.708834         3
        20        21        22        37     9      180.000000        0.143764         4
        21        20        19        35     9        0.000000       -0.040104         1
        21        20        19        35     9      180.000000       14.335381         2
        21        20        19        35     9        0.000000       -0.542025         3
        21        20        19        35     9      180.000000        0.083423         4
        21        20        38        39     9        0.000000       -0.021448         1
        21        20        38        39     9      180.000000        0.013149         2
        21        20        38        39     9        0.000000       -0.015868         3
        21        20        38        39     9      180.000000        0.007989         4
        21        20        38        40     9        0.000000       -0.021448         1
        21        20        38        40     9      180.000000        0.013149         2
        21        20        38        40     9        0.000000       -0.015868         3
        21        20        38        40     9      180.000000        0.007989         4
        21        20        38        41     9        0.000000       -0.021448         1
        21        20        38        41     9      180.000000        0.013149         2
        21        20        38        41     9        0.000000       -0.015868         3
        21        20        38        41     9      180.000000        0.007989         4
        22        17        18        34     9        0.000000        0.085492         1
        22        17        18        34     9      180.000000       13.243304         2
        22        17        18        34     9        0.000000       -0.540870         3
        22        17        18        34     9      180.000000        0.076148         4
        22        21        20        38     9        0.000000        0.142438         1
        22        21        20        38     9      180.000000       15.590057         2
        22        21        20        38     9        0.000000       -0.174449         3
        22        21        20        38     9      180.000000       -0.113364         4
        23         4         1        42     9        0.000000       -0.340253         1
        23         4         1        42     9      180.000000       10.464042         2
        23         4         1        42     9        0.000000       -0.164474         3
        23         4         1        42     9      180.000000        0.022879         4
        24         6         7        25     9        0.000000        0.406288         1
        24         6         7        25     9      180.000000        0.247134         2
        24         6         7        25     9        0.000000        0.441037         3
        24         6         7        25     9      180.000000       -0.178932         4
        24         6         9        27     9        0.000000        0.453050         1
        24         6         9        27     9      180.000000        0.147224         2
        24         6         9        27     9        0.000000        0.446462         3
        24         6         9        27     9      180.000000       -0.171258         4
        25         7         8        26     9        0.000000        2.433432         1
        25         7         8        26     9      180.000000       -1.780002         2
        25         7         8        26     9        0.000000        0.608029         3
        25         7         8        26     9      180.000000        0.328179         4
        25         7        15        33     9        0.000000        0.109986         1
        25         7        15        33     9      180.000000        0.118905         2
        25         7        15        33     9        0.000000        0.596732         3
        25         7        15        33     9      180.000000       -0.114269         4
        27         9        10        28     9        0.000000        2.929974         1
        27         9        10        28     9      180.000000       -2.028959         2
        27         9        10        28     9        0.000000        0.666360         3
        27         9        10        28     9      180.000000        0.366349         4
        27         9        11        29     9        0.000000        0.364640         1
        27         9        11        29     9      180.000000        0.035578         2
        27         9        11        29     9        0.000000        0.640265         3
        27         9        11        29     9      180.000000       -0.194472         4
        29        11        12        30     9        0.000000        0.052025         1
        29        11        12        30     9      180.000000       -0.013893         2
        29        11        12        30     9        0.000000        0.749390         3
        29        11        12        30     9      180.000000       -0.067040         4
        29        11        12        31     9        0.000000        0.052025         1
        29        11        12        31     9      180.000000       -0.013893         2
        29        11        12        31     9        0.000000        0.749390         3
        29        11        12        31     9      180.000000       -0.067040         4
        30        12        13        32     9        0.000000        0.213708         1
        30        12        13        32     9      180.000000       -0.140067         2
        30        12        13        32     9        0.000000        0.920910         3
        30        12        13        32     9      180.000000        0.084170         4
        31        12        13        32     9        0.000000        0.213708         1
        31        12        13        32     9      180.000000       -0.140067         2
        31        12        13        32     9        0.000000        0.920910         3
        31        12        13        32     9      180.000000        0.084170         4
        34        18        19        35     9        0.000000       -0.061596         1
        34        18        19        35     9      180.000000       12.072527         2
        34        18        19        35     9        0.000000       -0.716058         3
        34        18        19        35     9      180.000000        0.281920         4
        35        19        20        38     9        0.000000       -0.150871         1
        35        19        20        38     9      180.000000       12.936876         2
        35        19        20        38     9        0.000000       -0.352460         3
        35        19        20        38     9      180.000000        0.224871         4
        36        21        20        38     9        0.000000       -0.150871         1
        36        21        20        38     9      180.000000       12.936876         2
        36        21        20        38     9        0.000000       -0.352460         3
        36        21        20        38     9      180.000000        0.224871         4
        36        21        22        37     9        0.000000       -0.061596         1
        36        21        22        37     9      180.000000       12.072527         2
        36        21        22        37     9        0.000000       -0.716058         3
        36        21        22        37     9      180.000000        0.281920         4
        42        43        44        45     9        0.000000       -0.125832         1
        42        43        44        45     9      180.000000       42.536341         2
        42        43        44        45     9        0.000000       -5.567244         3
        42        43        44        45     9      180.000000        0.187253         4
        42        43        44        47     9        0.000000        1.993937         1
        42        43        44        47     9      180.000000       27.458911         2
        42        43        44        47     9        0.000000        0.305785         3
        42        43        44        47     9      180.000000       -0.138314         4
        42        46        45        44     9        0.000000        0.055811         1
        42        46        45        44     9      180.000000       22.537620         2
        42        46        45        44     9        0.000000       -5.586430         3
        42        46        45        44     9      180.000000       -0.269346         4
        42        46        45        48     9        0.000000       -0.014064         1
        42        46        45        48     9      180.000000        3.287898         2
        42        46        45        48     9        0.000000        0.462736         3
        42        46        45        48     9      180.000000        0.175814         4
        43        42        46        45     9        0.000000       -0.344534         1
        43        42        46        45     9      180.000000       35.232425         2
        43        42        46        45     9        0.000000       -8.059502         3
        43        42        46        45     9      180.000000       -0.172867         4
        43        42        46        49     9        0.000000        0.476495         1
        43        42        46        49     9      180.000000       14.071564         2
        43        42        46        49     9        0.000000       -0.415808         3
        43        42        46        49     9      180.000000       -0.438248         4
        43        44        45        46     9        0.000000        0.070430         1
        43        44        45        46     9      180.000000       29.694232         2
        43        44        45        46     9        0.000000       -6.147506         3
        43        44        45        46     9      180.000000       -0.537994         4
        43        44        45        48     9        0.000000        1.372213         1
        43        44        45        48     9      180.000000        5.588274         2
        43        44        45        48     9        0.000000        0.427299         3
        43        44        45        48     9      180.000000        0.001222         4
        44        43        42        46     9        0.000000       -0.382982         1
        44        43        42        46     9      180.000000       30.552885         2
        44        43        42        46     9        0.000000       -5.252833         3
        44        43        42        46     9      180.000000        0.315374         4
        44        45        46        49     9        0.000000        0.179035         1
        44        45        46        49     9      180.000000        5.882442         2
        44        45        46        49     9        0.000000        0.025543         3
        44        45        46        49     9      180.000000        0.154582         4
        46        45        44        47     9        0.000000        1.200519         1
        46        45        44        47     9      180.000000       12.262499         2
        46        45        44        47     9        0.000000        0.228237         3
        46        45        44        47     9      180.000000       -0.552900         4
        47        44        45        48     9        0.000000       -1.726243         1
        47        44        45        48     9      180.000000        2.264251         2
        47        44        45        48     9        0.000000       -0.019859         3
        47        44        45        48     9      180.000000       -0.054226         4
        48        45        46        49     9        0.000000       -1.962399         1
        48        45        46        49     9      180.000000        0.776418         2
        48        45        46        49     9        0.000000       -0.144415         3
        48        45        46        49     9      180.000000       -0.056013         4

[ dihedrals ] ; impropers
;       ai        aj        ak        al funct           phase               k        pn
        18        17        19        34     4      180.000000        1.752813         2
        18        19        34        17     4      180.000000        1.752813         2
        18        34        17        19     4      180.000000        1.752813         2
        19        18        20        35     4      180.000000        2.505519         2
        19        20        35        18     4      180.000000        2.505519         2
        19        35        18        20     4      180.000000        2.505519         2
        21        20        22        36     4      180.000000        2.505519         2
        21        22        36        20     4      180.000000        2.505519         2
        21        36        20        22     4      180.000000        2.505519         2
        22        17        21        37     4      180.000000        1.752813         2
        22        21        37        17     4      180.000000        1.752813         2
        22        37        17        21     4      180.000000        1.752813         2
        44        43        45        47     4      180.000000        0.779648         2
        44        45        47        43     4      180.000000        0.779648         2
        44        47        43        45     4      180.000000        0.779648         2

[ pairs ]
;       ai        aj funct
         1         6     1
         1        44     1
         1        45     1
         1        49     1
         2         6     1
         2        23     1
         2        43     1
         2        46     1
         3         7     1
         3         9     1
         3        23     1
         3        24     1
         3        42     1
         4         7     1
         4         9     1
         4        24     1
         4        43     1
         4        46     1
         5         8     1
         5        10     1
         5        11     1
         5        15     1
         5        25     1
         5        27     1
         5        42     1
         6        12     1
         6        14     1
         6        16     1
         6        23     1
         6        26     1
         6        28     1
         6        29     1
         6        33     1
         7        10     1
         7        11     1
         7        17     1
         7        27     1
         8         9     1
         8        14     1
         8        16     1
         8        24     1
         8        33     1
         9        13     1
         9        15     1
         9        25     1
         9        30     1
         9        31     1
        10        12     1
        10        14     1
        10        24     1
        10        29     1
        11        16     1
        11        24     1
        11        28     1
        11        32     1
        11        33     1
        12        15     1
        12        27     1
        13        14     1
        13        29     1
        14        17     1
        14        25     1
        14        27     1
        14        30     1
        14        31     1
        15        18     1
        15        22     1
        15        24     1
        15        26     1
        15        29     1
        16        19     1
        16        21     1
        16        25     1
        16        34     1
        16        37     1
        17        20     1
        17        33     1
        17        35     1
        17        36     1
        18        21     1
        18        37     1
        18        38     1
        19        22     1
        19        36     1
        19        39     1
        19        40     1
        19        41     1
        20        34     1
        20        37     1
        21        35     1
        21        39     1
        21        40     1
        21        41     1
        22        34     1
        22        38     1
        23        42     1
        24        25     1
        24        27     1
        25        26     1
        25        33     1
        27        28     1
        27        29     1
        29        30     1
        29        31     1
        30        32     1
        31        32     1
        34        35     1
        35        38     1
        36        37     1
        36        38     1
        42        47     1
        42        48     1
        43        48     1
        43        49     1
        44        49     1
        46        47     1
        47        48     1
        48        49     1
