; ITP file created by ByteFF-ML, 2025-12-06 07:55:22.041794

[ atomtypes ]
;name           bonded.type        at.num        mass        charge   ptype           sigma         epsilon
 c0bf                                   6      0.0000       0.00000       A     3.31607e-01     4.12777e-01
 c1bf                                   6      0.0000       0.00000       A     3.31578e-01     4.12014e-01
 c2bf                                   6      0.0000       0.00000       A     3.31324e-01     4.13176e-01
 c3bf                                   6      0.0000       0.00000       A     3.31607e-01     4.12777e-01
 c4bf                                   6      0.0000       0.00000       A     3.31578e-01     4.12014e-01
 c5bf                                   6      0.0000       0.00000       A     3.31440e-01     4.12276e-01
 c6bf                                   6      0.0000       0.00000       A     3.31555e-01     4.16311e-01
 n7bf                                   7      0.0000       0.00000       A     3.38473e-01     3.92122e-01
 n8bf                                   7      0.0000       0.00000       A     3.38509e-01     3.92962e-01
 c9bf                                   6      0.0000       0.00000       A     3.31537e-01     4.14956e-01
 n10bf                                  7      0.0000       0.00000       A     3.20829e-01     8.43103e-01
 c11bf                                  6      0.0000       0.00000       A     3.39844e-01     4.48152e-01
 c12bf                                  6      0.0000       0.00000       A     3.39915e-01     4.48540e-01
 o13bf                                  8      0.0000       0.00000       A     3.24549e-01     3.87420e-01
 c14bf                                  6      0.0000       0.00000       A     3.40020e-01     4.49999e-01
 o15bf                                  8      0.0000       0.00000       A     3.24320e-01     3.87708e-01
 c16bf                                  6      0.0000       0.00000       A     3.39647e-01     4.56832e-01
 c17bf                                  6      0.0000       0.00000       A     3.39820e-01     4.52529e-01
 o18bf                                  8      0.0000       0.00000       A     3.24359e-01     3.88520e-01
 o19bf                                  8      0.0000       0.00000       A     3.15681e-01     3.03220e-01
 c20bf                                  6      0.0000       0.00000       A     3.39902e-01     4.49017e-01
 s21bf                                 16      0.0000       0.00000       A     3.53471e-01     1.18027e+00
 c22bf                                  6      0.0000       0.00000       A     3.31440e-01     4.14040e-01
 c23bf                                  6      0.0000       0.00000       A     3.31442e-01     4.12547e-01
 c24bf                                  6      0.0000       0.00000       A     3.31490e-01     4.13165e-01
 c25bf                                  6      0.0000       0.00000       A     3.31485e-01     4.12621e-01
 c26bf                                  6      0.0000       0.00000       A     3.31490e-01     4.13165e-01
 c27bf                                  6      0.0000       0.00000       A     3.31442e-01     4.12547e-01
 h28bf                                  1      0.0000       0.00000       A     2.53818e-01     6.75058e-02
 h29bf                                  1      0.0000       0.00000       A     2.42787e-01     8.64894e-02
 h30bf                                  1      0.0000       0.00000       A     2.41856e-01     8.61239e-02
 h31bf                                  1      0.0000       0.00000       A     5.37872e-02     1.99573e-02
 h32bf                                  1      0.0000       0.00000       A     2.42193e-01     8.65469e-02
 h33bf                                  1      0.0000       0.00000       A     5.35538e-02     2.00387e-02
 h34bf                                  1      0.0000       0.00000       A     2.42310e-01     8.69235e-02
 h35bf                                  1      0.0000       0.00000       A     2.42100e-01     8.75827e-02
 h36bf                                  1      0.0000       0.00000       A     2.42100e-01     8.75827e-02
 h37bf                                  1      0.0000       0.00000       A     5.36851e-02     2.04855e-02
 h38bf                                  1      0.0000       0.00000       A     2.25673e-01     8.91197e-02
 h39bf                                  1      0.0000       0.00000       A     2.62590e-01     6.78345e-02
 h40bf                                  1      0.0000       0.00000       A     2.62482e-01     6.71674e-02
 h41bf                                  1      0.0000       0.00000       A     2.62482e-01     6.71674e-02
 h42bf                                  1      0.0000       0.00000       A     2.62590e-01     6.78345e-02
 f43bf                                  9      0.0000       0.00000       A     3.03397e-01     3.47563e-01
 f44bf                                  9      0.0000       0.00000       A     3.03422e-01     3.50939e-01
 f45bf                                  9      0.0000       0.00000       A     3.03397e-01     3.47563e-01
 f46bf                                  9      0.0000       0.00000       A     3.03422e-01     3.50939e-01
 c47bf                                  6      0.0000       0.00000       A     3.39812e-01     4.50526e-01
 h48bf                                  1      0.0000       0.00000       A     2.59993e-01     8.72348e-02
 h49bf                                  1      0.0000       0.00000       A     2.59993e-01     8.72348e-02
 h50bf                                  1      0.0000       0.00000       A     2.59993e-01     8.72348e-02
 o51bf                                  8      0.0000       0.00000       A     3.16021e-01     3.03526e-01
 c52bf                                  6      0.0000       0.00000       A     3.39659e-01     4.51866e-01
 c53bf                                  6      0.0000       0.00000       A     3.39796e-01     4.51507e-01
 h54bf                                  1      0.0000       0.00000       A     2.42053e-01     8.76019e-02
 h55bf                                  1      0.0000       0.00000       A     2.42053e-01     8.76019e-02
 h56bf                                  1      0.0000       0.00000       A     2.60028e-01     8.73433e-02
 h57bf                                  1      0.0000       0.00000       A     2.60028e-01     8.73433e-02
 h58bf                                  1      0.0000       0.00000       A     2.60028e-01     8.73433e-02

[ moleculetype ]
;name             nrexcl
 18f                   3

[ atoms ]
;       nr            type      resi   res      atom      cgnr      charge          mass ; qtot
         1            c0bf         1   UNL        c0         1     0.10129       12.0110 ; qtot    0.101
         2            c1bf         1   UNL        c1         2     0.18493       12.0110 ; qtot    0.286
         3            c2bf         1   UNL        c2         3     0.10557       12.0110 ; qtot    0.392
         4            c3bf         1   UNL        c3         4     0.10129       12.0110 ; qtot    0.493
         5            c4bf         1   UNL        c4         5     0.18493       12.0110 ; qtot    0.678
         6            c5bf         1   UNL        c5         6    -0.13430       12.0110 ; qtot    0.544
         7            c6bf         1   UNL        c6         7     0.24609       12.0110 ; qtot    0.790
         8            n7bf         1   UNL        n7         8    -0.32602       14.0070 ; qtot    0.464
         9            n8bf         1   UNL        n8         9    -0.21360       14.0070 ; qtot    0.250
        10            c9bf         1   UNL        c9        10    -0.14558       12.0110 ; qtot    0.105
        11           n10bf         1   UNL       n10        11     0.12191       14.0070 ; qtot    0.227
        12           c11bf         1   UNL       c11        12     0.06917       12.0110 ; qtot    0.296
        13           c12bf         1   UNL       c12        13     0.18084       12.0110 ; qtot    0.477
        14           o13bf         1   UNL       o13        14    -0.69248       15.9990 ; qtot   -0.216
        15           c14bf         1   UNL       c14        15     0.16597       12.0110 ; qtot   -0.050
        16           o15bf         1   UNL       o15        16    -0.69733       15.9990 ; qtot   -0.747
        17           c16bf         1   UNL       c16        17     0.12245       12.0110 ; qtot   -0.625
        18           c17bf         1   UNL       c17        18     0.15857       12.0110 ; qtot   -0.466
        19           o18bf         1   UNL       o18        19    -0.67968       15.9990 ; qtot   -1.146
        20           o19bf         1   UNL       o19        20    -0.43842       15.9990 ; qtot   -1.584
        21           c20bf         1   UNL       c20        21     0.30762       12.0110 ; qtot   -1.277
        22           s21bf         1   UNL       s21        22    -0.22319       32.0670 ; qtot   -1.500
        23           c22bf         1   UNL       c22        23    -0.11437       12.0110 ; qtot   -1.614
        24           c23bf         1   UNL       c23        24    -0.07085       12.0110 ; qtot   -1.685
        25           c24bf         1   UNL       c24        25    -0.11727       12.0110 ; qtot   -1.802
        26           c25bf         1   UNL       c25        26    -0.06564       12.0110 ; qtot   -1.868
        27           c26bf         1   UNL       c26        27    -0.11727       12.0110 ; qtot   -1.985
        28           c27bf         1   UNL       c27        28    -0.07085       12.0110 ; qtot   -2.056
        29           h28bf         1   UNL       h28        29     0.17960        1.0080 ; qtot   -1.877
        30           h29bf         1   UNL       h29        30     0.09610        1.0080 ; qtot   -1.781
        31           h30bf         1   UNL       h30        31     0.07453        1.0080 ; qtot   -1.706
        32           h31bf         1   UNL       h31        32     0.49318        1.0080 ; qtot   -1.213
        33           h32bf         1   UNL       h32        33     0.06676        1.0080 ; qtot   -1.146
        34           h33bf         1   UNL       h33        34     0.49179        1.0080 ; qtot   -0.654
        35           h34bf         1   UNL       h34        35     0.07347        1.0080 ; qtot   -0.581
        36           h35bf         1   UNL       h35        36     0.04981        1.0080 ; qtot   -0.531
        37           h36bf         1   UNL       h36        37     0.04981        1.0080 ; qtot   -0.481
        38           h37bf         1   UNL       h37        38     0.46110        1.0080 ; qtot   -0.020
        39           h38bf         1   UNL       h38        39     0.08799        1.0080 ; qtot    0.068
        40           h39bf         1   UNL       h39        40     0.12284        1.0080 ; qtot    0.191
        41           h40bf         1   UNL       h40        41     0.11553        1.0080 ; qtot    0.306
        42           h41bf         1   UNL       h41        42     0.11553        1.0080 ; qtot    0.422
        43           h42bf         1   UNL       h42        43     0.12284        1.0080 ; qtot    0.545
        44           f43bf         1   UNL       f43        44    -0.14223       18.9980 ; qtot    0.402
        45           f44bf         1   UNL       f44        45    -0.14430       18.9980 ; qtot    0.258
        46           f45bf         1   UNL       f45        46    -0.14223       18.9980 ; qtot    0.116
        47           f46bf         1   UNL       f46        47    -0.14430       18.9980 ; qtot   -0.028
        48           c47bf         1   UNL       c47        48    -0.04806       12.0110 ; qtot   -0.076
        49           h48bf         1   UNL       h48        49     0.04333        1.0080 ; qtot   -0.033
        50           h49bf         1   UNL       h49        50     0.04333        1.0080 ; qtot    0.010
        51           h50bf         1   UNL       h50        51     0.04333        1.0080 ; qtot    0.054
        52           o51bf         1   UNL       o51        52    -0.33336       15.9990 ; qtot   -0.280
        53           c52bf         1   UNL       c52        53     0.15884       12.0110 ; qtot   -0.121
        54           c53bf         1   UNL       c53        54    -0.10824       12.0110 ; qtot   -0.229
        55           h54bf         1   UNL       h54        55     0.04622        1.0080 ; qtot   -0.183
        56           h55bf         1   UNL       h55        56     0.04622        1.0080 ; qtot   -0.137
        57           h56bf         1   UNL       h56        57     0.04559        1.0080 ; qtot   -0.091
        58           h57bf         1   UNL       h57        58     0.04559        1.0080 ; qtot   -0.046
        59           h58bf         1   UNL       h58        59     0.04561        1.0080 ; qtot    0.000

[ bonds ]
;       ai        aj funct               r               k
         1         2     1        0.139233   303402.948975
         1         3     1        0.140233   271620.816113
         1        44     1        0.134592   317596.525439
         2         6     1        0.140361   270167.192773
         2        45     1        0.134553   311436.514990
         3         4     1        0.140233   271620.816113
         3        52     1        0.135535   293054.980273
         4         5     1        0.139233   303402.948975
         4        46     1        0.134592   317596.499902
         5         6     1        0.140361   270167.192773
         5        47     1        0.134553   311436.514990
         6         7     1        0.146767   234697.450244
         7         8     1        0.137320   238272.262500
         7        10     1        0.138822   324396.623535
         8         9     1        0.130528   329903.496875
         9        11     1        0.135510   199180.298071
        10        11     1        0.135696   307052.227441
        10        29     1        0.107880   345586.091113
        11        12     1        0.146154   193615.583179
        12        13     1        0.154119   162583.360303
        12        15     1        0.154118   162576.490820
        12        30     1        0.109333   303022.267285
        13        14     1        0.142135   208733.015649
        13        21     1        0.154044   163767.720361
        13        31     1        0.109548   296027.244434
        14        32     1        0.097570   447174.499805
        15        16     1        0.142523   206605.059399
        15        17     1        0.154084   163172.399268
        15        33     1        0.109618   293622.695752
        16        34     1        0.097438   453206.211816
        17        18     1        0.152837   181609.400586
        17        20     1        0.144022   172846.469189
        17        35     1        0.109738   290579.974707
        18        19     1        0.142806   214851.821973
        18        36     1        0.109612   292209.548730
        18        37     1        0.109612   292209.548730
        19        38     1        0.097057   469375.645508
        20        21     1        0.141198   193409.651929
        21        22     1        0.185356    89023.537988
        21        39     1        0.109428   301568.618408
        22        23     1        0.179110   139046.521631
        23        24     1        0.140242   291728.429590
        23        28     1        0.140242   291728.429590
        24        25     1        0.139734   312067.690186
        24        40     1        0.108549   320360.202490
        25        26     1        0.140319   288269.045068
        25        41     1        0.108726   315373.954199
        26        27     1        0.140319   288269.019531
        26        48     1        0.151086   206426.018726
        27        28     1        0.139734   312067.690186
        27        42     1        0.108726   315373.954199
        28        43     1        0.108549   320360.228027
        48        49     1        0.109458   298881.910205
        48        50     1        0.109458   298881.910205
        48        51     1        0.109458   298881.910205
        52        53     1        0.144923   169556.906445
        53        54     1        0.152083   201683.471069
        53        55     1        0.109531   294883.207471
        53        56     1        0.109531   294883.207471
        54        57     1        0.109370   302784.593408
        54        58     1        0.109370   302784.593408
        54        59     1        0.109370   302784.593408

[ angles ]
;       ai        aj        ak funct           theta             cth
         1         2         6     1      122.447510      579.921898
         1         2        45     1      117.158524      451.736749
         1         3         4     1      117.194557      645.488809
         1         3        52     1      121.705200      378.818183
         2         1         3     1      121.264343      655.864600
         2         1        44     1      119.292664      445.462696
         2         6         5     1      115.594650      649.933926
         2         6         7     1      121.771500      537.883921
         3         1        44     1      119.607162      417.097799
         3         4         5     1      121.264343      655.864600
         3         4        46     1      119.607162      417.097799
         3        52        53     1      116.923660      501.390753
         4         3        52     1      121.705200      378.818183
         4         5         6     1      122.447510      579.921898
         4         5        47     1      117.158508      451.736749
         5         4        46     1      119.292664      445.462696
         5         6         7     1      121.771500      537.883921
         6         2        45     1      120.112083      440.710943
         6         5        47     1      120.112083      440.710943
         6         7         8     1      121.875793      575.487698
         6         7        10     1      129.938400      442.437730
         7         8         9     1      109.280357      430.593140
         7        10        11     1      104.673096      167.360000
         7        10        29     1      132.562210      299.723881
         8         7        10     1      107.919968      255.642521
         8         9        11     1      107.899536      699.237082
         9        11        10     1      110.462936      167.360000
         9        11        12     1      120.120522      564.108362
        10        11        12     1      129.063553      463.223596
        11        10        29     1      122.558372      479.073459
        11        12        13     1      111.354050      622.802216
        11        12        15     1      111.512573      625.250458
        11        12        30     1      105.797218      565.058789
        12        13        14     1      110.389603      605.753067
        12        13        21     1      109.448044      623.979923
        12        13        31     1      108.625122      456.211585
        12        15        16     1      110.126266      598.858494
        12        15        17     1      109.662819      634.622258
        12        15        33     1      108.374062      461.169391
        13        12        15     1      111.091370      609.017795
        13        12        30     1      107.746902      473.995372
        13        14        32     1      107.001907      563.536714
        13        21        20     1      111.649391      530.812472
        13        21        22     1      111.121826      476.858434
        13        21        39     1      109.398842      459.056961
        14        13        21     1      110.632996      584.342052
        14        13        31     1      109.505226      454.566357
        15        12        30     1      107.909630      474.972518
        15        16        34     1      107.163124      571.830145
        15        17        18     1      113.952560      623.316980
        15        17        20     1      110.586624      537.401014
        15        17        35     1      107.974205      474.645483
        16        15        17     1      110.194969      604.101773
        16        15        33     1      109.353859      458.374450
        17        15        33     1      108.484055      460.689868
        17        18        19     1      111.065964      625.867882
        17        18        36     1      109.070946      478.304951
        17        18        37     1      109.070946      478.304951
        17        20        21     1      114.299454      561.641094
        18        17        20     1      107.501694      641.977776
        18        17        35     1      108.404587      488.419881
        18        19        38     1      107.524818      590.048638
        19        18        36     1      109.382347      473.459476
        19        18        37     1      109.382347      473.459476
        20        17        35     1      107.711388      457.078250
        20        21        22     1      109.595230      522.927826
        20        21        39     1      108.505638      449.403998
        21        13        31     1      108.186974      467.658722
        21        22        23     1      100.042709      754.237185
        22        21        39     1      107.190735      378.175222
        22        23        24     1      120.348305      387.060029
        22        23        28     1      120.348305      387.060029
        23        24        25     1      120.173157      641.204193
        23        24        40     1      119.877075      381.600770
        23        28        27     1      120.173157      641.204193
        23        28        43     1      119.877075      381.600770
        24        23        28     1      119.113083      679.871079
        24        25        26     1      121.290512      701.461811
        24        25        41     1      119.123253      429.501939
        25        24        40     1      119.993553      418.843388
        25        26        27     1      117.876991      697.308456
        25        26        48     1      121.020912      483.446497
        26        25        41     1      119.593529      395.778239
        26        27        28     1      121.290512      701.461811
        26        27        42     1      119.593529      395.778239
        26        48        49     1      111.248535      482.985073
        26        48        50     1      111.248535      482.985073
        26        48        51     1      111.248535      482.985073
        27        26        48     1      121.020912      483.446497
        27        28        43     1      119.993553      418.843388
        28        27        42     1      119.123253      429.501939
        36        18        37     1      108.155106      339.092304
        49        48        50     1      107.633987      359.456202
        49        48        51     1      107.633987      359.456202
        50        48        51     1      107.633987      359.456202
        52        53        54     1      108.651855      636.381318
        52        53        55     1      108.236206      446.874547
        52        53        56     1      108.236206      446.874547
        53        54        57     1      110.495522      496.876750
        53        54        58     1      110.495522      496.876750
        53        54        59     1      110.495522      496.876750
        54        53        55     1      111.256996      497.677977
        54        53        56     1      111.256996      497.677977
        55        53        56     1      108.273743      342.425504
        57        54        58     1      108.436707      361.896400
        57        54        59     1      108.436707      361.896400
        58        54        59     1      108.436707      361.896432

[ dihedrals ] ; propers for gromacs 4.5 or higher, use funct 9
;       ai        aj        ak        al funct           phase               k        pn
         1         2         6         5     9        0.000000       -0.307038         1
         1         2         6         5     9      180.000000       15.829199         2
         1         2         6         5     9        0.000000       -1.485887         3
         1         2         6         5     9      180.000000       -0.297348         4
         1         2         6         7     9        0.000000        0.031357         1
         1         2         6         7     9      180.000000       13.807822         2
         1         2         6         7     9        0.000000       -0.147425         3
         1         2         6         7     9      180.000000       -0.341714         4
         1         3         4         5     9        0.000000       -0.236653         1
         1         3         4         5     9      180.000000       14.140530         2
         1         3         4         5     9        0.000000       -1.088372         3
         1         3         4         5     9      180.000000       -0.187820         4
         1         3         4        46     9        0.000000        0.249408         1
         1         3         4        46     9      180.000000       17.593205         2
         1         3         4        46     9        0.000000        0.311718         3
         1         3         4        46     9      180.000000       -0.456919         4
         1         3        52        53     9        0.000000        0.242506         1
         1         3        52        53     9      180.000000        3.236660         2
         1         3        52        53     9        0.000000        0.027046         3
         1         3        52        53     9      180.000000       -0.036955         4
         2         1         3         4     9        0.000000       -0.236653         1
         2         1         3         4     9      180.000000       14.140530         2
         2         1         3         4     9        0.000000       -1.088372         3
         2         1         3         4     9      180.000000       -0.187820         4
         2         1         3        52     9        0.000000        0.192767         1
         2         1         3        52     9      180.000000       14.631452         2
         2         1         3        52     9        0.000000        0.133848         3
         2         1         3        52     9      180.000000       -0.124386         4
         2         6         5         4     9        0.000000       -0.307038         1
         2         6         5         4     9      180.000000       15.829199         2
         2         6         5         4     9        0.000000       -1.485887         3
         2         6         5         4     9      180.000000       -0.297348         4
         2         6         5        47     9        0.000000        0.591811         1
         2         6         5        47     9      180.000000       20.786429         2
         2         6         5        47     9        0.000000        0.532577         3
         2         6         5        47     9      180.000000       -0.738405         4
         2         6         7         8     9        0.000000       -0.414529         1
         2         6         7         8     9      180.000000        3.037734         2
         2         6         7         8     9        0.000000        0.308429         3
         2         6         7         8     9      180.000000        0.046875         4
         2         6         7        10     9        0.000000       -0.040321         1
         2         6         7        10     9      180.000000        3.054571         2
         2         6         7        10     9        0.000000       -0.346061         3
         2         6         7        10     9      180.000000        0.104188         4
         3         1         2         6     9        0.000000       -0.212796         1
         3         1         2         6     9      180.000000       15.138689         2
         3         1         2         6     9        0.000000       -1.217408         3
         3         1         2         6     9      180.000000       -0.280171         4
         3         1         2        45     9        0.000000        0.498019         1
         3         1         2        45     9      180.000000       19.143252         2
         3         1         2        45     9        0.000000        0.444549         3
         3         1         2        45     9      180.000000       -0.612348         4
         3         4         5         6     9        0.000000       -0.212796         1
         3         4         5         6     9      180.000000       15.138689         2
         3         4         5         6     9        0.000000       -1.217408         3
         3         4         5         6     9      180.000000       -0.280171         4
         3         4         5        47     9        0.000000        0.498019         1
         3         4         5        47     9      180.000000       19.143254         2
         3         4         5        47     9        0.000000        0.444550         3
         3         4         5        47     9      180.000000       -0.612348         4
         3        52        53        54     9        0.000000       -1.068144         1
         3        52        53        54     9      180.000000        0.927282         2
         3        52        53        54     9        0.000000        0.569195         3
         3        52        53        54     9      180.000000        0.051274         4
         3        52        53        55     9        0.000000        0.122908         1
         3        52        53        55     9      180.000000       -0.132610         2
         3        52        53        55     9        0.000000        0.574168         3
         3        52        53        55     9      180.000000       -0.030622         4
         3        52        53        56     9        0.000000        0.122908         1
         3        52        53        56     9      180.000000       -0.132610         2
         3        52        53        56     9        0.000000        0.574168         3
         3        52        53        56     9      180.000000       -0.030622         4
         4         3         1        44     9        0.000000        0.249409         1
         4         3         1        44     9      180.000000       17.593205         2
         4         3         1        44     9        0.000000        0.311718         3
         4         3         1        44     9      180.000000       -0.456919         4
         4         3        52        53     9        0.000000        0.242506         1
         4         3        52        53     9      180.000000        3.236660         2
         4         3        52        53     9        0.000000        0.027046         3
         4         3        52        53     9      180.000000       -0.036955         4
         4         5         6         7     9        0.000000        0.031357         1
         4         5         6         7     9      180.000000       13.807822         2
         4         5         6         7     9        0.000000       -0.147425         3
         4         5         6         7     9      180.000000       -0.341714         4
         5         4         3        52     9        0.000000        0.192767         1
         5         4         3        52     9      180.000000       14.631452         2
         5         4         3        52     9        0.000000        0.133848         3
         5         4         3        52     9      180.000000       -0.124386         4
         5         6         2        45     9        0.000000        0.591811         1
         5         6         2        45     9      180.000000       20.786429         2
         5         6         2        45     9        0.000000        0.532577         3
         5         6         2        45     9      180.000000       -0.738405         4
         5         6         7         8     9        0.000000       -0.414529         1
         5         6         7         8     9      180.000000        3.037734         2
         5         6         7         8     9        0.000000        0.308429         3
         5         6         7         8     9      180.000000        0.046875         4
         5         6         7        10     9        0.000000       -0.040321         1
         5         6         7        10     9      180.000000        3.054571         2
         5         6         7        10     9        0.000000       -0.346061         3
         5         6         7        10     9      180.000000        0.104188         4
         6         2         1        44     9        0.000000        0.299585         1
         6         2         1        44     9      180.000000       18.119593         2
         6         2         1        44     9        0.000000        0.261551         3
         6         2         1        44     9      180.000000       -0.452141         4
         6         5         4        46     9        0.000000        0.299586         1
         6         5         4        46     9      180.000000       18.119593         2
         6         5         4        46     9        0.000000        0.261551         3
         6         5         4        46     9      180.000000       -0.452141         4
         6         7         8         9     9        0.000000        0.018562         1
         6         7         8         9     9      180.000000       23.830347         2
         6         7         8         9     9        0.000000        0.584022         3
         6         7         8         9     9      180.000000       -0.541693         4
         6         7        10        11     9        0.000000        0.557832         1
         6         7        10        11     9      180.000000       17.426944         2
         6         7        10        11     9        0.000000        0.000280         3
         6         7        10        11     9      180.000000       -1.064361         4
         6         7        10        29     9        0.000000       -0.342528         1
         6         7        10        29     9      180.000000        9.373591         2
         6         7        10        29     9        0.000000       -0.011073         3
         6         7        10        29     9      180.000000        0.140199         4
         7         6         2        45     9        0.000000        0.128368         1
         7         6         2        45     9      180.000000       18.608878         2
         7         6         2        45     9        0.000000        0.394276         3
         7         6         2        45     9      180.000000       -0.903818         4
         7         6         5        47     9        0.000000        0.128369         1
         7         6         5        47     9      180.000000       18.608878         2
         7         6         5        47     9        0.000000        0.394277         3
         7         6         5        47     9      180.000000       -0.903819         4
         7         8         9        11     9        0.000000        0.156097         1
         7         8         9        11     9      180.000000       44.006113         2
         7         8         9        11     9        0.000000       -4.590476         3
         7         8         9        11     9      180.000000        0.302896         4
         7        10        11         9     9        0.000000        0.167312         1
         7        10        11         9     9      180.000000       28.143127         2
         7        10        11         9     9        0.000000       -7.312387         3
         7        10        11         9     9      180.000000       -0.254232         4
         7        10        11        12     9        0.000000        0.792328         1
         7        10        11        12     9      180.000000        6.464536         2
         7        10        11        12     9        0.000000        0.813763         3
         7        10        11        12     9      180.000000       -0.126190         4
         8         7        10        11     9        0.000000       -0.380562         1
         8         7        10        11     9      180.000000       34.289810         2
         8         7        10        11     9        0.000000       -8.947923         3
         8         7        10        11     9      180.000000        0.081487         4
         8         7        10        29     9        0.000000        0.307648         1
         8         7        10        29     9      180.000000       15.742154         2
         8         7        10        29     9        0.000000       -0.641465         3
         8         7        10        29     9      180.000000       -0.475869         4
         8         9        11        10     9        0.000000       -0.185777         1
         8         9        11        10     9      180.000000       35.137634         2
         8         9        11        10     9        0.000000       -5.647778         3
         8         9        11        10     9      180.000000       -0.137816         4
         8         9        11        12     9        0.000000        1.060713         1
         8         9        11        12     9      180.000000       14.729800         2
         8         9        11        12     9        0.000000        1.190680         3
         8         9        11        12     9      180.000000       -0.410663         4
         9         8         7        10     9        0.000000       -0.312528         1
         9         8         7        10     9      180.000000       36.410815         2
         9         8         7        10     9        0.000000       -6.584208         3
         9         8         7        10     9      180.000000        0.003734         4
         9        11        10        29     9        0.000000        1.227716         1
         9        11        10        29     9      180.000000       11.938951         2
         9        11        10        29     9        0.000000       -0.089973         3
         9        11        10        29     9      180.000000       -0.301963         4
         9        11        12        13     9        0.000000       -1.430817         1
         9        11        12        13     9      180.000000        0.102354         2
         9        11        12        13     9        0.000000        0.158706         3
         9        11        12        13     9      180.000000        0.123059         4
         9        11        12        15     9        0.000000       -1.362464         1
         9        11        12        15     9      180.000000       -0.005544         2
         9        11        12        15     9        0.000000        0.173684         3
         9        11        12        15     9      180.000000        0.124316         4
         9        11        12        30     9        0.000000        0.281416         1
         9        11        12        30     9      180.000000        0.284846         2
         9        11        12        30     9        0.000000        0.121792         3
         9        11        12        30     9      180.000000        0.147238         4
        10        11        12        13     9        0.000000       -0.546159         1
        10        11        12        13     9      180.000000       -0.026898         2
        10        11        12        13     9        0.000000        0.338136         3
        10        11        12        13     9      180.000000        0.041308         4
        10        11        12        15     9        0.000000       -0.384264         1
        10        11        12        15     9      180.000000       -0.053116         2
        10        11        12        15     9        0.000000        0.348650         3
        10        11        12        15     9      180.000000        0.065369         4
        10        11        12        30     9        0.000000       -0.237292         1
        10        11        12        30     9      180.000000        0.170981         2
        10        11        12        30     9        0.000000        0.377563         3
        10        11        12        30     9      180.000000        0.098371         4
        11        12        13        14     9        0.000000       -2.463697         1
        11        12        13        14     9      180.000000       -0.808068         2
        11        12        13        14     9        0.000000        0.521108         3
        11        12        13        14     9      180.000000        0.128341         4
        11        12        13        21     9        0.000000       -0.946293         1
        11        12        13        21     9      180.000000        0.064705         2
        11        12        13        21     9        0.000000        0.144956         3
        11        12        13        21     9      180.000000        0.074243         4
        11        12        13        31     9        0.000000        0.224747         1
        11        12        13        31     9      180.000000       -0.236548         2
        11        12        13        31     9        0.000000        0.515857         3
        11        12        13        31     9      180.000000       -0.015950         4
        11        12        15        16     9        0.000000       -2.413902         1
        11        12        15        16     9      180.000000       -1.075098         2
        11        12        15        16     9        0.000000        0.532202         3
        11        12        15        16     9      180.000000        0.117168         4
        11        12        15        17     9        0.000000       -1.070255         1
        11        12        15        17     9      180.000000        0.308457         2
        11        12        15        17     9        0.000000        0.196837         3
        11        12        15        17     9      180.000000        0.098929         4
        11        12        15        33     9        0.000000        0.363147         1
        11        12        15        33     9      180.000000       -0.221877         2
        11        12        15        33     9        0.000000        0.510290         3
        11        12        15        33     9      180.000000       -0.015168         4
        12        11        10        29     9        0.000000       -0.059350         1
        12        11        10        29     9      180.000000        4.502727         2
        12        11        10        29     9        0.000000        0.407888         3
        12        11        10        29     9      180.000000        0.098854         4
        12        13        14        32     9        0.000000        5.987333         1
        12        13        14        32     9      180.000000       -4.747754         2
        12        13        14        32     9        0.000000        1.129336         3
        12        13        14        32     9      180.000000        0.152684         4
        12        13        21        20     9        0.000000        1.404796         1
        12        13        21        20     9      180.000000       -0.533586         2
        12        13        21        20     9        0.000000        0.143473         3
        12        13        21        20     9      180.000000        0.076550         4
        12        13        21        22     9        0.000000        0.885682         1
        12        13        21        22     9      180.000000       -0.202842         2
        12        13        21        22     9        0.000000        0.400566         3
        12        13        21        22     9      180.000000        0.241703         4
        12        13        21        39     9        0.000000        0.104334         1
        12        13        21        39     9      180.000000        0.069537         2
        12        13        21        39     9        0.000000        0.323965         3
        12        13        21        39     9      180.000000        0.017968         4
        12        15        16        34     9        0.000000        6.080281         1
        12        15        16        34     9      180.000000       -4.822805         2
        12        15        16        34     9        0.000000        1.193464         3
        12        15        16        34     9      180.000000        0.201441         4
        12        15        17        18     9        0.000000       -0.954921         1
        12        15        17        18     9      180.000000        0.598739         2
        12        15        17        18     9        0.000000        0.085886         3
        12        15        17        18     9      180.000000        0.019592         4
        12        15        17        20     9        0.000000        1.787515         1
        12        15        17        20     9      180.000000       -0.719445         2
        12        15        17        20     9        0.000000       -0.027704         3
        12        15        17        20     9      180.000000        0.218562         4
        12        15        17        35     9        0.000000       -0.346586         1
        12        15        17        35     9      180.000000       -0.049500         2
        12        15        17        35     9        0.000000        0.225967         3
        12        15        17        35     9      180.000000        0.120881         4
        13        12        15        16     9        0.000000       -2.995139         1
        13        12        15        16     9      180.000000        0.870827         2
        13        12        15        16     9        0.000000        0.087350         3
        13        12        15        16     9      180.000000        0.206179         4
        13        12        15        17     9        0.000000        2.459158         1
        13        12        15        17     9      180.000000       -1.294981         2
        13        12        15        17     9        0.000000       -0.205708         3
        13        12        15        17     9      180.000000        0.051835         4
        13        12        15        33     9        0.000000       -0.313474         1
        13        12        15        33     9      180.000000        0.009833         2
        13        12        15        33     9        0.000000        0.171838         3
        13        12        15        33     9      180.000000        0.023640         4
        13        21        20        17     9        0.000000        4.426470         1
        13        21        20        17     9      180.000000       -1.814803         2
        13        21        20        17     9        0.000000       -0.132018         3
        13        21        20        17     9      180.000000        0.157704         4
        13        21        22        23     9        0.000000        0.288375         1
        13        21        22        23     9      180.000000       -0.479928         2
        13        21        22        23     9        0.000000        0.676080         3
        13        21        22        23     9      180.000000       -0.043483         4
        14        13        12        15     9        0.000000       -3.075579         1
        14        13        12        15     9      180.000000        0.844037         2
        14        13        12        15     9        0.000000        0.102254         3
        14        13        12        15     9      180.000000        0.211494         4
        14        13        12        30     9        0.000000       -0.221097         1
        14        13        12        30     9      180.000000        0.232592         2
        14        13        12        30     9        0.000000        0.374558         3
        14        13        12        30     9      180.000000       -0.064397         4
        14        13        21        20     9        0.000000       -0.853634         1
        14        13        21        20     9      180.000000       -0.261158         2
        14        13        21        20     9        0.000000        0.450676         3
        14        13        21        20     9      180.000000       -0.054142         4
        14        13        21        22     9        0.000000        1.136788         1
        14        13        21        22     9      180.000000        0.071958         2
        14        13        21        22     9        0.000000        0.753281         3
        14        13        21        22     9      180.000000        0.029231         4
        14        13        21        39     9        0.000000        0.505888         1
        14        13        21        39     9      180.000000        0.384251         2
        14        13        21        39     9        0.000000        0.478938         3
        14        13        21        39     9      180.000000       -0.092338         4
        15        12        13        21     9        0.000000        2.173779         1
        15        12        13        21     9      180.000000       -1.124245         2
        15        12        13        21     9        0.000000       -0.285708         3
        15        12        13        21     9      180.000000       -0.003598         4
        15        12        13        31     9        0.000000       -0.351313         1
        15        12        13        31     9      180.000000        0.007069         2
        15        12        13        31     9        0.000000        0.174709         3
        15        12        13        31     9      180.000000        0.033627         4
        15        17        18        19     9        0.000000       -0.227661         1
        15        17        18        19     9      180.000000        0.198709         2
        15        17        18        19     9        0.000000        0.575653         3
        15        17        18        19     9      180.000000        0.042898         4
        15        17        18        36     9        0.000000       -0.018814         1
        15        17        18        36     9      180.000000        0.048557         2
        15        17        18        36     9        0.000000        0.576120         3
        15        17        18        36     9      180.000000        0.074092         4
        15        17        18        37     9        0.000000       -0.018814         1
        15        17        18        37     9      180.000000        0.048557         2
        15        17        18        37     9        0.000000        0.576120         3
        15        17        18        37     9      180.000000        0.074092         4
        15        17        20        21     9        0.000000        4.352346         1
        15        17        20        21     9      180.000000       -2.206175         2
        15        17        20        21     9        0.000000       -0.003556         3
        15        17        20        21     9      180.000000        0.165333         4
        16        15        12        30     9        0.000000       -0.200580         1
        16        15        12        30     9      180.000000        0.220303         2
        16        15        12        30     9        0.000000        0.389118         3
        16        15        12        30     9      180.000000       -0.058463         4
        16        15        17        18     9        0.000000        0.016896         1
        16        15        17        18     9      180.000000        0.496116         2
        16        15        17        18     9        0.000000        0.448333         3
        16        15        17        18     9      180.000000       -0.009281         4
        16        15        17        20     9        0.000000       -0.545333         1
        16        15        17        20     9      180.000000       -0.637964         2
        16        15        17        20     9        0.000000        0.329188         3
        16        15        17        20     9      180.000000        0.018467         4
        16        15        17        35     9        0.000000        0.285187         1
        16        15        17        35     9      180.000000        0.379094         2
        16        15        17        35     9        0.000000        0.476484         3
        16        15        17        35     9      180.000000       -0.166707         4
        17        15        12        30     9        0.000000       -0.763999         1
        17        15        12        30     9      180.000000        0.074254         2
        17        15        12        30     9        0.000000        0.094456         3
        17        15        12        30     9      180.000000        0.111201         4
        17        15        16        34     9        0.000000        7.727266         1
        17        15        16        34     9      180.000000       -5.206494         2
        17        15        16        34     9        0.000000        1.323975         3
        17        15        16        34     9      180.000000        0.328749         4
        17        18        19        38     9        0.000000        4.007016         1
        17        18        19        38     9      180.000000       -3.320209         2
        17        18        19        38     9        0.000000        1.326460         3
        17        18        19        38     9      180.000000        0.255147         4
        17        20        21        22     9        0.000000       -0.375262         1
        17        20        21        22     9      180.000000       -3.083586         2
        17        20        21        22     9        0.000000        0.304677         3
        17        20        21        22     9      180.000000        0.420919         4
        17        20        21        39     9        0.000000        0.266636         1
        17        20        21        39     9      180.000000        0.330187         2
        17        20        21        39     9        0.000000        0.477844         3
        17        20        21        39     9      180.000000       -0.186567         4
        18        17        15        33     9        0.000000       -0.201523         1
        18        17        15        33     9      180.000000        0.092106         2
        18        17        15        33     9        0.000000        0.387143         3
        18        17        15        33     9      180.000000       -0.008226         4
        18        17        20        21     9        0.000000       -0.966881         1
        18        17        20        21     9      180.000000        0.096258         2
        18        17        20        21     9        0.000000        0.174197         3
        18        17        20        21     9      180.000000        0.002285         4
        19        18        17        20     9        0.000000        0.402627         1
        19        18        17        20     9      180.000000       -1.643645         2
        19        18        17        20     9        0.000000        0.640951         3
        19        18        17        20     9      180.000000       -0.056513         4
        19        18        17        35     9        0.000000        0.211518         1
        19        18        17        35     9      180.000000        0.462525         2
        19        18        17        35     9        0.000000        0.743999         3
        19        18        17        35     9      180.000000        0.005084         4
        20        17        15        33     9        0.000000       -0.462764         1
        20        17        15        33     9      180.000000        0.209772         2
        20        17        15        33     9        0.000000        0.208553         3
        20        17        15        33     9      180.000000        0.011047         4
        20        17        18        36     9        0.000000        0.093355         1
        20        17        18        36     9      180.000000        0.124033         2
        20        17        18        36     9        0.000000        0.565329         3
        20        17        18        36     9      180.000000        0.025602         4
        20        17        18        37     9        0.000000        0.093355         1
        20        17        18        37     9      180.000000        0.124033         2
        20        17        18        37     9        0.000000        0.565329         3
        20        17        18        37     9      180.000000        0.025602         4
        20        21        13        31     9        0.000000       -0.261393         1
        20        21        13        31     9      180.000000        0.249258         2
        20        21        13        31     9        0.000000        0.357451         3
        20        21        13        31     9      180.000000       -0.040922         4
        20        21        22        23     9        0.000000       -1.894297         1
        20        21        22        23     9      180.000000       -2.746319         2
        20        21        22        23     9        0.000000        0.615789         3
        20        21        22        23     9      180.000000        0.127890         4
        21        13        12        30     9        0.000000       -0.963254         1
        21        13        12        30     9      180.000000       -0.044985         2
        21        13        12        30     9        0.000000        0.041361         3
        21        13        12        30     9      180.000000        0.127888         4
        21        13        14        32     9        0.000000        8.623688         1
        21        13        14        32     9      180.000000       -5.226138         2
        21        13        14        32     9        0.000000        1.322936         3
        21        13        14        32     9      180.000000        0.245137         4
        21        20        17        35     9        0.000000       -0.287618         1
        21        20        17        35     9      180.000000       -0.309009         2
        21        20        17        35     9        0.000000        0.387380         3
        21        20        17        35     9      180.000000        0.045662         4
        21        22        23        24     9        0.000000        0.284689         1
        21        22        23        24     9      180.000000        2.064076         2
        21        22        23        24     9        0.000000        0.006933         3
        21        22        23        24     9      180.000000        0.354834         4
        21        22        23        28     9        0.000000        0.284689         1
        21        22        23        28     9      180.000000        2.064076         2
        21        22        23        28     9        0.000000        0.006933         3
        21        22        23        28     9      180.000000        0.354834         4
        22        21        13        31     9        0.000000        0.252548         1
        22        21        13        31     9      180.000000       -0.123767         2
        22        21        13        31     9        0.000000        0.596959         3
        22        21        13        31     9      180.000000       -0.099829         4
        22        23        24        25     9        0.000000        0.090767         1
        22        23        24        25     9      180.000000       14.906646         2
        22        23        24        25     9        0.000000        0.077297         3
        22        23        24        25     9      180.000000       -0.276970         4
        22        23        24        40     9        0.000000        0.034744         1
        22        23        24        40     9      180.000000       12.254992         2
        22        23        24        40     9        0.000000        0.012883         3
        22        23        24        40     9      180.000000        0.080876         4
        22        23        28        27     9        0.000000        0.090767         1
        22        23        28        27     9      180.000000       14.906646         2
        22        23        28        27     9        0.000000        0.077297         3
        22        23        28        27     9      180.000000       -0.276970         4
        22        23        28        43     9        0.000000        0.034744         1
        22        23        28        43     9      180.000000       12.254992         2
        22        23        28        43     9        0.000000        0.012883         3
        22        23        28        43     9      180.000000        0.080876         4
        23        22        21        39     9        0.000000        1.415589         1
        23        22        21        39     9      180.000000       -0.246318         2
        23        22        21        39     9        0.000000        0.951127         3
        23        22        21        39     9      180.000000       -0.121517         4
        23        24        25        26     9        0.000000        0.008502         1
        23        24        25        26     9      180.000000       18.033237         2
        23        24        25        26     9        0.000000       -1.503915         3
        23        24        25        26     9      180.000000       -0.413491         4
        23        24        25        41     9        0.000000        0.103565         1
        23        24        25        41     9      180.000000       14.220273         2
        23        24        25        41     9        0.000000       -0.516611         3
        23        24        25        41     9      180.000000        0.127951         4
        23        28        27        26     9        0.000000        0.008502         1
        23        28        27        26     9      180.000000       18.033237         2
        23        28        27        26     9        0.000000       -1.503915         3
        23        28        27        26     9      180.000000       -0.413491         4
        23        28        27        42     9        0.000000        0.103565         1
        23        28        27        42     9      180.000000       14.220273         2
        23        28        27        42     9        0.000000       -0.516611         3
        23        28        27        42     9      180.000000        0.127951         4
        24        23        28        27     9        0.000000        0.084359         1
        24        23        28        27     9      180.000000       18.238250         2
        24        23        28        27     9        0.000000       -1.324121         3
        24        23        28        27     9      180.000000       -0.437229         4
        24        23        28        43     9        0.000000        0.085492         1
        24        23        28        43     9      180.000000       13.243304         2
        24        23        28        43     9        0.000000       -0.540870         3
        24        23        28        43     9      180.000000        0.076148         4
        24        25        26        27     9        0.000000       -0.066714         1
        24        25        26        27     9      180.000000       18.829512         2
        24        25        26        27     9        0.000000       -1.336610         3
        24        25        26        27     9      180.000000       -0.462957         4
        24        25        26        48     9        0.000000        0.142438         1
        24        25        26        48     9      180.000000       15.590057         2
        24        25        26        48     9        0.000000       -0.174449         3
        24        25        26        48     9      180.000000       -0.113364         4
        25        24        23        28     9        0.000000        0.084359         1
        25        24        23        28     9      180.000000       18.238250         2
        25        24        23        28     9        0.000000       -1.324121         3
        25        24        23        28     9      180.000000       -0.437229         4
        25        26        27        28     9        0.000000       -0.066714         1
        25        26        27        28     9      180.000000       18.829512         2
        25        26        27        28     9        0.000000       -1.336610         3
        25        26        27        28     9      180.000000       -0.462957         4
        25        26        27        42     9        0.000000       -0.040104         1
        25        26        27        42     9      180.000000       14.335381         2
        25        26        27        42     9        0.000000       -0.542025         3
        25        26        27        42     9      180.000000        0.083423         4
        25        26        48        49     9        0.000000       -0.021448         1
        25        26        48        49     9      180.000000        0.013149         2
        25        26        48        49     9        0.000000       -0.015868         3
        25        26        48        49     9      180.000000        0.007989         4
        25        26        48        50     9        0.000000       -0.021448         1
        25        26        48        50     9      180.000000        0.013149         2
        25        26        48        50     9        0.000000       -0.015868         3
        25        26        48        50     9      180.000000        0.007989         4
        25        26        48        51     9        0.000000       -0.021448         1
        25        26        48        51     9      180.000000        0.013149         2
        25        26        48        51     9        0.000000       -0.015868         3
        25        26        48        51     9      180.000000        0.007989         4
        26        25        24        40     9        0.000000        0.140304         1
        26        25        24        40     9      180.000000       14.166239         2
        26        25        24        40     9        0.000000       -0.708834         3
        26        25        24        40     9      180.000000        0.143764         4
        26        27        28        43     9        0.000000        0.140304         1
        26        27        28        43     9      180.000000       14.166239         2
        26        27        28        43     9        0.000000       -0.708834         3
        26        27        28        43     9      180.000000        0.143764         4
        27        26        25        41     9        0.000000       -0.040104         1
        27        26        25        41     9      180.000000       14.335381         2
        27        26        25        41     9        0.000000       -0.542025         3
        27        26        25        41     9      180.000000        0.083423         4
        27        26        48        49     9        0.000000       -0.021448         1
        27        26        48        49     9      180.000000        0.013149         2
        27        26        48        49     9        0.000000       -0.015868         3
        27        26        48        49     9      180.000000        0.007989         4
        27        26        48        50     9        0.000000       -0.021448         1
        27        26        48        50     9      180.000000        0.013149         2
        27        26        48        50     9        0.000000       -0.015868         3
        27        26        48        50     9      180.000000        0.007989         4
        27        26        48        51     9        0.000000       -0.021448         1
        27        26        48        51     9      180.000000        0.013149         2
        27        26        48        51     9        0.000000       -0.015868         3
        27        26        48        51     9      180.000000        0.007989         4
        28        23        24        40     9        0.000000        0.085492         1
        28        23        24        40     9      180.000000       13.243304         2
        28        23        24        40     9        0.000000       -0.540870         3
        28        23        24        40     9      180.000000        0.076148         4
        28        27        26        48     9        0.000000        0.142438         1
        28        27        26        48     9      180.000000       15.590057         2
        28        27        26        48     9        0.000000       -0.174449         3
        28        27        26        48     9      180.000000       -0.113364         4
        30        12        13        31     9        0.000000        0.403592         1
        30        12        13        31     9      180.000000        0.247010         2
        30        12        13        31     9        0.000000        0.441818         3
        30        12        13        31     9      180.000000       -0.177686         4
        30        12        15        33     9        0.000000        0.451067         1
        30        12        15        33     9      180.000000        0.148263         2
        30        12        15        33     9        0.000000        0.447451         3
        30        12        15        33     9      180.000000       -0.170967         4
        31        13        14        32     9        0.000000        2.433431         1
        31        13        14        32     9      180.000000       -1.780002         2
        31        13        14        32     9        0.000000        0.608029         3
        31        13        14        32     9      180.000000        0.328178         4
        31        13        21        39     9        0.000000        0.109987         1
        31        13        21        39     9      180.000000        0.118905         2
        31        13        21        39     9        0.000000        0.596732         3
        31        13        21        39     9      180.000000       -0.114269         4
        33        15        16        34     9        0.000000        2.929974         1
        33        15        16        34     9      180.000000       -2.028959         2
        33        15        16        34     9        0.000000        0.666360         3
        33        15        16        34     9      180.000000        0.366349         4
        33        15        17        35     9        0.000000        0.364640         1
        33        15        17        35     9      180.000000        0.035578         2
        33        15        17        35     9        0.000000        0.640265         3
        33        15        17        35     9      180.000000       -0.194472         4
        35        17        18        36     9        0.000000        0.052025         1
        35        17        18        36     9      180.000000       -0.013893         2
        35        17        18        36     9        0.000000        0.749390         3
        35        17        18        36     9      180.000000       -0.067040         4
        35        17        18        37     9        0.000000        0.052025         1
        35        17        18        37     9      180.000000       -0.013893         2
        35        17        18        37     9        0.000000        0.749390         3
        35        17        18        37     9      180.000000       -0.067040         4
        36        18        19        38     9        0.000000        0.213708         1
        36        18        19        38     9      180.000000       -0.140067         2
        36        18        19        38     9        0.000000        0.920910         3
        36        18        19        38     9      180.000000        0.084170         4
        37        18        19        38     9        0.000000        0.213708         1
        37        18        19        38     9      180.000000       -0.140067         2
        37        18        19        38     9        0.000000        0.920910         3
        37        18        19        38     9      180.000000        0.084170         4
        40        24        25        41     9        0.000000       -0.061596         1
        40        24        25        41     9      180.000000       12.072527         2
        40        24        25        41     9        0.000000       -0.716058         3
        40        24        25        41     9      180.000000        0.281920         4
        41        25        26        48     9        0.000000       -0.150871         1
        41        25        26        48     9      180.000000       12.936876         2
        41        25        26        48     9        0.000000       -0.352460         3
        41        25        26        48     9      180.000000        0.224871         4
        42        27        26        48     9        0.000000       -0.150871         1
        42        27        26        48     9      180.000000       12.936876         2
        42        27        26        48     9        0.000000       -0.352460         3
        42        27        26        48     9      180.000000        0.224871         4
        42        27        28        43     9        0.000000       -0.061596         1
        42        27        28        43     9      180.000000       12.072527         2
        42        27        28        43     9        0.000000       -0.716058         3
        42        27        28        43     9      180.000000        0.281920         4
        44         1         2        45     9        0.000000        0.083608         1
        44         1         2        45     9      180.000000       24.103420         2
        44         1         2        45     9        0.000000        0.584226         3
        44         1         2        45     9      180.000000       -1.136783         4
        44         1         3        52     9        0.000000       -0.039846         1
        44         1         3        52     9      180.000000       19.078523         2
        44         1         3        52     9        0.000000        0.090951         3
        44         1         3        52     9      180.000000       -0.517719         4
        46         4         3        52     9        0.000000       -0.039848         1
        46         4         3        52     9      180.000000       19.078525         2
        46         4         3        52     9        0.000000        0.090951         3
        46         4         3        52     9      180.000000       -0.517719         4
        46         4         5        47     9        0.000000        0.083607         1
        46         4         5        47     9      180.000000       24.103424         2
        46         4         5        47     9        0.000000        0.584226         3
        46         4         5        47     9      180.000000       -1.136783         4
        52        53        54        57     9        0.000000        0.155360         1
        52        53        54        57     9      180.000000       -0.006484         2
        52        53        54        57     9        0.000000        0.519564         3
        52        53        54        57     9      180.000000        0.049693         4
        52        53        54        58     9        0.000000        0.155360         1
        52        53        54        58     9      180.000000       -0.006484         2
        52        53        54        58     9        0.000000        0.519564         3
        52        53        54        58     9      180.000000        0.049693         4
        52        53        54        59     9        0.000000        0.155360         1
        52        53        54        59     9      180.000000       -0.006484         2
        52        53        54        59     9        0.000000        0.519564         3
        52        53        54        59     9      180.000000        0.049693         4
        55        53        54        57     9        0.000000       -0.022728         1
        55        53        54        57     9      180.000000        0.015003         2
        55        53        54        57     9        0.000000        0.603376         3
        55        53        54        57     9      180.000000       -0.000324         4
        55        53        54        58     9        0.000000       -0.022728         1
        55        53        54        58     9      180.000000        0.015003         2
        55        53        54        58     9        0.000000        0.603376         3
        55        53        54        58     9      180.000000       -0.000324         4
        55        53        54        59     9        0.000000       -0.022728         1
        55        53        54        59     9      180.000000        0.015003         2
        55        53        54        59     9        0.000000        0.603376         3
        55        53        54        59     9      180.000000       -0.000324         4
        56        53        54        57     9        0.000000       -0.022728         1
        56        53        54        57     9      180.000000        0.015003         2
        56        53        54        57     9        0.000000        0.603376         3
        56        53        54        57     9      180.000000       -0.000324         4
        56        53        54        58     9        0.000000       -0.022728         1
        56        53        54        58     9      180.000000        0.015003         2
        56        53        54        58     9        0.000000        0.603376         3
        56        53        54        58     9      180.000000       -0.000324         4
        56        53        54        59     9        0.000000       -0.022728         1
        56        53        54        59     9      180.000000        0.015003         2
        56        53        54        59     9        0.000000        0.603376         3
        56        53        54        59     9      180.000000       -0.000324         4

[ dihedrals ] ; impropers
;       ai        aj        ak        al funct           phase               k        pn
        24        23        25        40     4      180.000000        1.752813         2
        24        25        40        23     4      180.000000        1.752813         2
        24        40        23        25     4      180.000000        1.752813         2
        25        24        26        41     4      180.000000        2.505519         2
        25        26        41        24     4      180.000000        2.505519         2
        25        41        24        26     4      180.000000        2.505519         2
        27        26        28        42     4      180.000000        2.505519         2
        27        28        42        26     4      180.000000        2.505519         2
        27        42        26        28     4      180.000000        2.505519         2
        28        23        27        43     4      180.000000        1.752813         2
        28        27        43        23     4      180.000000        1.752813         2
        28        43        23        27     4      180.000000        1.752813         2

[ pairs ]
;       ai        aj funct
         1         5     1
         1         7     1
         1        46     1
         1        53     1
         2         4     1
         2         8     1
         2        10     1
         2        47     1
         2        52     1
         3         6     1
         3        45     1
         3        47     1
         3        54     1
         3        55     1
         3        56     1
         4         7     1
         4        44     1
         4        53     1
         5         8     1
         5        10     1
         5        45     1
         5        52     1
         6         9     1
         6        11     1
         6        29     1
         6        44     1
         6        46     1
         7        12     1
         7        45     1
         7        47     1
         8        12     1
         8        29     1
         9        13     1
         9        15     1
         9        29     1
         9        30     1
        10        13     1
        10        15     1
        10        30     1
        11        14     1
        11        16     1
        11        17     1
        11        21     1
        11        31     1
        11        33     1
        12        18     1
        12        20     1
        12        22     1
        12        29     1
        12        32     1
        12        34     1
        12        35     1
        12        39     1
        13        16     1
        13        17     1
        13        23     1
        13        33     1
        14        15     1
        14        20     1
        14        22     1
        14        30     1
        14        39     1
        15        19     1
        15        21     1
        15        31     1
        15        36     1
        15        37     1
        16        18     1
        16        20     1
        16        30     1
        16        35     1
        17        22     1
        17        30     1
        17        34     1
        17        38     1
        17        39     1
        18        21     1
        18        33     1
        19        20     1
        19        35     1
        20        23     1
        20        31     1
        20        33     1
        20        36     1
        20        37     1
        21        24     1
        21        28     1
        21        30     1
        21        32     1
        21        35     1
        22        25     1
        22        27     1
        22        31     1
        22        40     1
        22        43     1
        23        26     1
        23        39     1
        23        41     1
        23        42     1
        24        27     1
        24        43     1
        24        48     1
        25        28     1
        25        42     1
        25        49     1
        25        50     1
        25        51     1
        26        40     1
        26        43     1
        27        41     1
        27        49     1
        27        50     1
        27        51     1
        28        40     1
        28        48     1
        30        31     1
        30        33     1
        31        32     1
        31        39     1
        33        34     1
        33        35     1
        35        36     1
        35        37     1
        36        38     1
        37        38     1
        40        41     1
        41        48     1
        42        43     1
        42        48     1
        44        45     1
        44        52     1
        46        47     1
        46        52     1
        52        57     1
        52        58     1
        52        59     1
        55        57     1
        55        58     1
        55        59     1
        56        57     1
        56        58     1
        56        59     1
