; ITP file created by ByteFF-joint-25, 2026-02-17 09:20:25.498196

[ atomtypes ]
;name           bonded.type        at.num        mass        charge   ptype           sigma         epsilon
 o0bf                                   8      0.0000       0.00000       A     3.04821e-01     6.11590e-01    ;  uncertainty sigma = 0.000055, epsilon = 0.001784
 c1bf                                   6      0.0000       0.00000       A     3.31484e-01     4.14075e-01    ;  uncertainty sigma = 0.000035, epsilon = 0.002537
 o2bf                                   8      0.0000       0.00000       A     3.04821e-01     6.11590e-01    ;  uncertainty sigma = 0.000055, epsilon = 0.001784
 c3bf                                   6      0.0000       0.00000       A     3.31468e-01     4.14152e-01    ;  uncertainty sigma = 0.000036, epsilon = 0.002833
 s4bf                                  16      0.0000       0.00000       A     3.53130e-01     1.18166e+00    ;  uncertainty sigma = 0.000047, epsilon = 0.004042
 c5bf                                   6      0.0000       0.00000       A     3.31539e-01     4.12598e-01    ;  uncertainty sigma = 0.000007, epsilon = 0.001283
 c6bf                                   6      0.0000       0.00000       A     3.31534e-01     4.13380e-01    ;  uncertainty sigma = 0.000003, epsilon = 0.000623
 c7bf                                   6      0.0000       0.00000       A     3.31518e-01     4.13327e-01    ;  uncertainty sigma = 0.000005, epsilon = 0.000541
 c8bf                                   6      0.0000       0.00000       A     3.31518e-01     4.13315e-01    ;  uncertainty sigma = 0.000004, epsilon = 0.000577
 c9bf                                   6      0.0000       0.00000       A     3.31522e-01     4.13188e-01    ;  uncertainty sigma = 0.000007, epsilon = 0.000512
 c10bf                                  6      0.0000       0.00000       A     3.31528e-01     4.13270e-01    ;  uncertainty sigma = 0.000009, epsilon = 0.000653
 c11bf                                  6      0.0000       0.00000       A     3.31589e-01     4.13043e-01    ;  uncertainty sigma = 0.000011, epsilon = 0.001388
 c12bf                                  6      0.0000       0.00000       A     3.39765e-01     4.50670e-01    ;  uncertainty sigma = 0.000026, epsilon = 0.001010
 c13bf                                  6      0.0000       0.00000       A     3.39754e-01     4.50591e-01    ;  uncertainty sigma = 0.000007, epsilon = 0.000968
 c14bf                                  6      0.0000       0.00000       A     3.39780e-01     4.50469e-01    ;  uncertainty sigma = 0.000008, epsilon = 0.000834
 o15bf                                  8      0.0000       0.00000       A     3.15667e-01     3.03012e-01    ;  uncertainty sigma = 0.000025, epsilon = 0.001888
 c16bf                                  6      0.0000       0.00000       A     3.31550e-01     4.13524e-01    ;  uncertainty sigma = 0.000007, epsilon = 0.000519
 c17bf                                  6      0.0000       0.00000       A     3.31525e-01     4.13209e-01    ;  uncertainty sigma = 0.000006, epsilon = 0.000593
 c18bf                                  6      0.0000       0.00000       A     3.31529e-01     4.13386e-01    ;  uncertainty sigma = 0.000002, epsilon = 0.000727
 c19bf                                  6      0.0000       0.00000       A     3.31514e-01     4.13155e-01    ;  uncertainty sigma = 0.000007, epsilon = 0.000630
 h20bf                                  1      0.0000       0.00000       A     2.62571e-01     6.69918e-02    ;  uncertainty sigma = 0.000017, epsilon = 0.000500
 h21bf                                  1      0.0000       0.00000       A     2.62567e-01     6.69756e-02    ;  uncertainty sigma = 0.000012, epsilon = 0.000544
 h22bf                                  1      0.0000       0.00000       A     2.62563e-01     6.69792e-02    ;  uncertainty sigma = 0.000011, epsilon = 0.000555
 h23bf                                  1      0.0000       0.00000       A     2.62569e-01     6.69692e-02    ;  uncertainty sigma = 0.000007, epsilon = 0.000343
 h24bf                                  1      0.0000       0.00000       A     2.60036e-01     8.65938e-02    ;  uncertainty sigma = 0.000009, epsilon = 0.000837
 h25bf                                  1      0.0000       0.00000       A     2.60036e-01     8.65938e-02    ;  uncertainty sigma = 0.000009, epsilon = 0.000837
 h26bf                                  1      0.0000       0.00000       A     2.60032e-01     8.63750e-02    ;  uncertainty sigma = 0.000011, epsilon = 0.000877
 h27bf                                  1      0.0000       0.00000       A     2.60032e-01     8.63750e-02    ;  uncertainty sigma = 0.000011, epsilon = 0.000877
 h28bf                                  1      0.0000       0.00000       A     2.42191e-01     8.69833e-02    ;  uncertainty sigma = 0.000030, epsilon = 0.000474
 h29bf                                  1      0.0000       0.00000       A     2.42191e-01     8.69833e-02    ;  uncertainty sigma = 0.000030, epsilon = 0.000474
 h30bf                                  1      0.0000       0.00000       A     2.62574e-01     6.69587e-02    ;  uncertainty sigma = 0.000012, epsilon = 0.000438
 c31bf                                  6      0.0000       0.00000       A     3.31525e-01     4.13520e-01    ;  uncertainty sigma = 0.000007, epsilon = 0.000401
 c32bf                                  6      0.0000       0.00000       A     3.31499e-01     4.13379e-01    ;  uncertainty sigma = 0.000012, epsilon = 0.000710
 c33bf                                  6      0.0000       0.00000       A     3.31518e-01     4.13093e-01    ;  uncertainty sigma = 0.000007, epsilon = 0.000322
 c34bf                                  6      0.0000       0.00000       A     3.31524e-01     4.13323e-01    ;  uncertainty sigma = 0.000003, epsilon = 0.000661
 c35bf                                  6      0.0000       0.00000       A     3.31523e-01     4.13359e-01    ;  uncertainty sigma = 0.000003, epsilon = 0.000695
 c36bf                                  6      0.0000       0.00000       A     3.31524e-01     4.13214e-01    ;  uncertainty sigma = 0.000004, epsilon = 0.000571
 h37bf                                  1      0.0000       0.00000       A     2.62548e-01     6.70306e-02    ;  uncertainty sigma = 0.000019, epsilon = 0.000384
 h38bf                                  1      0.0000       0.00000       A     2.62567e-01     6.69733e-02    ;  uncertainty sigma = 0.000010, epsilon = 0.000525
 h39bf                                  1      0.0000       0.00000       A     2.62567e-01     6.69734e-02    ;  uncertainty sigma = 0.000010, epsilon = 0.000525
 h40bf                                  1      0.0000       0.00000       A     2.62559e-01     6.70662e-02    ;  uncertainty sigma = 0.000013, epsilon = 0.000302
 h41bf                                  1      0.0000       0.00000       A     2.62585e-01     6.69641e-02    ;  uncertainty sigma = 0.000009, epsilon = 0.000462
 h42bf                                  1      0.0000       0.00000       A     2.62559e-01     6.70663e-02    ;  uncertainty sigma = 0.000013, epsilon = 0.000302

[ moleculetype ]
;name             nrexcl
 MOL                   3

[ atoms ]
;       nr            type      resi   res      atom      cgnr      charge          mass ; qtot
         1            o0bf         1   UNL        o0         1    -0.82215       15.9990 ; qtot   -0.822
         2            c1bf         1   UNL        c1         2     0.92085       12.0110 ; qtot    0.099
         3            o2bf         1   UNL        o2         3    -0.82215       15.9990 ; qtot   -0.723
         4            c3bf         1   UNL        c3         4    -0.07127       12.0110 ; qtot   -0.795
         5            s4bf         1   UNL        s4         5    -0.10495       32.0670 ; qtot   -0.900
         6            c5bf         1   UNL        c5         6    -0.06308       12.0110 ; qtot   -0.963
         7            c6bf         1   UNL        c6         7    -0.11767       12.0110 ; qtot   -1.080
         8            c7bf         1   UNL        c7         8    -0.11950       12.0110 ; qtot   -1.200
         9            c8bf         1   UNL        c8         9    -0.13403       12.0110 ; qtot   -1.334
        10            c9bf         1   UNL        c9        10    -0.10413       12.0110 ; qtot   -1.438
        11           c10bf         1   UNL       c10        11    -0.06264       12.0110 ; qtot   -1.501
        12           c11bf         1   UNL       c11        12    -0.12788       12.0110 ; qtot   -1.629
        13           c12bf         1   UNL       c12        13    -0.02211       12.0110 ; qtot   -1.651
        14           c13bf         1   UNL       c13        14    -0.09594       12.0110 ; qtot   -1.747
        15           c14bf         1   UNL       c14        15     0.13628       12.0110 ; qtot   -1.610
        16           o15bf         1   UNL       o15        16    -0.33774       15.9990 ; qtot   -1.948
        17           c16bf         1   UNL       c16        17     0.14513       12.0110 ; qtot   -1.803
        18           c17bf         1   UNL       c17        18    -0.13575       12.0110 ; qtot   -1.939
        19           c18bf         1   UNL       c18        19    -0.09521       12.0110 ; qtot   -2.034
        20           c19bf         1   UNL       c19        20    -0.21404       12.0110 ; qtot   -2.248
        21           h20bf         1   UNL       h20        21     0.13981        1.0080 ; qtot   -2.108
        22           h21bf         1   UNL       h21        22     0.13312        1.0080 ; qtot   -1.975
        23           h22bf         1   UNL       h22        23     0.13323        1.0080 ; qtot   -1.842
        24           h23bf         1   UNL       h23        24     0.13728        1.0080 ; qtot   -1.705
        25           h24bf         1   UNL       h24        25     0.05244        1.0080 ; qtot   -1.652
        26           h25bf         1   UNL       h25        26     0.05244        1.0080 ; qtot   -1.600
        27           h26bf         1   UNL       h26        27     0.05654        1.0080 ; qtot   -1.543
        28           h27bf         1   UNL       h27        28     0.05654        1.0080 ; qtot   -1.487
        29           h28bf         1   UNL       h28        29     0.04657        1.0080 ; qtot   -1.440
        30           h29bf         1   UNL       h29        30     0.04657        1.0080 ; qtot   -1.393
        31           h30bf         1   UNL       h30        31     0.14093        1.0080 ; qtot   -1.253
        32           c31bf         1   UNL       c31        32    -0.02304       12.0110 ; qtot   -1.276
        33           c32bf         1   UNL       c32        33    -0.05635       12.0110 ; qtot   -1.332
        34           c33bf         1   UNL       c33        34    -0.10394       12.0110 ; qtot   -1.436
        35           c34bf         1   UNL       c34        35    -0.13597       12.0110 ; qtot   -1.572
        36           c35bf         1   UNL       c35        36    -0.12037       12.0110 ; qtot   -1.692
        37           c36bf         1   UNL       c36        37    -0.12275       12.0110 ; qtot   -1.815
        38           h37bf         1   UNL       h37        38     0.14397        1.0080 ; qtot   -1.671
        39           h38bf         1   UNL       h38        39     0.13455        1.0080 ; qtot   -1.536
        40           h39bf         1   UNL       h39        40     0.13276        1.0080 ; qtot   -1.404
        41           h40bf         1   UNL       h40        41     0.13307        1.0080 ; qtot   -1.271
        42           h41bf         1   UNL       h41        42     0.13604        1.0080 ; qtot   -1.135
        43           h42bf         1   UNL       h42        43     0.13454        1.0080 ; qtot   -1.000

[ bonds ]
;       ai        aj funct               r               k
         1         2     1        0.126206   550538.656934    ;  uncertainty r = 0.000120, k = 6.029842
         2         3     1        0.126206   550538.656934    ;  uncertainty r = 0.000120, k = 6.029842
         2         4     1        0.153991   171081.497412    ;  uncertainty r = 0.000198, k = 56.663890
         4         5     1        0.176446   155307.773999    ;  uncertainty r = 0.000161, k = 28.965815
         4        12     1        0.137252   381655.419434    ;  uncertainty r = 0.000103, k = 12.367708
         5         6     1        0.175094   179352.226562    ;  uncertainty r = 0.000038, k = 24.370858
         6         7     1        0.139979   360206.035156    ;  uncertainty r = 0.000054, k = 8.207248
         6        11     1        0.142203   343915.657715    ;  uncertainty r = 0.000146, k = 15.050650
         7         8     1        0.139090   372788.526465    ;  uncertainty r = 0.000021, k = 2.928295
         7        21     1        0.108825   336675.172168    ;  uncertainty r = 0.000032, k = 0.921406
         8         9     1        0.140958   354167.760107    ;  uncertainty r = 0.000031, k = 1.321738
         8        22     1        0.108790   334634.757129    ;  uncertainty r = 0.000012, k = 1.134592
         9        10     1        0.138958   368245.372559    ;  uncertainty r = 0.000035, k = 2.599954
         9        23     1        0.108807   334481.585547    ;  uncertainty r = 0.000023, k = 0.761359
        10        11     1        0.140814   352107.707031    ;  uncertainty r = 0.000038, k = 4.726743
        10        24     1        0.108792   336167.800879    ;  uncertainty r = 0.000020, k = 1.967848
        11        12     1        0.144720   236754.719775    ;  uncertainty r = 0.000151, k = 28.692975
        12        13     1        0.150431   229171.526221    ;  uncertainty r = 0.000108, k = 11.639875
        13        14     1        0.153699   203619.464868    ;  uncertainty r = 0.000117, k = 8.765826
        13        25     1        0.109592   311413.403906    ;  uncertainty r = 0.000035, k = 1.661212
        13        26     1        0.109592   311413.403906    ;  uncertainty r = 0.000035, k = 1.661212
        14        15     1        0.152154   209837.227490    ;  uncertainty r = 0.000045, k = 4.154369
        14        27     1        0.109645   307905.754248    ;  uncertainty r = 0.000031, k = 1.503098
        14        28     1        0.109645   307905.754248    ;  uncertainty r = 0.000031, k = 1.503098
        15        16     1        0.142782   231869.521826    ;  uncertainty r = 0.000050, k = 4.849883
        15        29     1        0.109724   308279.106787    ;  uncertainty r = 0.000019, k = 1.483942
        15        30     1        0.109724   308279.106787    ;  uncertainty r = 0.000019, k = 1.483942
        16        17     1        0.136655   326316.222510    ;  uncertainty r = 0.000064, k = 10.302412
        17        20     1        0.138195   347784.427637    ;  uncertainty r = 0.000087, k = 7.943545
        17        33     1        0.142488   314726.230957    ;  uncertainty r = 0.000062, k = 8.281804
        18        19     1        0.137749   374604.751221    ;  uncertainty r = 0.000037, k = 4.265673
        18        32     1        0.142098   349009.749219    ;  uncertainty r = 0.000048, k = 5.218715
        18        43     1        0.108802   334878.074707    ;  uncertainty r = 0.000015, k = 1.345249
        19        20     1        0.141654   351742.500830    ;  uncertainty r = 0.000138, k = 8.139821
        19        42     1        0.108730   333619.069678    ;  uncertainty r = 0.000016, k = 1.862021
        20        31     1        0.108748   338790.257715    ;  uncertainty r = 0.000030, k = 1.699317
        32        33     1        0.143171   332447.248340    ;  uncertainty r = 0.000057, k = 5.746975
        32        37     1        0.142103   349376.104590    ;  uncertainty r = 0.000053, k = 3.058877
        33        34     1        0.141848   331211.839600    ;  uncertainty r = 0.000038, k = 5.635547
        34        35     1        0.138023   367791.322754    ;  uncertainty r = 0.000025, k = 2.241963
        34        38     1        0.108628   335903.057666    ;  uncertainty r = 0.000013, k = 0.678321
        35        36     1        0.141669   357736.903125    ;  uncertainty r = 0.000034, k = 2.704723
        35        39     1        0.108804   334144.036035    ;  uncertainty r = 0.000012, k = 1.469940
        36        37     1        0.137829   370848.727637    ;  uncertainty r = 0.000014, k = 2.697030
        36        40     1        0.108812   334757.871533    ;  uncertainty r = 0.000008, k = 1.170074
        37        41     1        0.108836   335130.713330    ;  uncertainty r = 0.000009, k = 0.888129

[ angles ]
;       ai        aj        ak funct           theta             cth
         1         2         3     1      131.376190      795.605387    ;  uncertainty theta = 0.007064, k = 0.173884
         1         2         4     1      115.271217      366.534131    ;  uncertainty theta = 0.013132, k = 0.257676
         2         4         5     1      116.188309      346.128927    ;  uncertainty theta = 0.021699, k = 0.304357
         2         4        12     1      124.769119      299.799376    ;  uncertainty theta = 0.013381, k = 0.235846
         3         2         4     1      115.271217      366.534131    ;  uncertainty theta = 0.013132, k = 0.257676
         4         5         6     1       91.070724     1140.601328    ;  uncertainty theta = 0.005180, k = 0.108594
         4        12        11     1      114.463951      621.710440    ;  uncertainty theta = 0.006486, k = 0.099238
         4        12        13     1      122.529907      362.335670    ;  uncertainty theta = 0.006741, k = 0.136819
         5         4        12     1      114.402908      502.235361    ;  uncertainty theta = 0.004852, k = 0.374149
         5         6         7     1      127.131554      377.267218    ;  uncertainty theta = 0.003075, k = 0.149820
         5         6        11     1      110.607277      473.268076    ;  uncertainty theta = 0.002699, k = 0.345157
         6         7         8     1      117.974564      523.244582    ;  uncertainty theta = 0.002588, k = 0.095772
         6         7        21     1      122.329201      292.093489    ;  uncertainty theta = 0.001657, k = 0.127084
         6        11        10     1      117.447670      421.970279    ;  uncertainty theta = 0.002601, k = 0.190995
         6        11        12     1      113.495224      587.262923    ;  uncertainty theta = 0.006772, k = 0.251085
         7         6        11     1      119.845047      390.384610    ;  uncertainty theta = 0.003103, k = 0.072910
         7         8         9     1      120.983932      525.172282    ;  uncertainty theta = 0.002005, k = 0.041006
         7         8        22     1      119.673019      284.701102    ;  uncertainty theta = 0.001550, k = 0.039558
         8         7        21     1      121.021057      284.674512    ;  uncertainty theta = 0.001369, k = 0.013746
         8         9        10     1      121.055679      530.510655    ;  uncertainty theta = 0.001100, k = 0.031972
         8         9        23     1      119.913673      287.957563    ;  uncertainty theta = 0.001772, k = 0.026239
         9         8        22     1      120.087730      287.944124    ;  uncertainty theta = 0.001454, k = 0.022035
         9        10        11     1      119.545876      538.977676    ;  uncertainty theta = 0.005413, k = 0.118806
         9        10        24     1      120.639442      287.212645    ;  uncertainty theta = 0.001894, k = 0.034802
        10         9        23     1      119.869064      289.735201    ;  uncertainty theta = 0.002213, k = 0.016286
        10        11        12     1      127.269386      380.316956    ;  uncertainty theta = 0.005937, k = 0.134086
        11        10        24     1      120.746094      276.230507    ;  uncertainty theta = 0.003287, k = 0.067382
        11        12        13     1      121.863319      377.094045    ;  uncertainty theta = 0.008210, k = 0.210905
        12        13        14     1      111.412148      539.917888    ;  uncertainty theta = 0.005091, k = 0.071658
        12        13        25     1      106.723038      402.907561    ;  uncertainty theta = 0.002429, k = 0.078967
        12        13        26     1      106.723038      402.907561    ;  uncertainty theta = 0.002429, k = 0.078967
        13        14        15     1      109.637352      549.717052    ;  uncertainty theta = 0.002281, k = 0.061173
        13        14        27     1      107.607239      393.541092    ;  uncertainty theta = 0.002929, k = 0.054506
        13        14        28     1      107.607239      393.541092    ;  uncertainty theta = 0.002929, k = 0.054506
        14        13        25     1      107.018509      404.245929    ;  uncertainty theta = 0.001674, k = 0.104735
        14        13        26     1      107.018509      404.245929    ;  uncertainty theta = 0.001674, k = 0.104735
        14        15        16     1      109.019180      593.382827    ;  uncertainty theta = 0.001655, k = 0.038481
        14        15        29     1      109.865097      406.988902    ;  uncertainty theta = 0.001773, k = 0.047659
        14        15        30     1      109.865097      406.988902    ;  uncertainty theta = 0.001773, k = 0.047659
        15        14        27     1      106.775635      398.271076    ;  uncertainty theta = 0.001183, k = 0.026042
        15        14        28     1      106.775635      398.271076    ;  uncertainty theta = 0.001183, k = 0.026042
        15        16        17     1      110.885666      496.686722    ;  uncertainty theta = 0.001423, k = 0.095319
        16        15        29     1      106.960228      431.689001    ;  uncertainty theta = 0.001451, k = 0.023371
        16        15        30     1      106.960228      431.689001    ;  uncertainty theta = 0.001451, k = 0.023371
        16        17        20     1      120.880371      437.394055    ;  uncertainty theta = 0.002970, k = 0.200699
        16        17        33     1      116.489357      458.690472    ;  uncertainty theta = 0.005226, k = 0.228959
        17        20        19     1      120.722633      518.175976    ;  uncertainty theta = 0.002195, k = 0.141477
        17        20        31     1      118.073547      268.457585    ;  uncertainty theta = 0.004557, k = 0.050619
        17        33        32     1      117.886742      446.079992    ;  uncertainty theta = 0.004650, k = 0.148889
        17        33        34     1      121.055542      434.027434    ;  uncertainty theta = 0.002581, k = 0.247580
        18        19        20     1      120.807838      514.806993    ;  uncertainty theta = 0.001881, k = 0.085063
        18        19        42     1      119.944664      287.263017    ;  uncertainty theta = 0.001380, k = 0.039752
        18        32        33     1      119.359840      455.161627    ;  uncertainty theta = 0.004738, k = 0.151466
        18        32        37     1      123.340538      467.533750    ;  uncertainty theta = 0.002575, k = 0.078913
        19        18        32     1      119.297020      530.734680    ;  uncertainty theta = 0.001581, k = 0.054548
        19        18        43     1      121.059166      288.732837    ;  uncertainty theta = 0.001304, k = 0.052632
        19        20        31     1      120.640709      288.788285    ;  uncertainty theta = 0.002480, k = 0.056035
        20        17        33     1      123.092026      415.535439    ;  uncertainty theta = 0.003571, k = 0.180852
        20        19        42     1      119.891098      282.551420    ;  uncertainty theta = 0.001723, k = 0.073948
        25        13        26     1      104.818787      314.859343    ;  uncertainty theta = 0.004257, k = 0.083857
        27        14        28     1      105.151428      317.628938    ;  uncertainty theta = 0.002395, k = 0.027901
        29        15        30     1      107.557716      332.505071    ;  uncertainty theta = 0.001738, k = 0.040091
        32        18        43     1      119.503296      276.877490    ;  uncertainty theta = 0.002196, k = 0.043077
        32        33        34     1      119.544357      455.792106    ;  uncertainty theta = 0.003353, k = 0.075921
        32        37        36     1      120.307373      540.568191    ;  uncertainty theta = 0.001705, k = 0.049107
        32        37        41     1      119.335144      278.316857    ;  uncertainty theta = 0.002520, k = 0.045302
        33        32        37     1      118.325851      453.057369    ;  uncertainty theta = 0.003579, k = 0.122749
        33        34        35     1      120.765099      522.188016    ;  uncertainty theta = 0.000878, k = 0.092445
        33        34        38     1      118.487877      261.075988    ;  uncertainty theta = 0.001939, k = 0.118010
        34        35        36     1      120.327049      530.332311    ;  uncertainty theta = 0.001259, k = 0.030035
        34        35        39     1      119.709885      291.029485    ;  uncertainty theta = 0.000552, k = 0.039936
        35        34        38     1      120.799538      286.723609    ;  uncertainty theta = 0.001427, k = 0.049122
        35        36        37     1      119.492630      527.209378    ;  uncertainty theta = 0.001081, k = 0.017885
        35        36        40     1      120.342430      288.088664    ;  uncertainty theta = 0.001400, k = 0.008231
        36        35        39     1      120.521278      289.271128    ;  uncertainty theta = 0.001411, k = 0.008024
        36        37        41     1      120.925461      287.525826    ;  uncertainty theta = 0.001171, k = 0.023439
        37        36        40     1      119.773727      289.592799    ;  uncertainty theta = 0.001086, k = 0.026821

[ dihedrals ] ; propers for gromacs 4.5 or higher, use funct 9
;       ai        aj        ak        al funct           phase               k        pn
         1         2         4         5     9        0.000000       -0.165371         1    ;  uncertainty k = 0.847680
         1         2         4         5     9      180.000000        4.765200         2    ;  uncertainty k = 0.234813
         1         2         4         5     9        0.000000        0.094128         3    ;  uncertainty k = 0.324832
         1         2         4         5     9      180.000000        0.246541         4    ;  uncertainty k = 0.105000
         1         2         4        12     9        0.000000        0.906157         1    ;  uncertainty k = 1.405172
         1         2         4        12     9      180.000000        2.828558         2    ;  uncertainty k = 0.322684
         1         2         4        12     9        0.000000        0.246465         3    ;  uncertainty k = 0.419426
         1         2         4        12     9      180.000000        0.163908         4    ;  uncertainty k = 0.081949
         2         4         5         6     9        0.000000       -0.549413         1    ;  uncertainty k = 1.404688
         2         4         5         6     9      180.000000        7.708193         2    ;  uncertainty k = 0.894919
         2         4         5         6     9        0.000000        0.646656         3    ;  uncertainty k = 0.435257
         2         4         5         6     9      180.000000        0.483210         4    ;  uncertainty k = 0.376999
         2         4        12        11     9        0.000000        0.236334         1    ;  uncertainty k = 1.094955
         2         4        12        11     9      180.000000       12.708189         2    ;  uncertainty k = 0.291575
         2         4        12        11     9        0.000000        1.987259         3    ;  uncertainty k = 0.463399
         2         4        12        11     9      180.000000        0.887407         4    ;  uncertainty k = 0.274664
         2         4        12        13     9        0.000000        0.458293         1    ;  uncertainty k = 1.073881
         2         4        12        13     9      180.000000       11.464915         2    ;  uncertainty k = 0.629000
         2         4        12        13     9        0.000000        1.389151         3    ;  uncertainty k = 0.411891
         2         4        12        13     9      180.000000        0.679856         4    ;  uncertainty k = 0.248076
         3         2         4         5     9        0.000000       -0.165371         1    ;  uncertainty k = 0.847680
         3         2         4         5     9      180.000000        4.765200         2    ;  uncertainty k = 0.234813
         3         2         4         5     9        0.000000        0.094128         3    ;  uncertainty k = 0.324832
         3         2         4         5     9      180.000000        0.246541         4    ;  uncertainty k = 0.105000
         3         2         4        12     9        0.000000        0.906157         1    ;  uncertainty k = 1.405172
         3         2         4        12     9      180.000000        2.828558         2    ;  uncertainty k = 0.322684
         3         2         4        12     9        0.000000        0.246465         3    ;  uncertainty k = 0.419426
         3         2         4        12     9      180.000000        0.163908         4    ;  uncertainty k = 0.081949
         4         5         6         7     9        0.000000       -0.237486         1    ;  uncertainty k = 1.542392
         4         5         6         7     9      180.000000        7.436675         2    ;  uncertainty k = 1.076799
         4         5         6         7     9        0.000000        0.683907         3    ;  uncertainty k = 0.660692
         4         5         6         7     9      180.000000        0.512857         4    ;  uncertainty k = 0.200962
         4         5         6        11     9        0.000000       -1.132852         1    ;  uncertainty k = 0.975643
         4         5         6        11     9      180.000000       15.394089         2    ;  uncertainty k = 1.026678
         4         5         6        11     9        0.000000       -6.021478         3    ;  uncertainty k = 0.819758
         4         5         6        11     9      180.000000        0.403948         4    ;  uncertainty k = 0.810295
         4        12        11         6     9        0.000000       -0.318722         1    ;  uncertainty k = 0.372613
         4        12        11         6     9      180.000000       10.876084         2    ;  uncertainty k = 0.584500
         4        12        11         6     9        0.000000       -4.848688         3    ;  uncertainty k = 1.478185
         4        12        11         6     9      180.000000        1.506480         4    ;  uncertainty k = 0.483153
         4        12        11        10     9        0.000000       -0.379360         1    ;  uncertainty k = 0.757797
         4        12        11        10     9      180.000000        6.450301         2    ;  uncertainty k = 0.564442
         4        12        11        10     9        0.000000        0.560646         3    ;  uncertainty k = 0.390524
         4        12        11        10     9      180.000000        0.712635         4    ;  uncertainty k = 0.188127
         4        12        13        14     9        0.000000       -0.091647         1    ;  uncertainty k = 1.019077
         4        12        13        14     9      180.000000        2.408984         2    ;  uncertainty k = 0.636647
         4        12        13        14     9        0.000000        0.089896         3    ;  uncertainty k = 0.416431
         4        12        13        14     9      180.000000        0.127415         4    ;  uncertainty k = 0.167458
         4        12        13        25     9        0.000000        2.008598         1    ;  uncertainty k = 0.697206
         4        12        13        25     9      180.000000        3.248659         2    ;  uncertainty k = 0.407608
         4        12        13        25     9        0.000000       -0.024811         3    ;  uncertainty k = 0.172022
         4        12        13        25     9      180.000000        0.248921         4    ;  uncertainty k = 0.069155
         4        12        13        26     9        0.000000        2.008598         1    ;  uncertainty k = 0.697206
         4        12        13        26     9      180.000000        3.248659         2    ;  uncertainty k = 0.407608
         4        12        13        26     9        0.000000       -0.024811         3    ;  uncertainty k = 0.172022
         4        12        13        26     9      180.000000        0.248921         4    ;  uncertainty k = 0.069155
         5         4        12        11     9        0.000000       -0.372907         1    ;  uncertainty k = 0.770945
         5         4        12        11     9      180.000000       17.680159         2    ;  uncertainty k = 0.479651
         5         4        12        11     9        0.000000       -0.947304         3    ;  uncertainty k = 1.096930
         5         4        12        11     9      180.000000        0.954644         4    ;  uncertainty k = 0.397525
         5         4        12        13     9        0.000000        0.179024         1    ;  uncertainty k = 0.283735
         5         4        12        13     9      180.000000       15.922954         2    ;  uncertainty k = 0.400376
         5         4        12        13     9        0.000000        1.905212         3    ;  uncertainty k = 0.246950
         5         4        12        13     9      180.000000        0.972441         4    ;  uncertainty k = 0.221491
         5         6         7         8     9        0.000000        0.265755         1    ;  uncertainty k = 0.315547
         5         6         7         8     9      180.000000        8.978173         2    ;  uncertainty k = 0.808719
         5         6         7         8     9        0.000000        1.198297         3    ;  uncertainty k = 0.375870
         5         6         7         8     9      180.000000        1.282122         4    ;  uncertainty k = 0.398517
         5         6         7        21     9        0.000000       -0.082643         1    ;  uncertainty k = 0.569913
         5         6         7        21     9      180.000000        5.240519         2    ;  uncertainty k = 0.780468
         5         6         7        21     9        0.000000        0.857757         3    ;  uncertainty k = 0.358344
         5         6         7        21     9      180.000000        0.678386         4    ;  uncertainty k = 0.237861
         5         6        11        10     9        0.000000        0.372573         1    ;  uncertainty k = 0.595604
         5         6        11        10     9      180.000000        8.134183         2    ;  uncertainty k = 0.374925
         5         6        11        10     9        0.000000        0.480007         3    ;  uncertainty k = 0.382423
         5         6        11        10     9      180.000000        1.239481         4    ;  uncertainty k = 0.177157
         5         6        11        12     9        0.000000       -0.010768         1    ;  uncertainty k = 0.614839
         5         6        11        12     9      180.000000       10.667111         2    ;  uncertainty k = 0.803317
         5         6        11        12     9        0.000000       -1.326261         3    ;  uncertainty k = 0.755849
         5         6        11        12     9      180.000000        1.284316         4    ;  uncertainty k = 0.599911
         6         5         4        12     9        0.000000       -0.893258         1    ;  uncertainty k = 0.956442
         6         5         4        12     9      180.000000       12.628729         2    ;  uncertainty k = 0.503697
         6         5         4        12     9        0.000000       -5.219320         3    ;  uncertainty k = 1.692440
         6         5         4        12     9      180.000000        1.331275         4    ;  uncertainty k = 0.210522
         6         7         8         9     9        0.000000       -0.049838         1    ;  uncertainty k = 0.211231
         6         7         8         9     9      180.000000       16.651496         2    ;  uncertainty k = 0.296998
         6         7         8         9     9        0.000000       -0.587155         3    ;  uncertainty k = 0.543626
         6         7         8         9     9      180.000000        0.583499         4    ;  uncertainty k = 0.370742
         6         7         8        22     9        0.000000        0.145054         1    ;  uncertainty k = 0.186625
         6         7         8        22     9      180.000000       10.612379         2    ;  uncertainty k = 0.321013
         6         7         8        22     9        0.000000        1.268765         3    ;  uncertainty k = 0.411693
         6         7         8        22     9      180.000000        1.544031         4    ;  uncertainty k = 0.131329
         6        11        10         9     9        0.000000        0.076832         1    ;  uncertainty k = 0.443810
         6        11        10         9     9      180.000000       13.887316         2    ;  uncertainty k = 0.274907
         6        11        10         9     9        0.000000       -1.310320         3    ;  uncertainty k = 0.453308
         6        11        10         9     9      180.000000        0.600920         4    ;  uncertainty k = 0.299396
         6        11        10        24     9        0.000000        0.061840         1    ;  uncertainty k = 0.186231
         6        11        10        24     9      180.000000        7.046010         2    ;  uncertainty k = 0.320217
         6        11        10        24     9        0.000000        1.264121         3    ;  uncertainty k = 0.342963
         6        11        10        24     9      180.000000        1.311477         4    ;  uncertainty k = 0.177113
         6        11        12        13     9        0.000000        0.926354         1    ;  uncertainty k = 1.328786
         6        11        12        13     9      180.000000       10.339066         2    ;  uncertainty k = 0.370111
         6        11        12        13     9        0.000000        1.444618         3    ;  uncertainty k = 0.284528
         6        11        12        13     9      180.000000        0.220942         4    ;  uncertainty k = 0.382042
         7         6        11        10     9        0.000000       -0.364181         1    ;  uncertainty k = 0.434362
         7         6        11        10     9      180.000000        8.587972         2    ;  uncertainty k = 0.569012
         7         6        11        10     9        0.000000        0.184152         3    ;  uncertainty k = 0.110014
         7         6        11        10     9      180.000000        1.105709         4    ;  uncertainty k = 0.237389
         7         6        11        12     9        0.000000       -0.231617         1    ;  uncertainty k = 0.468902
         7         6        11        12     9      180.000000        7.685647         2    ;  uncertainty k = 0.681266
         7         6        11        12     9        0.000000        0.476412         3    ;  uncertainty k = 0.587302
         7         6        11        12     9      180.000000        1.268706         4    ;  uncertainty k = 0.316682
         7         8         9        10     9        0.000000       -0.076827         1    ;  uncertainty k = 0.198922
         7         8         9        10     9      180.000000       13.196934         2    ;  uncertainty k = 0.363040
         7         8         9        10     9        0.000000       -0.947135         3    ;  uncertainty k = 0.626876
         7         8         9        10     9      180.000000        0.617231         4    ;  uncertainty k = 0.238603
         7         8         9        23     9        0.000000        0.094646         1    ;  uncertainty k = 0.140505
         7         8         9        23     9      180.000000        7.059637         2    ;  uncertainty k = 0.387525
         7         8         9        23     9        0.000000        1.412709         3    ;  uncertainty k = 0.270576
         7         8         9        23     9      180.000000        1.658852         4    ;  uncertainty k = 0.140293
         8         7         6        11     9        0.000000       -0.196211         1    ;  uncertainty k = 0.393316
         8         7         6        11     9      180.000000       12.419478         2    ;  uncertainty k = 0.480393
         8         7         6        11     9        0.000000       -1.090915         3    ;  uncertainty k = 0.282184
         8         7         6        11     9      180.000000        0.871073         4    ;  uncertainty k = 0.326183
         8         9        10        11     9        0.000000        0.090353         1    ;  uncertainty k = 0.402523
         8         9        10        11     9      180.000000       16.524609         2    ;  uncertainty k = 0.300959
         8         9        10        11     9        0.000000       -0.509817         3    ;  uncertainty k = 0.390322
         8         9        10        11     9      180.000000        0.619002         4    ;  uncertainty k = 0.367620
         8         9        10        24     9        0.000000        0.133298         1    ;  uncertainty k = 0.105469
         8         9        10        24     9      180.000000        8.772918         2    ;  uncertainty k = 0.388370
         8         9        10        24     9        0.000000        1.463444         3    ;  uncertainty k = 0.275721
         8         9        10        24     9      180.000000        1.907382         4    ;  uncertainty k = 0.269423
         9         8         7        21     9        0.000000        0.138453         1    ;  uncertainty k = 0.129790
         9         8         7        21     9      180.000000        8.590375         2    ;  uncertainty k = 0.500753
         9         8         7        21     9        0.000000        1.601476         3    ;  uncertainty k = 0.256973
         9         8         7        21     9      180.000000        1.896616         4    ;  uncertainty k = 0.281987
         9        10        11        12     9        0.000000        0.295500         1    ;  uncertainty k = 0.382990
         9        10        11        12     9      180.000000        9.053714         2    ;  uncertainty k = 0.429597
         9        10        11        12     9        0.000000        0.616526         3    ;  uncertainty k = 0.338813
         9        10        11        12     9      180.000000        1.310670         4    ;  uncertainty k = 0.099121
        10         9         8        22     9        0.000000        0.034744         1    ;  uncertainty k = 0.189727
        10         9         8        22     9      180.000000        6.955376         2    ;  uncertainty k = 0.428124
        10         9         8        22     9        0.000000        1.380839         3    ;  uncertainty k = 0.229958
        10         9         8        22     9      180.000000        1.630332         4    ;  uncertainty k = 0.122682
        10        11        12        13     9        0.000000       -0.024900         1    ;  uncertainty k = 0.722515
        10        11        12        13     9      180.000000        6.932598         2    ;  uncertainty k = 0.807033
        10        11        12        13     9        0.000000        1.472924         3    ;  uncertainty k = 0.411607
        10        11        12        13     9      180.000000        0.248301         4    ;  uncertainty k = 0.275274
        11         6         7        21     9        0.000000        0.181578         1    ;  uncertainty k = 0.488979
        11         6         7        21     9      180.000000        6.337360         2    ;  uncertainty k = 0.704851
        11         6         7        21     9        0.000000        1.421031         3    ;  uncertainty k = 0.276360
        11         6         7        21     9      180.000000        1.315872         4    ;  uncertainty k = 0.262446
        11        10         9        23     9        0.000000        0.139000         1    ;  uncertainty k = 0.328984
        11        10         9        23     9      180.000000       10.372533         2    ;  uncertainty k = 0.247720
        11        10         9        23     9        0.000000        1.513523         3    ;  uncertainty k = 0.274320
        11        10         9        23     9      180.000000        1.731877         4    ;  uncertainty k = 0.220666
        11        12        13        14     9        0.000000       -0.782692         1    ;  uncertainty k = 1.024782
        11        12        13        14     9      180.000000        1.622551         2    ;  uncertainty k = 0.536278
        11        12        13        14     9        0.000000        0.591750         3    ;  uncertainty k = 0.205165
        11        12        13        14     9      180.000000        0.178912         4    ;  uncertainty k = 0.080045
        11        12        13        25     9        0.000000       -0.656517         1    ;  uncertainty k = 0.505625
        11        12        13        25     9      180.000000        2.529140         2    ;  uncertainty k = 0.091154
        11        12        13        25     9        0.000000        0.767994         3    ;  uncertainty k = 0.100405
        11        12        13        25     9      180.000000        0.283172         4    ;  uncertainty k = 0.053863
        11        12        13        26     9        0.000000       -0.656517         1    ;  uncertainty k = 0.505625
        11        12        13        26     9      180.000000        2.529140         2    ;  uncertainty k = 0.091154
        11        12        13        26     9        0.000000        0.767994         3    ;  uncertainty k = 0.100405
        11        12        13        26     9      180.000000        0.283172         4    ;  uncertainty k = 0.053863
        12        11        10        24     9        0.000000        0.464094         1    ;  uncertainty k = 0.596820
        12        11        10        24     9      180.000000        6.115530         2    ;  uncertainty k = 0.600037
        12        11        10        24     9        0.000000        1.247481         3    ;  uncertainty k = 0.284777
        12        11        10        24     9      180.000000        1.037843         4    ;  uncertainty k = 0.228149
        12        13        14        15     9        0.000000       -2.675054         1    ;  uncertainty k = 0.860952
        12        13        14        15     9      180.000000       -0.546758         2    ;  uncertainty k = 0.485209
        12        13        14        15     9        0.000000        1.284912         3    ;  uncertainty k = 0.195124
        12        13        14        15     9      180.000000       -0.223842         4    ;  uncertainty k = 0.106060
        12        13        14        27     9        0.000000        0.748807         1    ;  uncertainty k = 0.350117
        12        13        14        27     9      180.000000       -0.702541         2    ;  uncertainty k = 0.419476
        12        13        14        27     9        0.000000        1.176649         3    ;  uncertainty k = 0.150555
        12        13        14        27     9      180.000000        0.003172         4    ;  uncertainty k = 0.052001
        12        13        14        28     9        0.000000        0.748807         1    ;  uncertainty k = 0.350117
        12        13        14        28     9      180.000000       -0.702541         2    ;  uncertainty k = 0.419476
        12        13        14        28     9        0.000000        1.176649         3    ;  uncertainty k = 0.150555
        12        13        14        28     9      180.000000        0.003172         4    ;  uncertainty k = 0.052001
        13        14        15        16     9        0.000000       -3.885216         1    ;  uncertainty k = 0.858790
        13        14        15        16     9      180.000000       -2.533142         2    ;  uncertainty k = 0.577325
        13        14        15        16     9        0.000000        2.162336         3    ;  uncertainty k = 0.320220
        13        14        15        16     9      180.000000       -0.484478         4    ;  uncertainty k = 0.128367
        13        14        15        29     9        0.000000       -1.844576         1    ;  uncertainty k = 0.477926
        13        14        15        29     9      180.000000        0.003613         2    ;  uncertainty k = 0.200065
        13        14        15        29     9        0.000000        0.948355         3    ;  uncertainty k = 0.042058
        13        14        15        29     9      180.000000       -0.337956         4    ;  uncertainty k = 0.110810
        13        14        15        30     9        0.000000       -1.844576         1    ;  uncertainty k = 0.477926
        13        14        15        30     9      180.000000        0.003613         2    ;  uncertainty k = 0.200065
        13        14        15        30     9        0.000000        0.948355         3    ;  uncertainty k = 0.042058
        13        14        15        30     9      180.000000       -0.337956         4    ;  uncertainty k = 0.110810
        14        15        16        17     9        0.000000       -0.828140         1    ;  uncertainty k = 0.928296
        14        15        16        17     9      180.000000       -0.377729         2    ;  uncertainty k = 0.304749
        14        15        16        17     9        0.000000        0.711101         3    ;  uncertainty k = 0.056072
        14        15        16        17     9      180.000000        0.508289         4    ;  uncertainty k = 0.049734
        15        14        13        25     9        0.000000       -1.700127         1    ;  uncertainty k = 0.357123
        15        14        13        25     9      180.000000       -0.560980         2    ;  uncertainty k = 0.191939
        15        14        13        25     9        0.000000        0.879534         3    ;  uncertainty k = 0.108869
        15        14        13        25     9      180.000000       -0.350679         4    ;  uncertainty k = 0.058199
        15        14        13        26     9        0.000000       -1.700127         1    ;  uncertainty k = 0.357123
        15        14        13        26     9      180.000000       -0.560980         2    ;  uncertainty k = 0.191939
        15        14        13        26     9        0.000000        0.879534         3    ;  uncertainty k = 0.108869
        15        14        13        26     9      180.000000       -0.350679         4    ;  uncertainty k = 0.058199
        15        16        17        20     9        0.000000        2.771473         1    ;  uncertainty k = 0.664062
        15        16        17        20     9      180.000000        7.058895         2    ;  uncertainty k = 0.050152
        15        16        17        20     9        0.000000        0.255365         3    ;  uncertainty k = 0.197562
        15        16        17        20     9      180.000000        0.108218         4    ;  uncertainty k = 0.093441
        15        16        17        33     9        0.000000        0.355527         1    ;  uncertainty k = 0.512070
        15        16        17        33     9      180.000000        6.877661         2    ;  uncertainty k = 0.167219
        15        16        17        33     9        0.000000        0.288506         3    ;  uncertainty k = 0.286217
        15        16        17        33     9      180.000000        0.282278         4    ;  uncertainty k = 0.092117
        16        15        14        27     9        0.000000        0.326423         1    ;  uncertainty k = 0.509567
        16        15        14        27     9      180.000000       -2.238227         2    ;  uncertainty k = 0.331665
        16        15        14        27     9        0.000000        1.402376         3    ;  uncertainty k = 0.126932
        16        15        14        27     9      180.000000        0.032887         4    ;  uncertainty k = 0.060552
        16        15        14        28     9        0.000000        0.326423         1    ;  uncertainty k = 0.509567
        16        15        14        28     9      180.000000       -2.238227         2    ;  uncertainty k = 0.331665
        16        15        14        28     9        0.000000        1.402376         3    ;  uncertainty k = 0.126932
        16        15        14        28     9      180.000000        0.032887         4    ;  uncertainty k = 0.060552
        16        17        20        19     9        0.000000        0.075865         1    ;  uncertainty k = 0.261988
        16        17        20        19     9      180.000000       13.527380         2    ;  uncertainty k = 0.350832
        16        17        20        19     9        0.000000        1.302846         3    ;  uncertainty k = 0.248461
        16        17        20        19     9      180.000000        1.573148         4    ;  uncertainty k = 0.228848
        16        17        20        31     9        0.000000       -0.183857         1    ;  uncertainty k = 0.238167
        16        17        20        31     9      180.000000       10.497921         2    ;  uncertainty k = 0.651179
        16        17        20        31     9        0.000000        0.910160         3    ;  uncertainty k = 0.112595
        16        17        20        31     9      180.000000        1.240318         4    ;  uncertainty k = 0.494985
        16        17        33        32     9        0.000000        0.137851         1    ;  uncertainty k = 0.298693
        16        17        33        32     9      180.000000        9.678081         2    ;  uncertainty k = 0.190325
        16        17        33        32     9        0.000000        1.155273         3    ;  uncertainty k = 0.179630
        16        17        33        32     9      180.000000        1.490570         4    ;  uncertainty k = 0.231045
        16        17        33        34     9        0.000000        0.181835         1    ;  uncertainty k = 0.443367
        16        17        33        34     9      180.000000        9.773730         2    ;  uncertainty k = 0.205658
        16        17        33        34     9        0.000000        1.079929         3    ;  uncertainty k = 0.299362
        16        17        33        34     9      180.000000        1.468690         4    ;  uncertainty k = 0.362094
        17        16        15        29     9        0.000000        0.906563         1    ;  uncertainty k = 0.666674
        17        16        15        29     9      180.000000       -1.280777         2    ;  uncertainty k = 0.127342
        17        16        15        29     9        0.000000        0.652214         3    ;  uncertainty k = 0.091067
        17        16        15        29     9      180.000000        0.249136         4    ;  uncertainty k = 0.049477
        17        16        15        30     9        0.000000        0.906563         1    ;  uncertainty k = 0.666674
        17        16        15        30     9      180.000000       -1.280777         2    ;  uncertainty k = 0.127342
        17        16        15        30     9        0.000000        0.652214         3    ;  uncertainty k = 0.091067
        17        16        15        30     9      180.000000        0.249136         4    ;  uncertainty k = 0.049477
        17        20        19        18     9        0.000000       -0.223631         1    ;  uncertainty k = 0.257928
        17        20        19        18     9      180.000000       11.307064         2    ;  uncertainty k = 0.442432
        17        20        19        18     9        0.000000       -0.668154         3    ;  uncertainty k = 0.466698
        17        20        19        18     9      180.000000        0.877377         4    ;  uncertainty k = 0.187087
        17        20        19        42     9        0.000000       -0.081235         1    ;  uncertainty k = 0.183357
        17        20        19        42     9      180.000000        6.743737         2    ;  uncertainty k = 0.496825
        17        20        19        42     9        0.000000        1.288673         3    ;  uncertainty k = 0.275168
        17        20        19        42     9      180.000000        1.502547         4    ;  uncertainty k = 0.163670
        17        33        32        18     9        0.000000       -0.354612         1    ;  uncertainty k = 0.441142
        17        33        32        18     9      180.000000        6.627677         2    ;  uncertainty k = 0.497580
        17        33        32        18     9        0.000000        0.570882         3    ;  uncertainty k = 0.281133
        17        33        32        18     9      180.000000        1.486656         4    ;  uncertainty k = 0.229164
        17        33        32        37     9        0.000000       -0.333444         1    ;  uncertainty k = 0.417730
        17        33        32        37     9      180.000000        6.674444         2    ;  uncertainty k = 0.525750
        17        33        32        37     9        0.000000        0.560817         3    ;  uncertainty k = 0.275597
        17        33        32        37     9      180.000000        1.487407         4    ;  uncertainty k = 0.230347
        17        33        34        35     9        0.000000       -0.090356         1    ;  uncertainty k = 0.314127
        17        33        34        35     9      180.000000        9.233646         2    ;  uncertainty k = 0.235239
        17        33        34        35     9        0.000000        0.518619         3    ;  uncertainty k = 0.351539
        17        33        34        35     9      180.000000        1.357479         4    ;  uncertainty k = 0.109332
        17        33        34        38     9        0.000000       -0.151722         1    ;  uncertainty k = 0.278712
        17        33        34        38     9      180.000000        7.373249         2    ;  uncertainty k = 0.245707
        17        33        34        38     9        0.000000        1.290525         3    ;  uncertainty k = 0.176006
        17        33        34        38     9      180.000000        1.073830         4    ;  uncertainty k = 0.224703
        18        19        20        31     9        0.000000        0.180055         1    ;  uncertainty k = 0.478737
        18        19        20        31     9      180.000000        6.645621         2    ;  uncertainty k = 0.498611
        18        19        20        31     9        0.000000        1.364349         3    ;  uncertainty k = 0.345747
        18        19        20        31     9      180.000000        1.577532         4    ;  uncertainty k = 0.120520
        18        32        33        34     9        0.000000       -0.140075         1    ;  uncertainty k = 0.210171
        18        32        33        34     9      180.000000        6.924781         2    ;  uncertainty k = 0.423549
        18        32        33        34     9        0.000000        0.489571         3    ;  uncertainty k = 0.287980
        18        32        33        34     9      180.000000        1.460854         4    ;  uncertainty k = 0.218107
        18        32        37        36     9        0.000000       -0.176860         1    ;  uncertainty k = 0.439986
        18        32        37        36     9      180.000000        9.129413         2    ;  uncertainty k = 0.290008
        18        32        37        36     9        0.000000        0.364802         3    ;  uncertainty k = 0.321106
        18        32        37        36     9      180.000000        1.403096         4    ;  uncertainty k = 0.121695
        18        32        37        41     9        0.000000       -0.143798         1    ;  uncertainty k = 0.191240
        18        32        37        41     9      180.000000        6.459295         2    ;  uncertainty k = 0.452159
        18        32        37        41     9        0.000000        1.216640         3    ;  uncertainty k = 0.236253
        18        32        37        41     9      180.000000        1.159689         4    ;  uncertainty k = 0.126546
        19        18        32        33     9        0.000000       -0.094439         1    ;  uncertainty k = 0.389134
        19        18        32        33     9      180.000000       10.589316         2    ;  uncertainty k = 0.414391
        19        18        32        33     9        0.000000       -0.430098         3    ;  uncertainty k = 0.276932
        19        18        32        33     9      180.000000        1.070594         4    ;  uncertainty k = 0.171417
        19        18        32        37     9        0.000000       -0.276027         1    ;  uncertainty k = 0.565350
        19        18        32        37     9      180.000000        9.588580         2    ;  uncertainty k = 0.246596
        19        18        32        37     9        0.000000        0.308300         3    ;  uncertainty k = 0.228404
        19        18        32        37     9      180.000000        1.362272         4    ;  uncertainty k = 0.116932
        19        20        17        33     9        0.000000        0.083265         1    ;  uncertainty k = 0.257141
        19        20        17        33     9      180.000000       10.592162         2    ;  uncertainty k = 0.402398
        19        20        17        33     9        0.000000        0.424006         3    ;  uncertainty k = 0.354509
        19        20        17        33     9      180.000000        1.276309         4    ;  uncertainty k = 0.185277
        20        17        33        32     9        0.000000        0.341386         1    ;  uncertainty k = 0.588410
        20        17        33        32     9      180.000000        6.653229         2    ;  uncertainty k = 1.041476
        20        17        33        32     9        0.000000        0.291478         3    ;  uncertainty k = 0.164533
        20        17        33        32     9      180.000000        1.295455         4    ;  uncertainty k = 0.299561
        20        17        33        34     9        0.000000        0.182473         1    ;  uncertainty k = 0.489549
        20        17        33        34     9      180.000000        5.891527         2    ;  uncertainty k = 0.554824
        20        17        33        34     9        0.000000        0.582084         3    ;  uncertainty k = 0.517845
        20        17        33        34     9      180.000000        1.413616         4    ;  uncertainty k = 0.214656
        20        19        18        32     9        0.000000       -0.003248         1    ;  uncertainty k = 0.352723
        20        19        18        32     9      180.000000       16.271674         2    ;  uncertainty k = 0.152542
        20        19        18        32     9        0.000000       -0.538125         3    ;  uncertainty k = 0.324107
        20        19        18        32     9      180.000000        0.816524         4    ;  uncertainty k = 0.225103
        20        19        18        43     9        0.000000        0.270961         1    ;  uncertainty k = 0.164485
        20        19        18        43     9      180.000000        9.525203         2    ;  uncertainty k = 0.455421
        20        19        18        43     9        0.000000        1.463322         3    ;  uncertainty k = 0.357621
        20        19        18        43     9      180.000000        1.921880         4    ;  uncertainty k = 0.253112
        21         7         8        22     9        0.000000       -0.002647         1    ;  uncertainty k = 0.110550
        21         7         8        22     9      180.000000        7.798954         2    ;  uncertainty k = 0.323380
        21         7         8        22     9        0.000000       -0.310463         3    ;  uncertainty k = 0.249616
        21         7         8        22     9      180.000000        0.109601         4    ;  uncertainty k = 0.152207
        22         8         9        23     9        0.000000       -0.018944         1    ;  uncertainty k = 0.175113
        22         8         9        23     9      180.000000        7.051201         2    ;  uncertainty k = 0.475868
        22         8         9        23     9        0.000000       -0.278708         3    ;  uncertainty k = 0.278186
        22         8         9        23     9      180.000000        0.094020         4    ;  uncertainty k = 0.121269
        23         9        10        24     9        0.000000        0.021587         1    ;  uncertainty k = 0.223284
        23         9        10        24     9      180.000000        8.015559         2    ;  uncertainty k = 0.300790
        23         9        10        24     9        0.000000       -0.309557         3    ;  uncertainty k = 0.247059
        23         9        10        24     9      180.000000        0.150412         4    ;  uncertainty k = 0.166022
        25        13        14        27     9        0.000000        0.851329         1    ;  uncertainty k = 0.173026
        25        13        14        27     9      180.000000       -0.616014         2    ;  uncertainty k = 0.190333
        25        13        14        27     9        0.000000        0.188575         3    ;  uncertainty k = 0.045675
        25        13        14        27     9      180.000000        0.012528         4    ;  uncertainty k = 0.037490
        25        13        14        28     9        0.000000        0.851329         1    ;  uncertainty k = 0.173026
        25        13        14        28     9      180.000000       -0.616014         2    ;  uncertainty k = 0.190333
        25        13        14        28     9        0.000000        0.188575         3    ;  uncertainty k = 0.045675
        25        13        14        28     9      180.000000        0.012528         4    ;  uncertainty k = 0.037490
        26        13        14        27     9        0.000000        0.851329         1    ;  uncertainty k = 0.173026
        26        13        14        27     9      180.000000       -0.616014         2    ;  uncertainty k = 0.190333
        26        13        14        27     9        0.000000        0.188575         3    ;  uncertainty k = 0.045675
        26        13        14        27     9      180.000000        0.012528         4    ;  uncertainty k = 0.037490
        26        13        14        28     9        0.000000        0.851329         1    ;  uncertainty k = 0.173026
        26        13        14        28     9      180.000000       -0.616014         2    ;  uncertainty k = 0.190333
        26        13        14        28     9        0.000000        0.188575         3    ;  uncertainty k = 0.045675
        26        13        14        28     9      180.000000        0.012528         4    ;  uncertainty k = 0.037490
        27        14        15        29     9        0.000000        0.449397         1    ;  uncertainty k = 0.142721
        27        14        15        29     9      180.000000       -0.416137         2    ;  uncertainty k = 0.150196
        27        14        15        29     9        0.000000        0.103958         3    ;  uncertainty k = 0.090841
        27        14        15        29     9      180.000000       -0.039751         4    ;  uncertainty k = 0.071452
        27        14        15        30     9        0.000000        0.449397         1    ;  uncertainty k = 0.142721
        27        14        15        30     9      180.000000       -0.416137         2    ;  uncertainty k = 0.150196
        27        14        15        30     9        0.000000        0.103958         3    ;  uncertainty k = 0.090841
        27        14        15        30     9      180.000000       -0.039751         4    ;  uncertainty k = 0.071452
        28        14        15        29     9        0.000000        0.449397         1    ;  uncertainty k = 0.142721
        28        14        15        29     9      180.000000       -0.416137         2    ;  uncertainty k = 0.150196
        28        14        15        29     9        0.000000        0.103958         3    ;  uncertainty k = 0.090841
        28        14        15        29     9      180.000000       -0.039751         4    ;  uncertainty k = 0.071452
        28        14        15        30     9        0.000000        0.449397         1    ;  uncertainty k = 0.142721
        28        14        15        30     9      180.000000       -0.416137         2    ;  uncertainty k = 0.150196
        28        14        15        30     9        0.000000        0.103958         3    ;  uncertainty k = 0.090841
        28        14        15        30     9      180.000000       -0.039751         4    ;  uncertainty k = 0.071452
        31        20        17        33     9        0.000000        0.247996         1    ;  uncertainty k = 0.252535
        31        20        17        33     9      180.000000        7.598394         2    ;  uncertainty k = 0.197360
        31        20        17        33     9        0.000000        1.587497         3    ;  uncertainty k = 0.472589
        31        20        17        33     9      180.000000        1.697154         4    ;  uncertainty k = 0.034873
        31        20        19        42     9        0.000000       -0.202491         1    ;  uncertainty k = 0.263152
        31        20        19        42     9      180.000000        6.607603         2    ;  uncertainty k = 0.535021
        31        20        19        42     9        0.000000       -0.212382         3    ;  uncertainty k = 0.280609
        31        20        19        42     9      180.000000        0.205403         4    ;  uncertainty k = 0.183563
        32        18        19        42     9        0.000000        0.219115         1    ;  uncertainty k = 0.262413
        32        18        19        42     9      180.000000        9.995548         2    ;  uncertainty k = 0.249834
        32        18        19        42     9        0.000000        1.549278         3    ;  uncertainty k = 0.333763
        32        18        19        42     9      180.000000        1.762117         4    ;  uncertainty k = 0.255251
        32        33        34        35     9        0.000000        0.017421         1    ;  uncertainty k = 0.354577
        32        33        34        35     9      180.000000       10.401126         2    ;  uncertainty k = 0.239738
        32        33        34        35     9        0.000000       -0.337474         3    ;  uncertainty k = 0.324755
        32        33        34        35     9      180.000000        1.001847         4    ;  uncertainty k = 0.234457
        32        33        34        38     9        0.000000       -0.119246         1    ;  uncertainty k = 0.467483
        32        33        34        38     9      180.000000        6.774582         2    ;  uncertainty k = 0.660619
        32        33        34        38     9        0.000000        1.318225         3    ;  uncertainty k = 0.239736
        32        33        34        38     9      180.000000        1.274600         4    ;  uncertainty k = 0.138275
        32        37        36        35     9        0.000000       -0.041155         1    ;  uncertainty k = 0.464721
        32        37        36        35     9      180.000000       16.646178         2    ;  uncertainty k = 0.236707
        32        37        36        35     9        0.000000       -0.451885         3    ;  uncertainty k = 0.331121
        32        37        36        35     9      180.000000        0.706935         4    ;  uncertainty k = 0.236869
        32        37        36        40     9        0.000000        0.212062         1    ;  uncertainty k = 0.206454
        32        37        36        40     9      180.000000       10.208086         2    ;  uncertainty k = 0.270698
        32        37        36        40     9        0.000000        1.619069         3    ;  uncertainty k = 0.303974
        32        37        36        40     9      180.000000        1.801727         4    ;  uncertainty k = 0.231078
        33        32        18        43     9        0.000000       -0.047226         1    ;  uncertainty k = 0.304892
        33        32        18        43     9      180.000000        6.147641         2    ;  uncertainty k = 0.655636
        33        32        18        43     9        0.000000        1.285026         3    ;  uncertainty k = 0.284886
        33        32        18        43     9      180.000000        1.285042         4    ;  uncertainty k = 0.099160
        33        32        37        36     9        0.000000        0.030027         1    ;  uncertainty k = 0.266894
        33        32        37        36     9      180.000000       10.240497         2    ;  uncertainty k = 0.364716
        33        32        37        36     9        0.000000       -0.375419         3    ;  uncertainty k = 0.254391
        33        32        37        36     9      180.000000        1.067516         4    ;  uncertainty k = 0.160127
        33        32        37        41     9        0.000000       -0.118336         1    ;  uncertainty k = 0.388301
        33        32        37        41     9      180.000000        6.096992         2    ;  uncertainty k = 0.671235
        33        32        37        41     9        0.000000        1.281084         3    ;  uncertainty k = 0.264897
        33        32        37        41     9      180.000000        1.285825         4    ;  uncertainty k = 0.112008
        33        34        35        36     9        0.000000       -0.046811         1    ;  uncertainty k = 0.562745
        33        34        35        36     9      180.000000       16.009863         2    ;  uncertainty k = 0.260043
        33        34        35        36     9        0.000000       -0.590240         3    ;  uncertainty k = 0.329068
        33        34        35        36     9      180.000000        0.800415         4    ;  uncertainty k = 0.311631
        33        34        35        39     9        0.000000        0.182302         1    ;  uncertainty k = 0.221575
        33        34        35        39     9      180.000000        9.897200         2    ;  uncertainty k = 0.196454
        33        34        35        39     9        0.000000        1.581225         3    ;  uncertainty k = 0.374994
        33        34        35        39     9      180.000000        1.839612         4    ;  uncertainty k = 0.190327
        34        33        32        37     9        0.000000       -0.137549         1    ;  uncertainty k = 0.185615
        34        33        32        37     9      180.000000        6.976041         2    ;  uncertainty k = 0.423269
        34        33        32        37     9        0.000000        0.501176         3    ;  uncertainty k = 0.289879
        34        33        32        37     9      180.000000        1.464276         4    ;  uncertainty k = 0.222078
        34        35        36        37     9        0.000000       -0.135675         1    ;  uncertainty k = 0.161363
        34        35        36        37     9      180.000000       11.686204         2    ;  uncertainty k = 0.423927
        34        35        36        37     9        0.000000       -0.816607         3    ;  uncertainty k = 0.653290
        34        35        36        37     9      180.000000        0.673547         4    ;  uncertainty k = 0.221863
        34        35        36        40     9        0.000000        0.060592         1    ;  uncertainty k = 0.308481
        34        35        36        40     9      180.000000        6.622009         2    ;  uncertainty k = 0.491297
        34        35        36        40     9        0.000000        1.374177         3    ;  uncertainty k = 0.252327
        34        35        36        40     9      180.000000        1.537426         4    ;  uncertainty k = 0.113577
        35        36        37        41     9        0.000000        0.116325         1    ;  uncertainty k = 0.107800
        35        36        37        41     9      180.000000        9.705392         2    ;  uncertainty k = 0.412681
        35        36        37        41     9        0.000000        1.421035         3    ;  uncertainty k = 0.333096
        35        36        37        41     9      180.000000        1.914352         4    ;  uncertainty k = 0.277013
        36        35        34        38     9        0.000000        0.157505         1    ;  uncertainty k = 0.067138
        36        35        34        38     9      180.000000        9.460097         2    ;  uncertainty k = 0.284065
        36        35        34        38     9        0.000000        1.418796         3    ;  uncertainty k = 0.326926
        36        35        34        38     9      180.000000        1.936608         4    ;  uncertainty k = 0.277272
        37        32        18        43     9        0.000000       -0.147493         1    ;  uncertainty k = 0.133406
        37        32        18        43     9      180.000000        6.640372         2    ;  uncertainty k = 0.536223
        37        32        18        43     9        0.000000        1.200128         3    ;  uncertainty k = 0.261787
        37        32        18        43     9      180.000000        1.130046         4    ;  uncertainty k = 0.124856
        37        36        35        39     9        0.000000        0.013599         1    ;  uncertainty k = 0.388907
        37        36        35        39     9      180.000000        6.642468         2    ;  uncertainty k = 0.612274
        37        36        35        39     9        0.000000        1.342414         3    ;  uncertainty k = 0.269419
        37        36        35        39     9      180.000000        1.503843         4    ;  uncertainty k = 0.131189
        38        34        35        39     9        0.000000       -0.053072         1    ;  uncertainty k = 0.319564
        38        34        35        39     9      180.000000        8.718890         2    ;  uncertainty k = 0.426647
        38        34        35        39     9        0.000000       -0.292985         3    ;  uncertainty k = 0.284574
        38        34        35        39     9      180.000000        0.193140         4    ;  uncertainty k = 0.203840
        39        35        36        40     9        0.000000       -0.085302         1    ;  uncertainty k = 0.203880
        39        35        36        40     9      180.000000        6.764739         2    ;  uncertainty k = 0.514631
        39        35        36        40     9        0.000000       -0.229634         3    ;  uncertainty k = 0.303232
        39        35        36        40     9      180.000000        0.117028         4    ;  uncertainty k = 0.134173
        40        36        37        41     9        0.000000        0.042029         1    ;  uncertainty k = 0.219138
        40        36        37        41     9      180.000000        8.809243         2    ;  uncertainty k = 0.369501
        40        36        37        41     9        0.000000       -0.271928         3    ;  uncertainty k = 0.243968
        40        36        37        41     9      180.000000        0.194961         4    ;  uncertainty k = 0.209800
        42        19        18        43     9        0.000000        0.109781         1    ;  uncertainty k = 0.202623
        42        19        18        43     9      180.000000        8.516002         2    ;  uncertainty k = 0.380812
        42        19        18        43     9        0.000000       -0.263391         3    ;  uncertainty k = 0.284889
        42        19        18        43     9      180.000000        0.180741         4    ;  uncertainty k = 0.204186

[ dihedrals ] ; impropers
;       ai        aj        ak        al funct           phase               k        pn
         2         1         3         4     4      180.000000       66.439216         2    ;  uncertainty k = 0.085074
         2         3         4         1     4      180.000000       66.439216         2    ;  uncertainty k = 0.085074
         2         4         1         3     4      180.000000       66.439216         2    ;  uncertainty k = 0.085074
         4         2         5        12     4      180.000000        5.959295         2    ;  uncertainty k = 0.544494
         4         5        12         2     4      180.000000        5.959295         2    ;  uncertainty k = 0.544494
         4        12         2         5     4      180.000000        5.959295         2    ;  uncertainty k = 0.544494
         6         5         7        11     4      180.000000        0.378021         2    ;  uncertainty k = 0.845280
         6         7        11         5     4      180.000000        0.378021         2    ;  uncertainty k = 0.845280
         6        11         5         7     4      180.000000        0.378021         2    ;  uncertainty k = 0.845280
         7         6         8        21     4      180.000000        3.525677         2    ;  uncertainty k = 0.272755
         7         8        21         6     4      180.000000        3.525677         2    ;  uncertainty k = 0.272755
         7        21         6         8     4      180.000000        3.525677         2    ;  uncertainty k = 0.272755
         8         7         9        22     4      180.000000        3.970134         2    ;  uncertainty k = 0.158223
         8         9        22         7     4      180.000000        3.970134         2    ;  uncertainty k = 0.158223
         8        22         7         9     4      180.000000        3.970134         2    ;  uncertainty k = 0.158223
         9         8        10        23     4      180.000000        3.884791         2    ;  uncertainty k = 0.071715
         9        10        23         8     4      180.000000        3.884791         2    ;  uncertainty k = 0.071715
         9        23         8        10     4      180.000000        3.884791         2    ;  uncertainty k = 0.071715
        10         9        11        24     4      180.000000        3.930728         2    ;  uncertainty k = 0.139583
        10        11        24         9     4      180.000000        3.930728         2    ;  uncertainty k = 0.139583
        10        24         9        11     4      180.000000        3.930728         2    ;  uncertainty k = 0.139583
        11         6        10        12     4      180.000000        1.114365         2    ;  uncertainty k = 0.735010
        11        10        12         6     4      180.000000        1.114365         2    ;  uncertainty k = 0.735010
        11        12         6        10     4      180.000000        1.114365         2    ;  uncertainty k = 0.735010
        12         4        11        13     4      180.000000        6.812524         2    ;  uncertainty k = 0.288594
        12        11        13         4     4      180.000000        6.812524         2    ;  uncertainty k = 0.288594
        12        13         4        11     4      180.000000        6.812524         2    ;  uncertainty k = 0.288594
        17        16        20        33     4      180.000000       18.386574         2    ;  uncertainty k = 0.037406
        17        20        33        16     4      180.000000       18.386574         2    ;  uncertainty k = 0.037406
        17        33        16        20     4      180.000000       18.386574         2    ;  uncertainty k = 0.037406
        18        19        32        43     4      180.000000        3.202597         2    ;  uncertainty k = 0.111123
        18        32        43        19     4      180.000000        3.202597         2    ;  uncertainty k = 0.111123
        18        43        19        32     4      180.000000        3.202597         2    ;  uncertainty k = 0.111123
        19        18        20        42     4      180.000000        4.517471         2    ;  uncertainty k = 0.112932
        19        20        42        18     4      180.000000        4.517471         2    ;  uncertainty k = 0.112932
        19        42        18        20     4      180.000000        4.517471         2    ;  uncertainty k = 0.112932
        20        17        19        31     4      180.000000        2.124675         2    ;  uncertainty k = 0.359781
        20        19        31        17     4      180.000000        2.124675         2    ;  uncertainty k = 0.359781
        20        31        17        19     4      180.000000        2.124675         2    ;  uncertainty k = 0.359781
        32        18        33        37     4      180.000000        8.794758         2    ;  uncertainty k = 0.135372
        32        33        37        18     4      180.000000        8.794758         2    ;  uncertainty k = 0.135372
        32        37        18        33     4      180.000000        8.794758         2    ;  uncertainty k = 0.135372
        33        17        32        34     4      180.000000        6.447874         2    ;  uncertainty k = 0.208436
        33        32        34        17     4      180.000000        6.447874         2    ;  uncertainty k = 0.208436
        33        34        17        32     4      180.000000        6.447874         2    ;  uncertainty k = 0.208436
        34        33        35        38     4      180.000000        4.159024         2    ;  uncertainty k = 0.064669
        34        35        38        33     4      180.000000        4.159024         2    ;  uncertainty k = 0.064669
        34        38        33        35     4      180.000000        4.159024         2    ;  uncertainty k = 0.064669
        35        34        36        39     4      180.000000        4.123010         2    ;  uncertainty k = 0.085110
        35        36        39        34     4      180.000000        4.123010         2    ;  uncertainty k = 0.085110
        35        39        34        36     4      180.000000        4.123010         2    ;  uncertainty k = 0.085110
        36        35        37        40     4      180.000000        4.525514         2    ;  uncertainty k = 0.072532
        36        37        40        35     4      180.000000        4.525514         2    ;  uncertainty k = 0.072532
        36        40        35        37     4      180.000000        4.525514         2    ;  uncertainty k = 0.072532
        37        32        36        41     4      180.000000        4.079319         2    ;  uncertainty k = 0.082584
        37        36        41        32     4      180.000000        4.079319         2    ;  uncertainty k = 0.082584
        37        41        32        36     4      180.000000        4.079319         2    ;  uncertainty k = 0.082584

[ pairs ]
;       ai        aj funct
         1         5     1
         1        12     1
         2         6     1
         2        11     1
         2        13     1
         3         5     1
         3        12     1
         4         7     1
         4        10     1
         4        14     1
         4        25     1
         4        26     1
         5         8     1
         5        10     1
         5        13     1
         5        21     1
         6         9     1
         6        13     1
         6        22     1
         6        24     1
         7        10     1
         7        12     1
         7        23     1
         8        11     1
         8        24     1
         9        12     1
         9        21     1
        10        13     1
        10        22     1
        11        14     1
        11        21     1
        11        23     1
        11        25     1
        11        26     1
        12        15     1
        12        24     1
        12        27     1
        12        28     1
        13        16     1
        13        29     1
        13        30     1
        14        17     1
        15        20     1
        15        25     1
        15        26     1
        15        33     1
        16        19     1
        16        27     1
        16        28     1
        16        31     1
        16        32     1
        16        34     1
        17        18     1
        17        29     1
        17        30     1
        17        35     1
        17        37     1
        17        38     1
        17        42     1
        18        31     1
        18        34     1
        18        36     1
        18        41     1
        19        33     1
        19        37     1
        20        32     1
        20        34     1
        20        43     1
        21        22     1
        22        23     1
        23        24     1
        25        27     1
        25        28     1
        26        27     1
        26        28     1
        27        29     1
        27        30     1
        28        29     1
        28        30     1
        31        33     1
        31        42     1
        32        35     1
        32        38     1
        32        40     1
        32        42     1
        33        36     1
        33        39     1
        33        41     1
        33        43     1
        34        37     1
        34        40     1
        35        41     1
        36        38     1
        37        39     1
        37        43     1
        38        39     1
        39        40     1
        40        41     1
        42        43     1
