; ITP file created by ByteFF-joint-25, 2026-02-17 09:15:26.096157

[ atomtypes ]
;name           bonded.type        at.num        mass        charge   ptype           sigma         epsilon
 o0bf                                   8      0.0000       0.00000       A     3.04833e-01     6.12014e-01    ;  uncertainty sigma = 0.000025, epsilon = 0.001440
 c1bf                                   6      0.0000       0.00000       A     3.31484e-01     4.13697e-01    ;  uncertainty sigma = 0.000025, epsilon = 0.002398
 o2bf                                   8      0.0000       0.00000       A     3.04833e-01     6.12014e-01    ;  uncertainty sigma = 0.000025, epsilon = 0.001440
 c3bf                                   6      0.0000       0.00000       A     3.31477e-01     4.11833e-01    ;  uncertainty sigma = 0.000037, epsilon = 0.002745
 c4bf                                   6      0.0000       0.00000       A     3.31529e-01     4.13103e-01    ;  uncertainty sigma = 0.000010, epsilon = 0.001306
 c5bf                                   6      0.0000       0.00000       A     3.31527e-01     4.13307e-01    ;  uncertainty sigma = 0.000008, epsilon = 0.000786
 c6bf                                   6      0.0000       0.00000       A     3.31525e-01     4.13425e-01    ;  uncertainty sigma = 0.000005, epsilon = 0.000589
 c7bf                                   6      0.0000       0.00000       A     3.31522e-01     4.13315e-01    ;  uncertainty sigma = 0.000004, epsilon = 0.000626
 c8bf                                   6      0.0000       0.00000       A     3.31526e-01     4.13168e-01    ;  uncertainty sigma = 0.000008, epsilon = 0.000544
 c9bf                                   6      0.0000       0.00000       A     3.31527e-01     4.13080e-01    ;  uncertainty sigma = 0.000013, epsilon = 0.000931
 c10bf                                  6      0.0000       0.00000       A     3.31573e-01     4.13418e-01    ;  uncertainty sigma = 0.000011, epsilon = 0.001345
 c11bf                                  6      0.0000       0.00000       A     3.39762e-01     4.50422e-01    ;  uncertainty sigma = 0.000019, epsilon = 0.001358
 c12bf                                  6      0.0000       0.00000       A     3.39756e-01     4.50617e-01    ;  uncertainty sigma = 0.000006, epsilon = 0.000966
 c13bf                                  6      0.0000       0.00000       A     3.39780e-01     4.50469e-01    ;  uncertainty sigma = 0.000008, epsilon = 0.000834
 o14bf                                  8      0.0000       0.00000       A     3.15667e-01     3.03012e-01    ;  uncertainty sigma = 0.000025, epsilon = 0.001888
 c15bf                                  6      0.0000       0.00000       A     3.31550e-01     4.13524e-01    ;  uncertainty sigma = 0.000007, epsilon = 0.000519
 c16bf                                  6      0.0000       0.00000       A     3.31525e-01     4.13209e-01    ;  uncertainty sigma = 0.000006, epsilon = 0.000593
 c17bf                                  6      0.0000       0.00000       A     3.31529e-01     4.13386e-01    ;  uncertainty sigma = 0.000002, epsilon = 0.000727
 c18bf                                  6      0.0000       0.00000       A     3.31514e-01     4.13155e-01    ;  uncertainty sigma = 0.000007, epsilon = 0.000630
 h19bf                                  1      0.0000       0.00000       A     2.62564e-01     6.70631e-02    ;  uncertainty sigma = 0.000011, epsilon = 0.000465
 h20bf                                  1      0.0000       0.00000       A     2.62568e-01     6.70011e-02    ;  uncertainty sigma = 0.000012, epsilon = 0.000571
 h21bf                                  1      0.0000       0.00000       A     2.62563e-01     6.69792e-02    ;  uncertainty sigma = 0.000011, epsilon = 0.000555
 h22bf                                  1      0.0000       0.00000       A     2.62566e-01     6.69764e-02    ;  uncertainty sigma = 0.000010, epsilon = 0.000332
 h23bf                                  1      0.0000       0.00000       A     2.60030e-01     8.65676e-02    ;  uncertainty sigma = 0.000008, epsilon = 0.000833
 h24bf                                  1      0.0000       0.00000       A     2.60030e-01     8.65676e-02    ;  uncertainty sigma = 0.000008, epsilon = 0.000833
 h25bf                                  1      0.0000       0.00000       A     2.60032e-01     8.63750e-02    ;  uncertainty sigma = 0.000011, epsilon = 0.000877
 h26bf                                  1      0.0000       0.00000       A     2.60032e-01     8.63750e-02    ;  uncertainty sigma = 0.000011, epsilon = 0.000877
 h27bf                                  1      0.0000       0.00000       A     2.42191e-01     8.69833e-02    ;  uncertainty sigma = 0.000030, epsilon = 0.000474
 h28bf                                  1      0.0000       0.00000       A     2.42191e-01     8.69833e-02    ;  uncertainty sigma = 0.000030, epsilon = 0.000474
 h29bf                                  1      0.0000       0.00000       A     2.62574e-01     6.69587e-02    ;  uncertainty sigma = 0.000012, epsilon = 0.000438
 c30bf                                  6      0.0000       0.00000       A     3.31525e-01     4.13520e-01    ;  uncertainty sigma = 0.000007, epsilon = 0.000401
 c31bf                                  6      0.0000       0.00000       A     3.31499e-01     4.13378e-01    ;  uncertainty sigma = 0.000012, epsilon = 0.000710
 c32bf                                  6      0.0000       0.00000       A     3.31518e-01     4.13093e-01    ;  uncertainty sigma = 0.000007, epsilon = 0.000322
 c33bf                                  6      0.0000       0.00000       A     3.31524e-01     4.13323e-01    ;  uncertainty sigma = 0.000003, epsilon = 0.000661
 c34bf                                  6      0.0000       0.00000       A     3.31523e-01     4.13359e-01    ;  uncertainty sigma = 0.000003, epsilon = 0.000694
 c35bf                                  6      0.0000       0.00000       A     3.31524e-01     4.13214e-01    ;  uncertainty sigma = 0.000004, epsilon = 0.000571
 h36bf                                  1      0.0000       0.00000       A     2.62548e-01     6.70306e-02    ;  uncertainty sigma = 0.000019, epsilon = 0.000384
 h37bf                                  1      0.0000       0.00000       A     2.62567e-01     6.69734e-02    ;  uncertainty sigma = 0.000010, epsilon = 0.000525
 h38bf                                  1      0.0000       0.00000       A     2.62567e-01     6.69734e-02    ;  uncertainty sigma = 0.000010, epsilon = 0.000525
 h39bf                                  1      0.0000       0.00000       A     2.62559e-01     6.70660e-02    ;  uncertainty sigma = 0.000013, epsilon = 0.000302
 h40bf                                  1      0.0000       0.00000       A     2.62585e-01     6.69641e-02    ;  uncertainty sigma = 0.000009, epsilon = 0.000462
 h41bf                                  1      0.0000       0.00000       A     2.62559e-01     6.70660e-02    ;  uncertainty sigma = 0.000013, epsilon = 0.000302
 o42bf                                  8      0.0000       0.00000       A     3.15640e-01     3.02010e-01    ;  uncertainty sigma = 0.000049, epsilon = 0.002361

[ moleculetype ]
;name             nrexcl
 MOL                   3

[ atoms ]
;       nr            type      resi   res      atom      cgnr      charge          mass ; qtot
         1            o0bf         1   UNL        o0         1    -0.81476       15.9990 ; qtot   -0.815
         2            c1bf         1   UNL        c1         2     0.93271       12.0110 ; qtot    0.118
         3            o2bf         1   UNL        o2         3    -0.81476       15.9990 ; qtot   -0.697
         4            c3bf         1   UNL        c3         4    -0.00084       12.0110 ; qtot   -0.698
         5            c4bf         1   UNL        c4         5     0.03707       12.0110 ; qtot   -0.661
         6            c5bf         1   UNL        c5         6    -0.14075       12.0110 ; qtot   -0.801
         7            c6bf         1   UNL        c6         7    -0.10907       12.0110 ; qtot   -0.910
         8            c7bf         1   UNL        c7         8    -0.15170       12.0110 ; qtot   -1.062
         9            c8bf         1   UNL        c8         9    -0.09222       12.0110 ; qtot   -1.154
        10            c9bf         1   UNL        c9        10    -0.10520       12.0110 ; qtot   -1.260
        11           c10bf         1   UNL       c10        11    -0.20379       12.0110 ; qtot   -1.463
        12           c11bf         1   UNL       c11        12    -0.00870       12.0110 ; qtot   -1.472
        13           c12bf         1   UNL       c12        13    -0.09609       12.0110 ; qtot   -1.568
        14           c13bf         1   UNL       c13        14     0.13638       12.0110 ; qtot   -1.432
        15           o14bf         1   UNL       o14        15    -0.33774       15.9990 ; qtot   -1.769
        16           c15bf         1   UNL       c15        16     0.14513       12.0110 ; qtot   -1.624
        17           c16bf         1   UNL       c16        17    -0.13575       12.0110 ; qtot   -1.760
        18           c17bf         1   UNL       c17        18    -0.09521       12.0110 ; qtot   -1.855
        19           c18bf         1   UNL       c18        19    -0.21404       12.0110 ; qtot   -2.069
        20           h19bf         1   UNL       h19        20     0.15022        1.0080 ; qtot   -1.919
        21           h20bf         1   UNL       h20        21     0.13406        1.0080 ; qtot   -1.785
        22           h21bf         1   UNL       h21        22     0.13216        1.0080 ; qtot   -1.653
        23           h22bf         1   UNL       h22        23     0.13859        1.0080 ; qtot   -1.514
        24           h23bf         1   UNL       h23        24     0.04940        1.0080 ; qtot   -1.465
        25           h24bf         1   UNL       h24        25     0.04940        1.0080 ; qtot   -1.415
        26           h25bf         1   UNL       h25        26     0.05579        1.0080 ; qtot   -1.360
        27           h26bf         1   UNL       h26        27     0.05579        1.0080 ; qtot   -1.304
        28           h27bf         1   UNL       h27        28     0.04657        1.0080 ; qtot   -1.257
        29           h28bf         1   UNL       h28        29     0.04657        1.0080 ; qtot   -1.211
        30           h29bf         1   UNL       h29        30     0.14093        1.0080 ; qtot   -1.070
        31           c30bf         1   UNL       c30        31    -0.02304       12.0110 ; qtot   -1.093
        32           c31bf         1   UNL       c31        32    -0.05635       12.0110 ; qtot   -1.149
        33           c32bf         1   UNL       c32        33    -0.10394       12.0110 ; qtot   -1.253
        34           c33bf         1   UNL       c33        34    -0.13597       12.0110 ; qtot   -1.389
        35           c34bf         1   UNL       c34        35    -0.12037       12.0110 ; qtot   -1.510
        36           c35bf         1   UNL       c35        36    -0.12275       12.0110 ; qtot   -1.632
        37           h36bf         1   UNL       h36        37     0.14397        1.0080 ; qtot   -1.488
        38           h37bf         1   UNL       h37        38     0.13455        1.0080 ; qtot   -1.354
        39           h38bf         1   UNL       h38        39     0.13276        1.0080 ; qtot   -1.221
        40           h39bf         1   UNL       h39        40     0.13307        1.0080 ; qtot   -1.088
        41           h40bf         1   UNL       h40        41     0.13604        1.0080 ; qtot   -0.952
        42           h41bf         1   UNL       h41        42     0.13458        1.0080 ; qtot   -0.817
        43           o42bf         1   UNL       o42        43    -0.18270       15.9990 ; qtot   -1.000

[ bonds ]
;       ai        aj funct               r               k
         1         2     1        0.126010   528274.792090    ;  uncertainty r = 0.000042, k = 11.837897
         2         3     1        0.126010   528274.792090    ;  uncertainty r = 0.000042, k = 11.837897
         2         4     1        0.153431   118032.098169    ;  uncertainty r = 0.000212, k = 177.422484
         4        11     1        0.137467   378801.264404    ;  uncertainty r = 0.000133, k = 32.108392
         4        43     1        0.139657   240125.184082    ;  uncertainty r = 0.000242, k = 47.369639
         5         6     1        0.138986   368012.499658    ;  uncertainty r = 0.000073, k = 6.966372
         5        10     1        0.141445   354422.467236    ;  uncertainty r = 0.000104, k = 17.876592
         5        43     1        0.136264   299485.147803    ;  uncertainty r = 0.000170, k = 11.930661
         6         7     1        0.139476   375132.577734    ;  uncertainty r = 0.000030, k = 3.930728
         6        20     1        0.108794   337504.770703    ;  uncertainty r = 0.000017, k = 0.767469
         7         8     1        0.141042   351133.951514    ;  uncertainty r = 0.000030, k = 1.858940
         7        21     1        0.108778   334711.368457    ;  uncertainty r = 0.000013, k = 1.294340
         8         9     1        0.139290   367372.922754    ;  uncertainty r = 0.000027, k = 1.867123
         8        22     1        0.108798   334969.293262    ;  uncertainty r = 0.000023, k = 0.946671
         9        10     1        0.140455   365185.311816    ;  uncertainty r = 0.000058, k = 8.237149
         9        23     1        0.108795   336358.001270    ;  uncertainty r = 0.000006, k = 2.313612
        10        11     1        0.144501   278101.215137    ;  uncertainty r = 0.000048, k = 25.530259
        11        12     1        0.149977   235123.894434    ;  uncertainty r = 0.000160, k = 7.253579
        12        13     1        0.153735   205305.718506    ;  uncertainty r = 0.000133, k = 7.986493
        12        24     1        0.109652   309759.773926    ;  uncertainty r = 0.000039, k = 2.435519
        12        25     1        0.109652   309759.773926    ;  uncertainty r = 0.000039, k = 2.435519
        13        14     1        0.152156   209976.059985    ;  uncertainty r = 0.000042, k = 4.015093
        13        26     1        0.109653   307738.996924    ;  uncertainty r = 0.000029, k = 1.351177
        13        27     1        0.109653   307738.996924    ;  uncertainty r = 0.000029, k = 1.351177
        14        15     1        0.142782   231869.521826    ;  uncertainty r = 0.000050, k = 4.849883
        14        28     1        0.109724   308279.106787    ;  uncertainty r = 0.000019, k = 1.483942
        14        29     1        0.109724   308279.106787    ;  uncertainty r = 0.000019, k = 1.483942
        15        16     1        0.136655   326316.222510    ;  uncertainty r = 0.000064, k = 10.302402
        16        19     1        0.138195   347784.453174    ;  uncertainty r = 0.000087, k = 7.943558
        16        32     1        0.142488   314726.230957    ;  uncertainty r = 0.000062, k = 8.281810
        17        18     1        0.137749   374604.725684    ;  uncertainty r = 0.000037, k = 4.265677
        17        31     1        0.142098   349009.698145    ;  uncertainty r = 0.000048, k = 5.218697
        17        42     1        0.108802   334878.074707    ;  uncertainty r = 0.000015, k = 1.345267
        18        19     1        0.141654   351742.500830    ;  uncertainty r = 0.000138, k = 8.139816
        18        41     1        0.108730   333619.095215    ;  uncertainty r = 0.000016, k = 1.862014
        19        30     1        0.108748   338790.257715    ;  uncertainty r = 0.000030, k = 1.699317
        31        32     1        0.143171   332447.248340    ;  uncertainty r = 0.000057, k = 5.746991
        31        36     1        0.142103   349376.104590    ;  uncertainty r = 0.000053, k = 3.058860
        32        33     1        0.141848   331211.839600    ;  uncertainty r = 0.000038, k = 5.635555
        33        34     1        0.138023   367791.322754    ;  uncertainty r = 0.000025, k = 2.241963
        33        37     1        0.108628   335903.032129    ;  uncertainty r = 0.000013, k = 0.678310
        34        35     1        0.141669   357736.903125    ;  uncertainty r = 0.000034, k = 2.704716
        34        38     1        0.108804   334143.984961    ;  uncertainty r = 0.000012, k = 1.469926
        35        36     1        0.137829   370848.676562    ;  uncertainty r = 0.000014, k = 2.697016
        35        39     1        0.108812   334757.871533    ;  uncertainty r = 0.000008, k = 1.170074
        36        40     1        0.108836   335130.713330    ;  uncertainty r = 0.000009, k = 0.888129

[ angles ]
;       ai        aj        ak funct           theta             cth
         1         2         3     1      131.927002      820.339928    ;  uncertainty theta = 0.008116, k = 0.109190
         1         2         4     1      113.589828      321.584477    ;  uncertainty theta = 0.011155, k = 0.487228
         2         4        11     1      128.834229      281.243952    ;  uncertainty theta = 0.004748, k = 0.202419
         2         4        43     1      114.079201      378.633677    ;  uncertainty theta = 0.007260, k = 0.503534
         3         2         4     1      113.589828      321.584477    ;  uncertainty theta = 0.011155, k = 0.487228
         4        11        10     1      106.884422      736.473188    ;  uncertainty theta = 0.006933, k = 0.242802
         4        11        12     1      125.929466      329.384787    ;  uncertainty theta = 0.010669, k = 0.160768
         4        43         5     1      108.615356      962.297527    ;  uncertainty theta = 0.006906, k = 0.308717
         5         6         7     1      116.069725      523.148818    ;  uncertainty theta = 0.001961, k = 0.087350
         5         6        20     1      122.671288      287.791220    ;  uncertainty theta = 0.002115, k = 0.090073
         5        10         9     1      116.011841      395.033641    ;  uncertainty theta = 0.002149, k = 0.080330
         5        10        11     1      105.949539      676.536316    ;  uncertainty theta = 0.002460, k = 0.160902
         6         5        10     1      121.827026      359.888545    ;  uncertainty theta = 0.003035, k = 0.236042
         6         5        43     1      124.944275      420.429179    ;  uncertainty theta = 0.004170, k = 0.079735
         6         7         8     1      122.406761      530.151827    ;  uncertainty theta = 0.001600, k = 0.046105
         6         7        21     1      119.620178      284.942620    ;  uncertainty theta = 0.001785, k = 0.045292
         7         6        20     1      121.948074      279.564345    ;  uncertainty theta = 0.001470, k = 0.048685
         7         8         9     1      122.051003      527.154377    ;  uncertainty theta = 0.001934, k = 0.027251
         7         8        22     1      119.548988      287.874599    ;  uncertainty theta = 0.001931, k = 0.036241
         8         7        21     1      119.784378      286.793230    ;  uncertainty theta = 0.001225, k = 0.038119
         8         9        10     1      118.459610      548.420213    ;  uncertainty theta = 0.003757, k = 0.038476
         8         9        23     1      120.736183      284.314790    ;  uncertainty theta = 0.001715, k = 0.036117
         9         8        22     1      119.867920      287.399130    ;  uncertainty theta = 0.002013, k = 0.036058
         9        10        11     1      133.473633      352.567726    ;  uncertainty theta = 0.004030, k = 0.142870
        10         5        43     1      110.612671      699.935011    ;  uncertainty theta = 0.004374, k = 0.227630
        10         9        23     1      121.321678      289.671613    ;  uncertainty theta = 0.005059, k = 0.086358
        10        11        12     1      125.681175      358.331037    ;  uncertainty theta = 0.009789, k = 0.163602
        11         4        43     1      113.037796      692.262323    ;  uncertainty theta = 0.003356, k = 0.288283
        11        12        13     1      111.289024      549.717690    ;  uncertainty theta = 0.005096, k = 0.047455
        11        12        24     1      106.827293      405.813780    ;  uncertainty theta = 0.001257, k = 0.076249
        11        12        25     1      106.827293      405.813780    ;  uncertainty theta = 0.001257, k = 0.076249
        12        13        14     1      109.743004      552.523069    ;  uncertainty theta = 0.002243, k = 0.063496
        12        13        26     1      107.653885      395.201419    ;  uncertainty theta = 0.002933, k = 0.059750
        12        13        27     1      107.653885      395.201419    ;  uncertainty theta = 0.002933, k = 0.059750
        13        12        24     1      107.044388      401.318132    ;  uncertainty theta = 0.002112, k = 0.087504
        13        12        25     1      107.044388      401.318132    ;  uncertainty theta = 0.002112, k = 0.087504
        13        14        15     1      109.024925      593.898294    ;  uncertainty theta = 0.001682, k = 0.040903
        13        14        28     1      109.892639      406.982007    ;  uncertainty theta = 0.001826, k = 0.046205
        13        14        29     1      109.892639      406.982007    ;  uncertainty theta = 0.001826, k = 0.046205
        14        13        26     1      106.757629      398.184473    ;  uncertainty theta = 0.001304, k = 0.024536
        14        13        27     1      106.757629      398.184473    ;  uncertainty theta = 0.001304, k = 0.024536
        14        15        16     1      110.885666      496.686722    ;  uncertainty theta = 0.001423, k = 0.095319
        15        14        28     1      106.960228      431.689001    ;  uncertainty theta = 0.001451, k = 0.023371
        15        14        29     1      106.960228      431.689001    ;  uncertainty theta = 0.001451, k = 0.023371
        15        16        19     1      120.880371      437.394055    ;  uncertainty theta = 0.002970, k = 0.200699
        15        16        32     1      116.489357      458.690472    ;  uncertainty theta = 0.005226, k = 0.228959
        16        19        18     1      120.722633      518.175944    ;  uncertainty theta = 0.002195, k = 0.141477
        16        19        30     1      118.073547      268.457585    ;  uncertainty theta = 0.004557, k = 0.050618
        16        32        31     1      117.886742      446.079992    ;  uncertainty theta = 0.004650, k = 0.148889
        16        32        33     1      121.055542      434.027434    ;  uncertainty theta = 0.002581, k = 0.247580
        17        18        19     1      120.807838      514.806993    ;  uncertainty theta = 0.001881, k = 0.085063
        17        18        41     1      119.944679      287.263017    ;  uncertainty theta = 0.001380, k = 0.039752
        17        31        32     1      119.359840      455.161690    ;  uncertainty theta = 0.004738, k = 0.151465
        17        31        36     1      123.340538      467.533813    ;  uncertainty theta = 0.002575, k = 0.078914
        18        17        31     1      119.297020      530.734680    ;  uncertainty theta = 0.001581, k = 0.054548
        18        17        42     1      121.059166      288.732837    ;  uncertainty theta = 0.001304, k = 0.052632
        18        19        30     1      120.640701      288.788317    ;  uncertainty theta = 0.002480, k = 0.056035
        19        16        32     1      123.092026      415.535439    ;  uncertainty theta = 0.003571, k = 0.180852
        19        18        41     1      119.891098      282.551420    ;  uncertainty theta = 0.001723, k = 0.073948
        24        12        25     1      104.649986      315.029165    ;  uncertainty theta = 0.003809, k = 0.053323
        26        13        27     1      105.128151      317.584600    ;  uncertainty theta = 0.002459, k = 0.026569
        28        14        29     1      107.557716      332.505071    ;  uncertainty theta = 0.001738, k = 0.040091
        31        17        42     1      119.503296      276.877490    ;  uncertainty theta = 0.002196, k = 0.043077
        31        32        33     1      119.544357      455.792042    ;  uncertainty theta = 0.003353, k = 0.075921
        31        36        35     1      120.307373      540.568254    ;  uncertainty theta = 0.001705, k = 0.049107
        31        36        40     1      119.335144      278.316889    ;  uncertainty theta = 0.002520, k = 0.045302
        32        31        36     1      118.325851      453.057369    ;  uncertainty theta = 0.003579, k = 0.122749
        32        33        34     1      120.765099      522.188016    ;  uncertainty theta = 0.000878, k = 0.092445
        32        33        37     1      118.487877      261.075988    ;  uncertainty theta = 0.001939, k = 0.118011
        33        34        35     1      120.327049      530.332311    ;  uncertainty theta = 0.001259, k = 0.030035
        33        34        38     1      119.709885      291.029485    ;  uncertainty theta = 0.000552, k = 0.039936
        34        33        37     1      120.799538      286.723609    ;  uncertainty theta = 0.001427, k = 0.049122
        34        35        36     1      119.492630      527.209378    ;  uncertainty theta = 0.001081, k = 0.017885
        34        35        39     1      120.342430      288.088696    ;  uncertainty theta = 0.001400, k = 0.008231
        35        34        38     1      120.521278      289.271128    ;  uncertainty theta = 0.001411, k = 0.008024
        35        36        40     1      120.925453      287.525794    ;  uncertainty theta = 0.001171, k = 0.023440
        36        35        39     1      119.773743      289.592799    ;  uncertainty theta = 0.001086, k = 0.026821

[ dihedrals ] ; propers for gromacs 4.5 or higher, use funct 9
;       ai        aj        ak        al funct           phase               k        pn
         1         2         4        11     9        0.000000        0.028040         1    ;  uncertainty k = 1.383175
         1         2         4        11     9      180.000000        1.896285         2    ;  uncertainty k = 0.471255
         1         2         4        11     9        0.000000        0.070475         3    ;  uncertainty k = 0.287179
         1         2         4        11     9      180.000000        0.074818         4    ;  uncertainty k = 0.104170
         1         2         4        43     9        0.000000        0.426890         1    ;  uncertainty k = 0.536285
         1         2         4        43     9      180.000000        4.237072         2    ;  uncertainty k = 0.258324
         1         2         4        43     9        0.000000        0.452795         3    ;  uncertainty k = 0.358697
         1         2         4        43     9      180.000000        0.071600         4    ;  uncertainty k = 0.089378
         2         4        11        10     9        0.000000        0.452745         1    ;  uncertainty k = 0.864569
         2         4        11        10     9      180.000000       10.334749         2    ;  uncertainty k = 0.694312
         2         4        11        10     9        0.000000        2.019954         3    ;  uncertainty k = 0.447396
         2         4        11        10     9      180.000000        0.826871         4    ;  uncertainty k = 0.264428
         2         4        11        12     9        0.000000       -0.006117         1    ;  uncertainty k = 0.931356
         2         4        11        12     9      180.000000        8.757974         2    ;  uncertainty k = 0.646323
         2         4        11        12     9        0.000000        1.521918         3    ;  uncertainty k = 0.423015
         2         4        11        12     9      180.000000        0.451100         4    ;  uncertainty k = 0.240403
         2         4        43         5     9        0.000000        0.031572         1    ;  uncertainty k = 1.284547
         2         4        43         5     9      180.000000        4.413889         2    ;  uncertainty k = 0.602680
         2         4        43         5     9        0.000000        1.641568         3    ;  uncertainty k = 0.538025
         2         4        43         5     9      180.000000        0.440233         4    ;  uncertainty k = 0.158515
         3         2         4        11     9        0.000000        0.028040         1    ;  uncertainty k = 1.383175
         3         2         4        11     9      180.000000        1.896285         2    ;  uncertainty k = 0.471255
         3         2         4        11     9        0.000000        0.070475         3    ;  uncertainty k = 0.287179
         3         2         4        11     9      180.000000        0.074818         4    ;  uncertainty k = 0.104170
         3         2         4        43     9        0.000000        0.426890         1    ;  uncertainty k = 0.536285
         3         2         4        43     9      180.000000        4.237072         2    ;  uncertainty k = 0.258324
         3         2         4        43     9        0.000000        0.452795         3    ;  uncertainty k = 0.358697
         3         2         4        43     9      180.000000        0.071600         4    ;  uncertainty k = 0.089378
         4        11        10         5     9        0.000000        0.724338         1    ;  uncertainty k = 0.693124
         4        11        10         5     9      180.000000       10.892549         2    ;  uncertainty k = 1.527440
         4        11        10         5     9        0.000000      -10.375953         3    ;  uncertainty k = 2.206388
         4        11        10         5     9      180.000000        2.116681         4    ;  uncertainty k = 0.641191
         4        11        10         9     9        0.000000       -0.034682         1    ;  uncertainty k = 1.395332
         4        11        10         9     9      180.000000        5.036425         2    ;  uncertainty k = 0.557098
         4        11        10         9     9        0.000000        0.338177         3    ;  uncertainty k = 0.439440
         4        11        10         9     9      180.000000        0.968824         4    ;  uncertainty k = 0.243886
         4        11        12        13     9        0.000000       -0.821759         1    ;  uncertainty k = 1.324571
         4        11        12        13     9      180.000000        2.049479         2    ;  uncertainty k = 0.658783
         4        11        12        13     9        0.000000        0.143106         3    ;  uncertainty k = 0.448229
         4        11        12        13     9      180.000000        0.093592         4    ;  uncertainty k = 0.183569
         4        11        12        24     9        0.000000        1.342523         1    ;  uncertainty k = 0.420079
         4        11        12        24     9      180.000000        2.770853         2    ;  uncertainty k = 0.379362
         4        11        12        24     9        0.000000        0.053714         3    ;  uncertainty k = 0.080913
         4        11        12        24     9      180.000000        0.149361         4    ;  uncertainty k = 0.106413
         4        11        12        25     9        0.000000        1.342523         1    ;  uncertainty k = 0.420079
         4        11        12        25     9      180.000000        2.770853         2    ;  uncertainty k = 0.379362
         4        11        12        25     9        0.000000        0.053714         3    ;  uncertainty k = 0.080913
         4        11        12        25     9      180.000000        0.149361         4    ;  uncertainty k = 0.106413
         4        43         5         6     9        0.000000        1.689594         1    ;  uncertainty k = 2.172425
         4        43         5         6     9      180.000000        6.069422         2    ;  uncertainty k = 0.652447
         4        43         5         6     9        0.000000        1.209989         3    ;  uncertainty k = 0.370025
         4        43         5         6     9      180.000000        0.302640         4    ;  uncertainty k = 0.168135
         4        43         5        10     9        0.000000       -0.178462         1    ;  uncertainty k = 1.563833
         4        43         5        10     9      180.000000       13.133310         2    ;  uncertainty k = 0.362627
         4        43         5        10     9        0.000000       -6.179321         3    ;  uncertainty k = 1.038181
         4        43         5        10     9      180.000000        0.953486         4    ;  uncertainty k = 0.764589
         5         6         7         8     9        0.000000       -0.046921         1    ;  uncertainty k = 0.180069
         5         6         7         8     9      180.000000       16.283711         2    ;  uncertainty k = 0.221348
         5         6         7         8     9        0.000000       -0.555214         3    ;  uncertainty k = 0.435035
         5         6         7         8     9      180.000000        0.652112         4    ;  uncertainty k = 0.297017
         5         6         7        21     9        0.000000       -0.010266         1    ;  uncertainty k = 0.170356
         5         6         7        21     9      180.000000       10.692972         2    ;  uncertainty k = 0.519642
         5         6         7        21     9        0.000000        1.342143         3    ;  uncertainty k = 0.323459
         5         6         7        21     9      180.000000        1.584603         4    ;  uncertainty k = 0.258139
         5        10         9         8     9        0.000000       -0.084523         1    ;  uncertainty k = 0.191183
         5        10         9         8     9      180.000000       14.169479         2    ;  uncertainty k = 0.162590
         5        10         9         8     9        0.000000       -1.657102         3    ;  uncertainty k = 0.382487
         5        10         9         8     9      180.000000        0.615392         4    ;  uncertainty k = 0.191792
         5        10         9        23     9        0.000000        0.124607         1    ;  uncertainty k = 0.200568
         5        10         9        23     9      180.000000        7.429236         2    ;  uncertainty k = 0.575015
         5        10         9        23     9        0.000000        1.395019         3    ;  uncertainty k = 0.313217
         5        10         9        23     9      180.000000        1.237008         4    ;  uncertainty k = 0.304975
         5        10        11        12     9        0.000000        1.238934         1    ;  uncertainty k = 1.192555
         5        10        11        12     9      180.000000        9.749388         2    ;  uncertainty k = 0.344856
         5        10        11        12     9        0.000000        1.723226         3    ;  uncertainty k = 0.469792
         5        10        11        12     9      180.000000        0.230045         4    ;  uncertainty k = 0.386546
         5        43         4        11     9        0.000000       -1.157905         1    ;  uncertainty k = 0.642560
         5        43         4        11     9      180.000000       13.487538         2    ;  uncertainty k = 0.804379
         5        43         4        11     9        0.000000       -3.796739         3    ;  uncertainty k = 1.264610
         5        43         4        11     9      180.000000        1.026904         4    ;  uncertainty k = 0.433811
         6         5        10         9     9        0.000000       -0.704995         1    ;  uncertainty k = 0.610715
         6         5        10         9     9      180.000000        7.274505         2    ;  uncertainty k = 0.708593
         6         5        10         9     9        0.000000       -0.092439         3    ;  uncertainty k = 0.256585
         6         5        10         9     9      180.000000        0.995547         4    ;  uncertainty k = 0.372837
         6         5        10        11     9        0.000000       -0.142873         1    ;  uncertainty k = 0.290911
         6         5        10        11     9      180.000000        6.955330         2    ;  uncertainty k = 0.689018
         6         5        10        11     9        0.000000       -0.079591         3    ;  uncertainty k = 0.674419
         6         5        10        11     9      180.000000        1.224047         4    ;  uncertainty k = 0.374451
         6         7         8         9     9        0.000000       -0.178437         1    ;  uncertainty k = 0.270380
         6         7         8         9     9      180.000000       12.984148         2    ;  uncertainty k = 0.335121
         6         7         8         9     9        0.000000       -0.815020         3    ;  uncertainty k = 0.616239
         6         7         8         9     9      180.000000        0.668467         4    ;  uncertainty k = 0.202049
         6         7         8        22     9        0.000000        0.066993         1    ;  uncertainty k = 0.074470
         6         7         8        22     9      180.000000        7.101385         2    ;  uncertainty k = 0.364160
         6         7         8        22     9        0.000000        1.451451         3    ;  uncertainty k = 0.256685
         6         7         8        22     9      180.000000        1.714156         4    ;  uncertainty k = 0.162198
         7         6         5        10     9        0.000000       -0.036516         1    ;  uncertainty k = 0.382017
         7         6         5        10     9      180.000000       12.166795         2    ;  uncertainty k = 0.265970
         7         6         5        10     9        0.000000       -1.288176         3    ;  uncertainty k = 0.255062
         7         6         5        10     9      180.000000        0.798774         4    ;  uncertainty k = 0.224468
         7         6         5        43     9        0.000000        0.674539         1    ;  uncertainty k = 0.719754
         7         6         5        43     9      180.000000       10.413516         2    ;  uncertainty k = 0.629964
         7         6         5        43     9        0.000000        1.218163         3    ;  uncertainty k = 0.381875
         7         6         5        43     9      180.000000        1.403857         4    ;  uncertainty k = 0.293655
         7         8         9        10     9        0.000000       -0.046744         1    ;  uncertainty k = 0.487196
         7         8         9        10     9      180.000000       16.688211         2    ;  uncertainty k = 0.324876
         7         8         9        10     9        0.000000       -0.442640         3    ;  uncertainty k = 0.428405
         7         8         9        10     9      180.000000        0.595467         4    ;  uncertainty k = 0.388535
         7         8         9        23     9        0.000000        0.137053         1    ;  uncertainty k = 0.174126
         7         8         9        23     9      180.000000        8.517135         2    ;  uncertainty k = 0.440753
         7         8         9        23     9        0.000000        1.534735         3    ;  uncertainty k = 0.235088
         7         8         9        23     9      180.000000        1.878316         4    ;  uncertainty k = 0.249745
         8         7         6        20     9        0.000000        0.196363         1    ;  uncertainty k = 0.107093
         8         7         6        20     9      180.000000        8.353588         2    ;  uncertainty k = 0.469184
         8         7         6        20     9        0.000000        1.619825         3    ;  uncertainty k = 0.265708
         8         7         6        20     9      180.000000        1.904868         4    ;  uncertainty k = 0.272865
         8         9        10        11     9        0.000000        0.114796         1    ;  uncertainty k = 0.251984
         8         9        10        11     9      180.000000        9.087529         2    ;  uncertainty k = 0.466373
         8         9        10        11     9        0.000000        0.533440         3    ;  uncertainty k = 0.497511
         8         9        10        11     9      180.000000        1.203849         4    ;  uncertainty k = 0.161997
         9         8         7        21     9        0.000000       -0.017546         1    ;  uncertainty k = 0.109539
         9         8         7        21     9      180.000000        6.967957         2    ;  uncertainty k = 0.363149
         9         8         7        21     9        0.000000        1.405631         3    ;  uncertainty k = 0.189001
         9         8         7        21     9      180.000000        1.652022         4    ;  uncertainty k = 0.163278
         9        10         5        43     9        0.000000        0.166108         1    ;  uncertainty k = 0.458970
         9        10         5        43     9      180.000000        9.235549         2    ;  uncertainty k = 0.314522
         9        10         5        43     9        0.000000       -0.079671         3    ;  uncertainty k = 0.433777
         9        10         5        43     9      180.000000        1.359707         4    ;  uncertainty k = 0.383874
         9        10        11        12     9        0.000000        0.351318         1    ;  uncertainty k = 1.646514
         9        10        11        12     9      180.000000        5.368142         2    ;  uncertainty k = 0.700272
         9        10        11        12     9        0.000000        1.596124         3    ;  uncertainty k = 0.193519
         9        10        11        12     9      180.000000        0.236035         4    ;  uncertainty k = 0.218650
        10         5         6        20     9        0.000000        0.321072         1    ;  uncertainty k = 0.377982
        10         5         6        20     9      180.000000        6.296971         2    ;  uncertainty k = 0.833857
        10         5         6        20     9        0.000000        1.301441         3    ;  uncertainty k = 0.175216
        10         5         6        20     9      180.000000        1.240376         4    ;  uncertainty k = 0.285072
        10         9         8        22     9        0.000000        0.090544         1    ;  uncertainty k = 0.363411
        10         9         8        22     9      180.000000       10.929077         2    ;  uncertainty k = 0.298903
        10         9         8        22     9        0.000000        1.489858         3    ;  uncertainty k = 0.322576
        10         9         8        22     9      180.000000        1.665940         4    ;  uncertainty k = 0.298520
        10        11         4        43     9        0.000000       -0.482765         1    ;  uncertainty k = 0.347258
        10        11         4        43     9      180.000000       19.837370         2    ;  uncertainty k = 0.294914
        10        11         4        43     9        0.000000       -4.441455         3    ;  uncertainty k = 1.407147
        10        11         4        43     9      180.000000        1.333156         4    ;  uncertainty k = 0.375969
        10        11        12        13     9        0.000000       -0.461131         1    ;  uncertainty k = 0.772892
        10        11        12        13     9      180.000000        1.145895         2    ;  uncertainty k = 0.499048
        10        11        12        13     9        0.000000        0.662427         3    ;  uncertainty k = 0.299916
        10        11        12        13     9      180.000000        0.142981         4    ;  uncertainty k = 0.080102
        10        11        12        24     9        0.000000       -0.764978         1    ;  uncertainty k = 0.467316
        10        11        12        24     9      180.000000        1.906626         2    ;  uncertainty k = 0.187597
        10        11        12        24     9        0.000000        0.787417         3    ;  uncertainty k = 0.136208
        10        11        12        24     9      180.000000        0.233402         4    ;  uncertainty k = 0.056402
        10        11        12        25     9        0.000000       -0.764978         1    ;  uncertainty k = 0.467316
        10        11        12        25     9      180.000000        1.906626         2    ;  uncertainty k = 0.187597
        10        11        12        25     9        0.000000        0.787417         3    ;  uncertainty k = 0.136208
        10        11        12        25     9      180.000000        0.233402         4    ;  uncertainty k = 0.056402
        11        10         5        43     9        0.000000       -0.343819         1    ;  uncertainty k = 0.503725
        11        10         5        43     9      180.000000       13.760421         2    ;  uncertainty k = 1.137676
        11        10         5        43     9        0.000000       -4.275519         3    ;  uncertainty k = 0.648756
        11        10         5        43     9      180.000000        1.472304         4    ;  uncertainty k = 0.936597
        11        10         9        23     9        0.000000        0.470678         1    ;  uncertainty k = 0.861666
        11        10         9        23     9      180.000000        5.434565         2    ;  uncertainty k = 0.464684
        11        10         9        23     9        0.000000        1.193063         3    ;  uncertainty k = 0.344475
        11        10         9        23     9      180.000000        0.804324         4    ;  uncertainty k = 0.369269
        11        12        13        14     9        0.000000       -2.877531         1    ;  uncertainty k = 0.970701
        11        12        13        14     9      180.000000       -0.507190         2    ;  uncertainty k = 0.347427
        11        12        13        14     9        0.000000        1.326674         3    ;  uncertainty k = 0.146753
        11        12        13        14     9      180.000000       -0.291189         4    ;  uncertainty k = 0.091629
        11        12        13        26     9        0.000000        0.516087         1    ;  uncertainty k = 0.503005
        11        12        13        26     9      180.000000       -0.399530         2    ;  uncertainty k = 0.333243
        11        12        13        26     9        0.000000        1.122204         3    ;  uncertainty k = 0.211065
        11        12        13        26     9      180.000000        0.008330         4    ;  uncertainty k = 0.029071
        11        12        13        27     9        0.000000        0.516087         1    ;  uncertainty k = 0.503005
        11        12        13        27     9      180.000000       -0.399530         2    ;  uncertainty k = 0.333243
        11        12        13        27     9        0.000000        1.122204         3    ;  uncertainty k = 0.211065
        11        12        13        27     9      180.000000        0.008330         4    ;  uncertainty k = 0.029071
        12        11         4        43     9        0.000000        0.194007         1    ;  uncertainty k = 0.795540
        12        11         4        43     9      180.000000       16.687338         2    ;  uncertainty k = 0.639590
        12        11         4        43     9        0.000000        1.911873         3    ;  uncertainty k = 0.509195
        12        11         4        43     9      180.000000        1.155722         4    ;  uncertainty k = 0.443146
        12        13        14        15     9        0.000000       -4.004179         1    ;  uncertainty k = 0.820737
        12        13        14        15     9      180.000000       -2.508356         2    ;  uncertainty k = 0.554100
        12        13        14        15     9        0.000000        2.162655         3    ;  uncertainty k = 0.301426
        12        13        14        15     9      180.000000       -0.463899         4    ;  uncertainty k = 0.174759
        12        13        14        28     9        0.000000       -1.938681         1    ;  uncertainty k = 0.497375
        12        13        14        28     9      180.000000        0.058174         2    ;  uncertainty k = 0.210125
        12        13        14        28     9        0.000000        0.932740         3    ;  uncertainty k = 0.043085
        12        13        14        28     9      180.000000       -0.362023         4    ;  uncertainty k = 0.108163
        12        13        14        29     9        0.000000       -1.938681         1    ;  uncertainty k = 0.497375
        12        13        14        29     9      180.000000        0.058174         2    ;  uncertainty k = 0.210125
        12        13        14        29     9        0.000000        0.932740         3    ;  uncertainty k = 0.043085
        12        13        14        29     9      180.000000       -0.362023         4    ;  uncertainty k = 0.108163
        13        14        15        16     9        0.000000       -0.837876         1    ;  uncertainty k = 0.946133
        13        14        15        16     9      180.000000       -0.372486         2    ;  uncertainty k = 0.293603
        13        14        15        16     9        0.000000        0.708297         3    ;  uncertainty k = 0.060830
        13        14        15        16     9      180.000000        0.508271         4    ;  uncertainty k = 0.048508
        14        13        12        24     9        0.000000       -1.696945         1    ;  uncertainty k = 0.322549
        14        13        12        24     9      180.000000       -0.558862         2    ;  uncertainty k = 0.251251
        14        13        12        24     9        0.000000        0.938497         3    ;  uncertainty k = 0.123502
        14        13        12        24     9      180.000000       -0.349365         4    ;  uncertainty k = 0.056664
        14        13        12        25     9        0.000000       -1.696945         1    ;  uncertainty k = 0.322549
        14        13        12        25     9      180.000000       -0.558862         2    ;  uncertainty k = 0.251251
        14        13        12        25     9        0.000000        0.938497         3    ;  uncertainty k = 0.123502
        14        13        12        25     9      180.000000       -0.349365         4    ;  uncertainty k = 0.056664
        14        15        16        19     9        0.000000        2.771474         1    ;  uncertainty k = 0.664062
        14        15        16        19     9      180.000000        7.058894         2    ;  uncertainty k = 0.050152
        14        15        16        19     9        0.000000        0.255365         3    ;  uncertainty k = 0.197562
        14        15        16        19     9      180.000000        0.108218         4    ;  uncertainty k = 0.093440
        14        15        16        32     9        0.000000        0.355525         1    ;  uncertainty k = 0.512071
        14        15        16        32     9      180.000000        6.877661         2    ;  uncertainty k = 0.167219
        14        15        16        32     9        0.000000        0.288506         3    ;  uncertainty k = 0.286217
        14        15        16        32     9      180.000000        0.282278         4    ;  uncertainty k = 0.092117
        15        14        13        26     9        0.000000        0.331117         1    ;  uncertainty k = 0.505309
        15        14        13        26     9      180.000000       -2.250030         2    ;  uncertainty k = 0.328971
        15        14        13        26     9        0.000000        1.403936         3    ;  uncertainty k = 0.119419
        15        14        13        26     9      180.000000        0.033267         4    ;  uncertainty k = 0.059186
        15        14        13        27     9        0.000000        0.331117         1    ;  uncertainty k = 0.505309
        15        14        13        27     9      180.000000       -2.250030         2    ;  uncertainty k = 0.328971
        15        14        13        27     9        0.000000        1.403936         3    ;  uncertainty k = 0.119419
        15        14        13        27     9      180.000000        0.033267         4    ;  uncertainty k = 0.059186
        15        16        19        18     9        0.000000        0.075865         1    ;  uncertainty k = 0.261988
        15        16        19        18     9      180.000000       13.527382         2    ;  uncertainty k = 0.350832
        15        16        19        18     9        0.000000        1.302846         3    ;  uncertainty k = 0.248461
        15        16        19        18     9      180.000000        1.573148         4    ;  uncertainty k = 0.228848
        15        16        19        30     9        0.000000       -0.183858         1    ;  uncertainty k = 0.238167
        15        16        19        30     9      180.000000       10.497921         2    ;  uncertainty k = 0.651179
        15        16        19        30     9        0.000000        0.910160         3    ;  uncertainty k = 0.112594
        15        16        19        30     9      180.000000        1.240318         4    ;  uncertainty k = 0.494985
        15        16        32        31     9        0.000000        0.137851         1    ;  uncertainty k = 0.298693
        15        16        32        31     9      180.000000        9.678081         2    ;  uncertainty k = 0.190325
        15        16        32        31     9        0.000000        1.155273         3    ;  uncertainty k = 0.179629
        15        16        32        31     9      180.000000        1.490570         4    ;  uncertainty k = 0.231045
        15        16        32        33     9        0.000000        0.181836         1    ;  uncertainty k = 0.443367
        15        16        32        33     9      180.000000        9.773728         2    ;  uncertainty k = 0.205657
        15        16        32        33     9        0.000000        1.079929         3    ;  uncertainty k = 0.299362
        15        16        32        33     9      180.000000        1.468690         4    ;  uncertainty k = 0.362094
        16        15        14        28     9        0.000000        0.906563         1    ;  uncertainty k = 0.666674
        16        15        14        28     9      180.000000       -1.280777         2    ;  uncertainty k = 0.127342
        16        15        14        28     9        0.000000        0.652214         3    ;  uncertainty k = 0.091067
        16        15        14        28     9      180.000000        0.249136         4    ;  uncertainty k = 0.049477
        16        15        14        29     9        0.000000        0.906563         1    ;  uncertainty k = 0.666674
        16        15        14        29     9      180.000000       -1.280777         2    ;  uncertainty k = 0.127342
        16        15        14        29     9        0.000000        0.652214         3    ;  uncertainty k = 0.091067
        16        15        14        29     9      180.000000        0.249136         4    ;  uncertainty k = 0.049477
        16        19        18        17     9        0.000000       -0.223631         1    ;  uncertainty k = 0.257926
        16        19        18        17     9      180.000000       11.307064         2    ;  uncertainty k = 0.442432
        16        19        18        17     9        0.000000       -0.668154         3    ;  uncertainty k = 0.466698
        16        19        18        17     9      180.000000        0.877377         4    ;  uncertainty k = 0.187087
        16        19        18        41     9        0.000000       -0.081235         1    ;  uncertainty k = 0.183357
        16        19        18        41     9      180.000000        6.743736         2    ;  uncertainty k = 0.496825
        16        19        18        41     9        0.000000        1.288674         3    ;  uncertainty k = 0.275167
        16        19        18        41     9      180.000000        1.502547         4    ;  uncertainty k = 0.163671
        16        32        31        17     9        0.000000       -0.354612         1    ;  uncertainty k = 0.441142
        16        32        31        17     9      180.000000        6.627678         2    ;  uncertainty k = 0.497580
        16        32        31        17     9        0.000000        0.570883         3    ;  uncertainty k = 0.281133
        16        32        31        17     9      180.000000        1.486656         4    ;  uncertainty k = 0.229164
        16        32        31        36     9        0.000000       -0.333444         1    ;  uncertainty k = 0.417729
        16        32        31        36     9      180.000000        6.674444         2    ;  uncertainty k = 0.525750
        16        32        31        36     9        0.000000        0.560817         3    ;  uncertainty k = 0.275597
        16        32        31        36     9      180.000000        1.487408         4    ;  uncertainty k = 0.230347
        16        32        33        34     9        0.000000       -0.090356         1    ;  uncertainty k = 0.314128
        16        32        33        34     9      180.000000        9.233646         2    ;  uncertainty k = 0.235239
        16        32        33        34     9        0.000000        0.518619         3    ;  uncertainty k = 0.351539
        16        32        33        34     9      180.000000        1.357479         4    ;  uncertainty k = 0.109332
        16        32        33        37     9        0.000000       -0.151721         1    ;  uncertainty k = 0.278712
        16        32        33        37     9      180.000000        7.373248         2    ;  uncertainty k = 0.245707
        16        32        33        37     9        0.000000        1.290526         3    ;  uncertainty k = 0.176006
        16        32        33        37     9      180.000000        1.073830         4    ;  uncertainty k = 0.224703
        17        18        19        30     9        0.000000        0.180055         1    ;  uncertainty k = 0.478737
        17        18        19        30     9      180.000000        6.645621         2    ;  uncertainty k = 0.498611
        17        18        19        30     9        0.000000        1.364349         3    ;  uncertainty k = 0.345748
        17        18        19        30     9      180.000000        1.577532         4    ;  uncertainty k = 0.120520
        17        31        32        33     9        0.000000       -0.140076         1    ;  uncertainty k = 0.210171
        17        31        32        33     9      180.000000        6.924781         2    ;  uncertainty k = 0.423549
        17        31        32        33     9        0.000000        0.489571         3    ;  uncertainty k = 0.287980
        17        31        32        33     9      180.000000        1.460854         4    ;  uncertainty k = 0.218107
        17        31        36        35     9        0.000000       -0.176860         1    ;  uncertainty k = 0.439987
        17        31        36        35     9      180.000000        9.129414         2    ;  uncertainty k = 0.290008
        17        31        36        35     9        0.000000        0.364802         3    ;  uncertainty k = 0.321107
        17        31        36        35     9      180.000000        1.403096         4    ;  uncertainty k = 0.121695
        17        31        36        40     9        0.000000       -0.143798         1    ;  uncertainty k = 0.191240
        17        31        36        40     9      180.000000        6.459295         2    ;  uncertainty k = 0.452160
        17        31        36        40     9        0.000000        1.216640         3    ;  uncertainty k = 0.236253
        17        31        36        40     9      180.000000        1.159688         4    ;  uncertainty k = 0.126546
        18        17        31        32     9        0.000000       -0.094439         1    ;  uncertainty k = 0.389134
        18        17        31        32     9      180.000000       10.589316         2    ;  uncertainty k = 0.414391
        18        17        31        32     9        0.000000       -0.430098         3    ;  uncertainty k = 0.276932
        18        17        31        32     9      180.000000        1.070594         4    ;  uncertainty k = 0.171418
        18        17        31        36     9        0.000000       -0.276027         1    ;  uncertainty k = 0.565350
        18        17        31        36     9      180.000000        9.588580         2    ;  uncertainty k = 0.246596
        18        17        31        36     9        0.000000        0.308300         3    ;  uncertainty k = 0.228403
        18        17        31        36     9      180.000000        1.362272         4    ;  uncertainty k = 0.116932
        18        19        16        32     9        0.000000        0.083265         1    ;  uncertainty k = 0.257142
        18        19        16        32     9      180.000000       10.592161         2    ;  uncertainty k = 0.402398
        18        19        16        32     9        0.000000        0.424006         3    ;  uncertainty k = 0.354510
        18        19        16        32     9      180.000000        1.276309         4    ;  uncertainty k = 0.185277
        19        16        32        31     9        0.000000        0.341386         1    ;  uncertainty k = 0.588410
        19        16        32        31     9      180.000000        6.653230         2    ;  uncertainty k = 1.041475
        19        16        32        31     9        0.000000        0.291478         3    ;  uncertainty k = 0.164533
        19        16        32        31     9      180.000000        1.295455         4    ;  uncertainty k = 0.299561
        19        16        32        33     9        0.000000        0.182474         1    ;  uncertainty k = 0.489549
        19        16        32        33     9      180.000000        5.891527         2    ;  uncertainty k = 0.554824
        19        16        32        33     9        0.000000        0.582084         3    ;  uncertainty k = 0.517845
        19        16        32        33     9      180.000000        1.413616         4    ;  uncertainty k = 0.214657
        19        18        17        31     9        0.000000       -0.003248         1    ;  uncertainty k = 0.352724
        19        18        17        31     9      180.000000       16.271674         2    ;  uncertainty k = 0.152542
        19        18        17        31     9        0.000000       -0.538125         3    ;  uncertainty k = 0.324107
        19        18        17        31     9      180.000000        0.816524         4    ;  uncertainty k = 0.225104
        19        18        17        42     9        0.000000        0.270961         1    ;  uncertainty k = 0.164485
        19        18        17        42     9      180.000000        9.525203         2    ;  uncertainty k = 0.455420
        19        18        17        42     9        0.000000        1.463322         3    ;  uncertainty k = 0.357621
        19        18        17        42     9      180.000000        1.921880         4    ;  uncertainty k = 0.253112
        20         6         5        43     9        0.000000        0.401849         1    ;  uncertainty k = 0.233310
        20         6         5        43     9      180.000000        6.550727         2    ;  uncertainty k = 0.594786
        20         6         5        43     9        0.000000        1.080261         3    ;  uncertainty k = 0.494445
        20         6         5        43     9      180.000000        0.886016         4    ;  uncertainty k = 0.431370
        20         6         7        21     9        0.000000       -0.007367         1    ;  uncertainty k = 0.152809
        20         6         7        21     9      180.000000        7.497227         2    ;  uncertainty k = 0.326865
        20         6         7        21     9        0.000000       -0.291860         3    ;  uncertainty k = 0.244879
        20         6         7        21     9      180.000000        0.086992         4    ;  uncertainty k = 0.117795
        21         7         8        22     9        0.000000        0.015936         1    ;  uncertainty k = 0.202446
        21         7         8        22     9      180.000000        7.064149         2    ;  uncertainty k = 0.479945
        21         7         8        22     9        0.000000       -0.275122         3    ;  uncertainty k = 0.241157
        21         7         8        22     9      180.000000        0.076353         4    ;  uncertainty k = 0.133931
        22         8         9        23     9        0.000000        0.076707         1    ;  uncertainty k = 0.150759
        22         8         9        23     9      180.000000        7.832445         2    ;  uncertainty k = 0.241256
        22         8         9        23     9        0.000000       -0.235245         3    ;  uncertainty k = 0.251988
        22         8         9        23     9      180.000000        0.123493         4    ;  uncertainty k = 0.158213
        24        12        13        26     9        0.000000        0.864863         1    ;  uncertainty k = 0.192782
        24        12        13        26     9      180.000000       -0.650648         2    ;  uncertainty k = 0.212420
        24        12        13        26     9        0.000000        0.192343         3    ;  uncertainty k = 0.060741
        24        12        13        26     9      180.000000        0.010197         4    ;  uncertainty k = 0.043420
        24        12        13        27     9        0.000000        0.864863         1    ;  uncertainty k = 0.192782
        24        12        13        27     9      180.000000       -0.650648         2    ;  uncertainty k = 0.212420
        24        12        13        27     9        0.000000        0.192343         3    ;  uncertainty k = 0.060741
        24        12        13        27     9      180.000000        0.010197         4    ;  uncertainty k = 0.043420
        25        12        13        26     9        0.000000        0.864863         1    ;  uncertainty k = 0.192782
        25        12        13        26     9      180.000000       -0.650648         2    ;  uncertainty k = 0.212420
        25        12        13        26     9        0.000000        0.192343         3    ;  uncertainty k = 0.060741
        25        12        13        26     9      180.000000        0.010197         4    ;  uncertainty k = 0.043420
        25        12        13        27     9        0.000000        0.864863         1    ;  uncertainty k = 0.192782
        25        12        13        27     9      180.000000       -0.650648         2    ;  uncertainty k = 0.212420
        25        12        13        27     9        0.000000        0.192343         3    ;  uncertainty k = 0.060741
        25        12        13        27     9      180.000000        0.010197         4    ;  uncertainty k = 0.043420
        26        13        14        28     9        0.000000        0.451064         1    ;  uncertainty k = 0.144250
        26        13        14        28     9      180.000000       -0.422213         2    ;  uncertainty k = 0.149629
        26        13        14        28     9        0.000000        0.102251         3    ;  uncertainty k = 0.088436
        26        13        14        28     9      180.000000       -0.039109         4    ;  uncertainty k = 0.071367
        26        13        14        29     9        0.000000        0.451064         1    ;  uncertainty k = 0.144250
        26        13        14        29     9      180.000000       -0.422213         2    ;  uncertainty k = 0.149629
        26        13        14        29     9        0.000000        0.102251         3    ;  uncertainty k = 0.088436
        26        13        14        29     9      180.000000       -0.039109         4    ;  uncertainty k = 0.071367
        27        13        14        28     9        0.000000        0.451064         1    ;  uncertainty k = 0.144250
        27        13        14        28     9      180.000000       -0.422213         2    ;  uncertainty k = 0.149629
        27        13        14        28     9        0.000000        0.102251         3    ;  uncertainty k = 0.088436
        27        13        14        28     9      180.000000       -0.039109         4    ;  uncertainty k = 0.071367
        27        13        14        29     9        0.000000        0.451064         1    ;  uncertainty k = 0.144250
        27        13        14        29     9      180.000000       -0.422213         2    ;  uncertainty k = 0.149629
        27        13        14        29     9        0.000000        0.102251         3    ;  uncertainty k = 0.088436
        27        13        14        29     9      180.000000       -0.039109         4    ;  uncertainty k = 0.071367
        30        19        16        32     9        0.000000        0.247997         1    ;  uncertainty k = 0.252535
        30        19        16        32     9      180.000000        7.598394         2    ;  uncertainty k = 0.197360
        30        19        16        32     9        0.000000        1.587497         3    ;  uncertainty k = 0.472589
        30        19        16        32     9      180.000000        1.697153         4    ;  uncertainty k = 0.034873
        30        19        18        41     9        0.000000       -0.202491         1    ;  uncertainty k = 0.263152
        30        19        18        41     9      180.000000        6.607603         2    ;  uncertainty k = 0.535021
        30        19        18        41     9        0.000000       -0.212382         3    ;  uncertainty k = 0.280609
        30        19        18        41     9      180.000000        0.205403         4    ;  uncertainty k = 0.183563
        31        17        18        41     9        0.000000        0.219114         1    ;  uncertainty k = 0.262413
        31        17        18        41     9      180.000000        9.995548         2    ;  uncertainty k = 0.249834
        31        17        18        41     9        0.000000        1.549278         3    ;  uncertainty k = 0.333763
        31        17        18        41     9      180.000000        1.762117         4    ;  uncertainty k = 0.255251
        31        32        33        34     9        0.000000        0.017421         1    ;  uncertainty k = 0.354577
        31        32        33        34     9      180.000000       10.401126         2    ;  uncertainty k = 0.239738
        31        32        33        34     9        0.000000       -0.337474         3    ;  uncertainty k = 0.324756
        31        32        33        34     9      180.000000        1.001848         4    ;  uncertainty k = 0.234457
        31        32        33        37     9        0.000000       -0.119247         1    ;  uncertainty k = 0.467483
        31        32        33        37     9      180.000000        6.774582         2    ;  uncertainty k = 0.660618
        31        32        33        37     9        0.000000        1.318225         3    ;  uncertainty k = 0.239735
        31        32        33        37     9      180.000000        1.274600         4    ;  uncertainty k = 0.138275
        31        36        35        34     9        0.000000       -0.041155         1    ;  uncertainty k = 0.464722
        31        36        35        34     9      180.000000       16.646175         2    ;  uncertainty k = 0.236707
        31        36        35        34     9        0.000000       -0.451886         3    ;  uncertainty k = 0.331121
        31        36        35        34     9      180.000000        0.706936         4    ;  uncertainty k = 0.236869
        31        36        35        39     9        0.000000        0.212063         1    ;  uncertainty k = 0.206453
        31        36        35        39     9      180.000000       10.208086         2    ;  uncertainty k = 0.270697
        31        36        35        39     9        0.000000        1.619069         3    ;  uncertainty k = 0.303973
        31        36        35        39     9      180.000000        1.801727         4    ;  uncertainty k = 0.231078
        32        31        17        42     9        0.000000       -0.047226         1    ;  uncertainty k = 0.304893
        32        31        17        42     9      180.000000        6.147641         2    ;  uncertainty k = 0.655637
        32        31        17        42     9        0.000000        1.285026         3    ;  uncertainty k = 0.284887
        32        31        17        42     9      180.000000        1.285042         4    ;  uncertainty k = 0.099160
        32        31        36        35     9        0.000000        0.030027         1    ;  uncertainty k = 0.266893
        32        31        36        35     9      180.000000       10.240497         2    ;  uncertainty k = 0.364716
        32        31        36        35     9        0.000000       -0.375419         3    ;  uncertainty k = 0.254391
        32        31        36        35     9      180.000000        1.067516         4    ;  uncertainty k = 0.160126
        32        31        36        40     9        0.000000       -0.118337         1    ;  uncertainty k = 0.388302
        32        31        36        40     9      180.000000        6.096992         2    ;  uncertainty k = 0.671236
        32        31        36        40     9        0.000000        1.281084         3    ;  uncertainty k = 0.264897
        32        31        36        40     9      180.000000        1.285825         4    ;  uncertainty k = 0.112008
        32        33        34        35     9        0.000000       -0.046811         1    ;  uncertainty k = 0.562744
        32        33        34        35     9      180.000000       16.009862         2    ;  uncertainty k = 0.260043
        32        33        34        35     9        0.000000       -0.590240         3    ;  uncertainty k = 0.329068
        32        33        34        35     9      180.000000        0.800416         4    ;  uncertainty k = 0.311631
        32        33        34        38     9        0.000000        0.182302         1    ;  uncertainty k = 0.221574
        32        33        34        38     9      180.000000        9.897200         2    ;  uncertainty k = 0.196454
        32        33        34        38     9        0.000000        1.581225         3    ;  uncertainty k = 0.374994
        32        33        34        38     9      180.000000        1.839612         4    ;  uncertainty k = 0.190327
        33        32        31        36     9        0.000000       -0.137549         1    ;  uncertainty k = 0.185615
        33        32        31        36     9      180.000000        6.976041         2    ;  uncertainty k = 0.423269
        33        32        31        36     9        0.000000        0.501176         3    ;  uncertainty k = 0.289879
        33        32        31        36     9      180.000000        1.464276         4    ;  uncertainty k = 0.222078
        33        34        35        36     9        0.000000       -0.135675         1    ;  uncertainty k = 0.161364
        33        34        35        36     9      180.000000       11.686205         2    ;  uncertainty k = 0.423927
        33        34        35        36     9        0.000000       -0.816606         3    ;  uncertainty k = 0.653289
        33        34        35        36     9      180.000000        0.673547         4    ;  uncertainty k = 0.221863
        33        34        35        39     9        0.000000        0.060592         1    ;  uncertainty k = 0.308481
        33        34        35        39     9      180.000000        6.622007         2    ;  uncertainty k = 0.491298
        33        34        35        39     9        0.000000        1.374177         3    ;  uncertainty k = 0.252327
        33        34        35        39     9      180.000000        1.537427         4    ;  uncertainty k = 0.113577
        34        35        36        40     9        0.000000        0.116326         1    ;  uncertainty k = 0.107801
        34        35        36        40     9      180.000000        9.705393         2    ;  uncertainty k = 0.412681
        34        35        36        40     9        0.000000        1.421035         3    ;  uncertainty k = 0.333095
        34        35        36        40     9      180.000000        1.914352         4    ;  uncertainty k = 0.277013
        35        34        33        37     9        0.000000        0.157504         1    ;  uncertainty k = 0.067138
        35        34        33        37     9      180.000000        9.460098         2    ;  uncertainty k = 0.284065
        35        34        33        37     9        0.000000        1.418796         3    ;  uncertainty k = 0.326926
        35        34        33        37     9      180.000000        1.936608         4    ;  uncertainty k = 0.277272
        36        31        17        42     9        0.000000       -0.147492         1    ;  uncertainty k = 0.133406
        36        31        17        42     9      180.000000        6.640371         2    ;  uncertainty k = 0.536224
        36        31        17        42     9        0.000000        1.200128         3    ;  uncertainty k = 0.261787
        36        31        17        42     9      180.000000        1.130046         4    ;  uncertainty k = 0.124857
        36        35        34        38     9        0.000000        0.013599         1    ;  uncertainty k = 0.388907
        36        35        34        38     9      180.000000        6.642468         2    ;  uncertainty k = 0.612274
        36        35        34        38     9        0.000000        1.342414         3    ;  uncertainty k = 0.269419
        36        35        34        38     9      180.000000        1.503843         4    ;  uncertainty k = 0.131189
        37        33        34        38     9        0.000000       -0.053072         1    ;  uncertainty k = 0.319564
        37        33        34        38     9      180.000000        8.718889         2    ;  uncertainty k = 0.426647
        37        33        34        38     9        0.000000       -0.292985         3    ;  uncertainty k = 0.284574
        37        33        34        38     9      180.000000        0.193140         4    ;  uncertainty k = 0.203840
        38        34        35        39     9        0.000000       -0.085301         1    ;  uncertainty k = 0.203880
        38        34        35        39     9      180.000000        6.764740         2    ;  uncertainty k = 0.514631
        38        34        35        39     9        0.000000       -0.229634         3    ;  uncertainty k = 0.303231
        38        34        35        39     9      180.000000        0.117028         4    ;  uncertainty k = 0.134173
        39        35        36        40     9        0.000000        0.042031         1    ;  uncertainty k = 0.219139
        39        35        36        40     9      180.000000        8.809242         2    ;  uncertainty k = 0.369501
        39        35        36        40     9        0.000000       -0.271929         3    ;  uncertainty k = 0.243967
        39        35        36        40     9      180.000000        0.194961         4    ;  uncertainty k = 0.209800
        41        18        17        42     9        0.000000        0.109781         1    ;  uncertainty k = 0.202624
        41        18        17        42     9      180.000000        8.516002         2    ;  uncertainty k = 0.380812
        41        18        17        42     9        0.000000       -0.263391         3    ;  uncertainty k = 0.284889
        41        18        17        42     9      180.000000        0.180741         4    ;  uncertainty k = 0.204186

[ dihedrals ] ; impropers
;       ai        aj        ak        al funct           phase               k        pn
         2         1         3         4     4      180.000000       64.032131         2    ;  uncertainty k = 0.071870
         2         3         4         1     4      180.000000       64.032131         2    ;  uncertainty k = 0.071870
         2         4         1         3     4      180.000000       64.032131         2    ;  uncertainty k = 0.071870
         4         2        11        43     4      180.000000        5.519645         2    ;  uncertainty k = 0.615031
         4        11        43         2     4      180.000000        5.519645         2    ;  uncertainty k = 0.615031
         4        43         2        11     4      180.000000        5.519645         2    ;  uncertainty k = 0.615031
         5         6        10        43     4      180.000000        0.032612         2    ;  uncertainty k = 0.072924
         5        10        43         6     4      180.000000        0.032612         2    ;  uncertainty k = 0.072924
         5        43         6        10     4      180.000000        0.032612         2    ;  uncertainty k = 0.072924
         6         5         7        20     4      180.000000        2.606690         2    ;  uncertainty k = 0.123001
         6         7        20         5     4      180.000000        2.606690         2    ;  uncertainty k = 0.123001
         6        20         5         7     4      180.000000        2.606690         2    ;  uncertainty k = 0.123001
         7         6         8        21     4      180.000000        4.093023         2    ;  uncertainty k = 0.174026
         7         8        21         6     4      180.000000        4.093023         2    ;  uncertainty k = 0.174026
         7        21         6         8     4      180.000000        4.093023         2    ;  uncertainty k = 0.174026
         8         7         9        22     4      180.000000        3.440878         2    ;  uncertainty k = 0.134015
         8         9        22         7     4      180.000000        3.440878         2    ;  uncertainty k = 0.134015
         8        22         7         9     4      180.000000        3.440878         2    ;  uncertainty k = 0.134015
         9         8        10        23     4      180.000000        4.550949         2    ;  uncertainty k = 0.083100
         9        10        23         8     4      180.000000        4.550949         2    ;  uncertainty k = 0.083100
         9        23         8        10     4      180.000000        4.550949         2    ;  uncertainty k = 0.083100
        11         4        10        12     4      180.000000        3.723544         2    ;  uncertainty k = 0.346263
        11        10        12         4     4      180.000000        3.723544         2    ;  uncertainty k = 0.346263
        11        12         4        10     4      180.000000        3.723544         2    ;  uncertainty k = 0.346263
        16        15        19        32     4      180.000000       18.386572         2    ;  uncertainty k = 0.037406
        16        19        32        15     4      180.000000       18.386572         2    ;  uncertainty k = 0.037406
        16        32        15        19     4      180.000000       18.386572         2    ;  uncertainty k = 0.037406
        17        18        31        42     4      180.000000        3.202598         2    ;  uncertainty k = 0.111123
        17        31        42        18     4      180.000000        3.202598         2    ;  uncertainty k = 0.111123
        17        42        18        31     4      180.000000        3.202598         2    ;  uncertainty k = 0.111123
        18        17        19        41     4      180.000000        4.517471         2    ;  uncertainty k = 0.112932
        18        19        41        17     4      180.000000        4.517471         2    ;  uncertainty k = 0.112932
        18        41        17        19     4      180.000000        4.517471         2    ;  uncertainty k = 0.112932
        19        16        18        30     4      180.000000        2.124676         2    ;  uncertainty k = 0.359781
        19        18        30        16     4      180.000000        2.124676         2    ;  uncertainty k = 0.359781
        19        30        16        18     4      180.000000        2.124676         2    ;  uncertainty k = 0.359781
        31        17        32        36     4      180.000000        8.794758         2    ;  uncertainty k = 0.135372
        31        32        36        17     4      180.000000        8.794758         2    ;  uncertainty k = 0.135372
        31        36        17        32     4      180.000000        8.794758         2    ;  uncertainty k = 0.135372
        32        16        31        33     4      180.000000        6.447873         2    ;  uncertainty k = 0.208436
        32        31        33        16     4      180.000000        6.447873         2    ;  uncertainty k = 0.208436
        32        33        16        31     4      180.000000        6.447873         2    ;  uncertainty k = 0.208436
        33        32        34        37     4      180.000000        4.159024         2    ;  uncertainty k = 0.064670
        33        34        37        32     4      180.000000        4.159024         2    ;  uncertainty k = 0.064670
        33        37        32        34     4      180.000000        4.159024         2    ;  uncertainty k = 0.064670
        34        33        35        38     4      180.000000        4.123011         2    ;  uncertainty k = 0.085110
        34        35        38        33     4      180.000000        4.123011         2    ;  uncertainty k = 0.085110
        34        38        33        35     4      180.000000        4.123011         2    ;  uncertainty k = 0.085110
        35        34        36        39     4      180.000000        4.525513         2    ;  uncertainty k = 0.072532
        35        36        39        34     4      180.000000        4.525513         2    ;  uncertainty k = 0.072532
        35        39        34        36     4      180.000000        4.525513         2    ;  uncertainty k = 0.072532
        36        31        35        40     4      180.000000        4.079320         2    ;  uncertainty k = 0.082584
        36        35        40        31     4      180.000000        4.079320         2    ;  uncertainty k = 0.082584
        36        40        31        35     4      180.000000        4.079320         2    ;  uncertainty k = 0.082584

[ pairs ]
;       ai        aj funct
         1        11     1
         1        43     1
         2         5     1
         2        10     1
         2        12     1
         3        11     1
         3        43     1
         4         6     1
         4         9     1
         4        13     1
         4        24     1
         4        25     1
         5         8     1
         5        12     1
         5        21     1
         5        23     1
         6         9     1
         6        11     1
         6        22     1
         7        10     1
         7        23     1
         7        43     1
         8        11     1
         8        20     1
         9        12     1
         9        21     1
         9        43     1
        10        13     1
        10        20     1
        10        22     1
        10        24     1
        10        25     1
        11        14     1
        11        23     1
        11        26     1
        11        27     1
        12        15     1
        12        28     1
        12        29     1
        12        43     1
        13        16     1
        14        19     1
        14        24     1
        14        25     1
        14        32     1
        15        18     1
        15        26     1
        15        27     1
        15        30     1
        15        31     1
        15        33     1
        16        17     1
        16        28     1
        16        29     1
        16        34     1
        16        36     1
        16        37     1
        16        41     1
        17        30     1
        17        33     1
        17        35     1
        17        40     1
        18        32     1
        18        36     1
        19        31     1
        19        33     1
        19        42     1
        20        21     1
        20        43     1
        21        22     1
        22        23     1
        24        26     1
        24        27     1
        25        26     1
        25        27     1
        26        28     1
        26        29     1
        27        28     1
        27        29     1
        30        32     1
        30        41     1
        31        34     1
        31        37     1
        31        39     1
        31        41     1
        32        35     1
        32        38     1
        32        40     1
        32        42     1
        33        36     1
        33        39     1
        34        40     1
        35        37     1
        36        38     1
        36        42     1
        37        38     1
        38        39     1
        39        40     1
        41        42     1
