; ITP file created by ByteFF-joint-25, 2026-02-17 09:18:50.894204

[ atomtypes ]
;name           bonded.type        at.num        mass        charge   ptype           sigma         epsilon
 o0bf                                   8      0.0000       0.00000       A     3.04807e-01     6.12065e-01    ;  uncertainty sigma = 0.000018, epsilon = 0.000616
 c1bf                                   6      0.0000       0.00000       A     3.31436e-01     4.13701e-01    ;  uncertainty sigma = 0.000034, epsilon = 0.002275
 o2bf                                   8      0.0000       0.00000       A     3.04807e-01     6.12065e-01    ;  uncertainty sigma = 0.000018, epsilon = 0.000616
 c3bf                                   6      0.0000       0.00000       A     3.31527e-01     4.12548e-01    ;  uncertainty sigma = 0.000053, epsilon = 0.002675
 c4bf                                   6      0.0000       0.00000       A     3.31556e-01     4.13605e-01    ;  uncertainty sigma = 0.000009, epsilon = 0.001072
 c5bf                                   6      0.0000       0.00000       A     3.31528e-01     4.13216e-01    ;  uncertainty sigma = 0.000006, epsilon = 0.000735
 c6bf                                   6      0.0000       0.00000       A     3.31524e-01     4.13323e-01    ;  uncertainty sigma = 0.000005, epsilon = 0.000518
 c7bf                                   6      0.0000       0.00000       A     3.31524e-01     4.13320e-01    ;  uncertainty sigma = 0.000004, epsilon = 0.000654
 c8bf                                   6      0.0000       0.00000       A     3.31525e-01     4.13140e-01    ;  uncertainty sigma = 0.000007, epsilon = 0.000627
 c9bf                                   6      0.0000       0.00000       A     3.31543e-01     4.12994e-01    ;  uncertainty sigma = 0.000008, epsilon = 0.001189
 c10bf                                  6      0.0000       0.00000       A     3.31576e-01     4.13309e-01    ;  uncertainty sigma = 0.000008, epsilon = 0.001192
 c11bf                                  6      0.0000       0.00000       A     3.39773e-01     4.50718e-01    ;  uncertainty sigma = 0.000020, epsilon = 0.000757
 c12bf                                  6      0.0000       0.00000       A     3.39755e-01     4.50608e-01    ;  uncertainty sigma = 0.000006, epsilon = 0.000953
 c13bf                                  6      0.0000       0.00000       A     3.39783e-01     4.50554e-01    ;  uncertainty sigma = 0.000007, epsilon = 0.000824
 o14bf                                  8      0.0000       0.00000       A     3.15597e-01     3.03192e-01    ;  uncertainty sigma = 0.000014, epsilon = 0.001155
 c15bf                                  6      0.0000       0.00000       A     3.31522e-01     4.13282e-01    ;  uncertainty sigma = 0.000008, epsilon = 0.000648
 c16bf                                  6      0.0000       0.00000       A     3.31522e-01     4.13044e-01    ;  uncertainty sigma = 0.000008, epsilon = 0.000676
 c17bf                                  6      0.0000       0.00000       A     3.31523e-01     4.13298e-01    ;  uncertainty sigma = 0.000004, epsilon = 0.000741
 c18bf                                  6      0.0000       0.00000       A     3.31520e-01     4.13344e-01    ;  uncertainty sigma = 0.000003, epsilon = 0.000603
 c19bf                                  6      0.0000       0.00000       A     3.31522e-01     4.13428e-01    ;  uncertainty sigma = 0.000004, epsilon = 0.000561
 c20bf                                  6      0.0000       0.00000       A     3.31508e-01     4.13122e-01    ;  uncertainty sigma = 0.000006, epsilon = 0.000591
 h21bf                                  1      0.0000       0.00000       A     2.62573e-01     6.69665e-02    ;  uncertainty sigma = 0.000008, epsilon = 0.000474
 h22bf                                  1      0.0000       0.00000       A     2.62567e-01     6.69871e-02    ;  uncertainty sigma = 0.000012, epsilon = 0.000553
 h23bf                                  1      0.0000       0.00000       A     2.62563e-01     6.69792e-02    ;  uncertainty sigma = 0.000011, epsilon = 0.000555
 h24bf                                  1      0.0000       0.00000       A     2.62566e-01     6.69359e-02    ;  uncertainty sigma = 0.000011, epsilon = 0.000323
 h25bf                                  1      0.0000       0.00000       A     2.60038e-01     8.64862e-02    ;  uncertainty sigma = 0.000012, epsilon = 0.000717
 h26bf                                  1      0.0000       0.00000       A     2.60038e-01     8.64862e-02    ;  uncertainty sigma = 0.000012, epsilon = 0.000717
 h27bf                                  1      0.0000       0.00000       A     2.60032e-01     8.63750e-02    ;  uncertainty sigma = 0.000011, epsilon = 0.000877
 h28bf                                  1      0.0000       0.00000       A     2.60032e-01     8.63750e-02    ;  uncertainty sigma = 0.000011, epsilon = 0.000877
 h29bf                                  1      0.0000       0.00000       A     2.42190e-01     8.69771e-02    ;  uncertainty sigma = 0.000031, epsilon = 0.000462
 h30bf                                  1      0.0000       0.00000       A     2.42190e-01     8.69771e-02    ;  uncertainty sigma = 0.000031, epsilon = 0.000462
 h31bf                                  1      0.0000       0.00000       A     2.62559e-01     6.70763e-02    ;  uncertainty sigma = 0.000006, epsilon = 0.000396
 n32bf                                  7      0.0000       0.00000       A     3.20754e-01     8.52244e-01    ;  uncertainty sigma = 0.000047, epsilon = 0.002451
 h33bf                                  1      0.0000       0.00000       A     1.10620e-01     4.09732e-02    ;  uncertainty sigma = 0.000138, epsilon = 0.001729
 h34bf                                  1      0.0000       0.00000       A     2.62562e-01     6.69705e-02    ;  uncertainty sigma = 0.000010, epsilon = 0.000501
 h35bf                                  1      0.0000       0.00000       A     2.62558e-01     6.70323e-02    ;  uncertainty sigma = 0.000010, epsilon = 0.000442
 h36bf                                  1      0.0000       0.00000       A     2.62566e-01     6.70672e-02    ;  uncertainty sigma = 0.000008, epsilon = 0.000388
 c37bf                                  6      0.0000       0.00000       A     3.39774e-01     4.50847e-01    ;  uncertainty sigma = 0.000002, epsilon = 0.000538
 h38bf                                  1      0.0000       0.00000       A     2.60028e-01     8.67157e-02    ;  uncertainty sigma = 0.000005, epsilon = 0.000425
 h39bf                                  1      0.0000       0.00000       A     2.60028e-01     8.67157e-02    ;  uncertainty sigma = 0.000005, epsilon = 0.000425
 h40bf                                  1      0.0000       0.00000       A     2.60028e-01     8.67156e-02    ;  uncertainty sigma = 0.000005, epsilon = 0.000425

[ moleculetype ]
;name             nrexcl
 MOL                   3

[ atoms ]
;       nr            type      resi   res      atom      cgnr      charge          mass ; qtot
         1            o0bf         1   UNL        o0         1    -0.82702       15.9990 ; qtot   -0.827
         2            c1bf         1   UNL        c1         2     0.92126       12.0110 ; qtot    0.094
         3            o2bf         1   UNL        o2         3    -0.82702       15.9990 ; qtot   -0.733
         4            c3bf         1   UNL        c3         4    -0.10822       12.0110 ; qtot   -0.841
         5            c4bf         1   UNL        c4         5    -0.06744       12.0110 ; qtot   -0.908
         6            c5bf         1   UNL        c5         6    -0.16684       12.0110 ; qtot   -1.075
         7            c6bf         1   UNL        c6         7    -0.11194       12.0110 ; qtot   -1.187
         8            c7bf         1   UNL        c7         8    -0.15971       12.0110 ; qtot   -1.347
         9            c8bf         1   UNL        c8         9    -0.09713       12.0110 ; qtot   -1.444
        10            c9bf         1   UNL        c9        10    -0.10135       12.0110 ; qtot   -1.545
        11           c10bf         1   UNL       c10        11    -0.18594       12.0110 ; qtot   -1.731
        12           c11bf         1   UNL       c11        12    -0.00834       12.0110 ; qtot   -1.740
        13           c12bf         1   UNL       c12        13    -0.09576       12.0110 ; qtot   -1.835
        14           c13bf         1   UNL       c13        14     0.13629       12.0110 ; qtot   -1.699
        15           o14bf         1   UNL       o14        15    -0.34062       15.9990 ; qtot   -2.040
        16           c15bf         1   UNL       c15        16     0.12659       12.0110 ; qtot   -1.913
        17           c16bf         1   UNL       c16        17    -0.10252       12.0110 ; qtot   -2.016
        18           c17bf         1   UNL       c17        18    -0.11070       12.0110 ; qtot   -2.126
        19           c18bf         1   UNL       c18        19    -0.14331       12.0110 ; qtot   -2.270
        20           c19bf         1   UNL       c19        20    -0.10662       12.0110 ; qtot   -2.376
        21           c20bf         1   UNL       c20        21    -0.19870       12.0110 ; qtot   -2.575
        22           h21bf         1   UNL       h21        22     0.13216        1.0080 ; qtot   -2.443
        23           h22bf         1   UNL       h22        23     0.12950        1.0080 ; qtot   -2.313
        24           h23bf         1   UNL       h23        24     0.12900        1.0080 ; qtot   -2.184
        25           h24bf         1   UNL       h24        25     0.13303        1.0080 ; qtot   -2.051
        26           h25bf         1   UNL       h25        26     0.04354        1.0080 ; qtot   -2.008
        27           h26bf         1   UNL       h26        27     0.04354        1.0080 ; qtot   -1.964
        28           h27bf         1   UNL       h27        28     0.05420        1.0080 ; qtot   -1.910
        29           h28bf         1   UNL       h28        29     0.05420        1.0080 ; qtot   -1.856
        30           h29bf         1   UNL       h29        30     0.04547        1.0080 ; qtot   -1.810
        31           h30bf         1   UNL       h30        31     0.04547        1.0080 ; qtot   -1.765
        32           h31bf         1   UNL       h31        32     0.13786        1.0080 ; qtot   -1.627
        33           n32bf         1   UNL       n32        33    -0.18585       14.0070 ; qtot   -1.813
        34           h33bf         1   UNL       h33        34     0.31616        1.0080 ; qtot   -1.497
        35           h34bf         1   UNL       h34        35     0.13529        1.0080 ; qtot   -1.361
        36           h35bf         1   UNL       h35        36     0.13292        1.0080 ; qtot   -1.229
        37           h36bf         1   UNL       h36        37     0.13223        1.0080 ; qtot   -1.096
        38           c37bf         1   UNL       c37        38    -0.04206       12.0110 ; qtot   -1.138
        39           h38bf         1   UNL       h38        39     0.04612        1.0080 ; qtot   -1.092
        40           h39bf         1   UNL       h39        40     0.04612        1.0080 ; qtot   -1.046
        41           h40bf         1   UNL       h40        41     0.04614        1.0080 ; qtot   -1.000

[ bonds ]
;       ai        aj funct               r               k
         1         2     1        0.126489   553283.027930    ;  uncertainty r = 0.000115, k = 9.491850
         2         3     1        0.126489   553283.027930    ;  uncertainty r = 0.000115, k = 9.491850
         2         4     1        0.152875   178456.869971    ;  uncertainty r = 0.000109, k = 53.157083
         4        11     1        0.138845   388969.962598    ;  uncertainty r = 0.000116, k = 35.597318
         4        33     1        0.138411   296910.956104    ;  uncertainty r = 0.000116, k = 16.653525
         5         6     1        0.139909   370024.083301    ;  uncertainty r = 0.000068, k = 3.273406
         5        10     1        0.143429   333658.830957    ;  uncertainty r = 0.000101, k = 12.925109
         5        33     1        0.137190   323439.748047    ;  uncertainty r = 0.000109, k = 15.720627
         6         7     1        0.139204   373030.439502    ;  uncertainty r = 0.000031, k = 1.532197
         6        22     1        0.108908   337826.589355    ;  uncertainty r = 0.000007, k = 0.915296
         7         8     1        0.141248   347880.881299    ;  uncertainty r = 0.000048, k = 2.727051
         7        23     1        0.108787   335143.149902    ;  uncertainty r = 0.000015, k = 1.282440
         8         9     1        0.139156   366705.382715    ;  uncertainty r = 0.000016, k = 3.013067
         8        24     1        0.108813   335291.367285    ;  uncertainty r = 0.000018, k = 0.841713
         9        10     1        0.140712   363994.363184    ;  uncertainty r = 0.000090, k = 9.392181
         9        25     1        0.108826   337192.119873    ;  uncertainty r = 0.000025, k = 2.686180
        10        11     1        0.143927   250387.756689    ;  uncertainty r = 0.000100, k = 20.205925
        11        12     1        0.150056   234448.846484    ;  uncertainty r = 0.000153, k = 11.938075
        12        13     1        0.153885   206360.273438    ;  uncertainty r = 0.000103, k = 7.147654
        12        26     1        0.109683   309037.278027    ;  uncertainty r = 0.000026, k = 1.364430
        12        27     1        0.109683   309037.278027    ;  uncertainty r = 0.000026, k = 1.364430
        13        14     1        0.152148   209963.738330    ;  uncertainty r = 0.000037, k = 3.156537
        13        28     1        0.109664   307643.385986    ;  uncertainty r = 0.000028, k = 1.424205
        13        29     1        0.109664   307643.385986    ;  uncertainty r = 0.000028, k = 1.424205
        14        15     1        0.142628   230510.768848    ;  uncertainty r = 0.000052, k = 8.325727
        14        30     1        0.109746   308188.118066    ;  uncertainty r = 0.000035, k = 1.332550
        14        31     1        0.109746   308188.118066    ;  uncertainty r = 0.000035, k = 1.332550
        15        16     1        0.137265   327847.708496    ;  uncertainty r = 0.000020, k = 4.833576
        16        17     1        0.140857   337380.175146    ;  uncertainty r = 0.000086, k = 10.444520
        16        21     1        0.139819   351253.005518    ;  uncertainty r = 0.000030, k = 1.666199
        17        18     1        0.139870   357161.807422    ;  uncertainty r = 0.000036, k = 2.179001
        17        38     1        0.150843   235971.777539    ;  uncertainty r = 0.000022, k = 3.020361
        18        19     1        0.139809   370033.072363    ;  uncertainty r = 0.000023, k = 2.546729
        18        37     1        0.108828   334189.798535    ;  uncertainty r = 0.000017, k = 1.155464
        19        20     1        0.139501   374295.982031    ;  uncertainty r = 0.000006, k = 1.462734
        19        36     1        0.108797   334332.448828    ;  uncertainty r = 0.000008, k = 1.090079
        20        21     1        0.139648   371930.019922    ;  uncertainty r = 0.000029, k = 2.553102
        20        35     1        0.108779   333347.099463    ;  uncertainty r = 0.000012, k = 0.897855
        21        32     1        0.108753   338236.102441    ;  uncertainty r = 0.000024, k = 0.965622
        33        34     1        0.101525   411016.174658    ;  uncertainty r = 0.000192, k = 19.532863
        38        39     1        0.109481   309252.479248    ;  uncertainty r = 0.000015, k = 0.967464
        38        40     1        0.109481   309252.479248    ;  uncertainty r = 0.000015, k = 0.967464
        38        41     1        0.109481   309252.479248    ;  uncertainty r = 0.000015, k = 0.967464

[ angles ]
;       ai        aj        ak funct           theta             cth
         1         2         3     1      131.490799      799.912859    ;  uncertainty theta = 0.007122, k = 0.161146
         1         2         4     1      115.643898      409.958900    ;  uncertainty theta = 0.009941, k = 0.278481
         2         4        11     1      129.691666      294.711298    ;  uncertainty theta = 0.010379, k = 0.154712
         2         4        33     1      117.855209      349.663901    ;  uncertainty theta = 0.005899, k = 0.287676
         3         2         4     1      115.643898      409.958900    ;  uncertainty theta = 0.009941, k = 0.278481
         4        11        10     1      107.813744      761.507600    ;  uncertainty theta = 0.003114, k = 0.233379
         4        11        12     1      125.834373      348.251252    ;  uncertainty theta = 0.008524, k = 0.203092
         4        33         5     1      106.686867      870.555270    ;  uncertainty theta = 0.004731, k = 0.157374
         4        33        34     1      118.324951      293.095597    ;  uncertainty theta = 0.017038, k = 0.289786
         5         6         7     1      117.288712      532.685108    ;  uncertainty theta = 0.002732, k = 0.138286
         5         6        22     1      122.416870      294.044173    ;  uncertainty theta = 0.002439, k = 0.026234
         5        10         9     1      116.726723      409.397211    ;  uncertainty theta = 0.004491, k = 0.081187
         5        10        11     1      107.622475      685.489179    ;  uncertainty theta = 0.004472, k = 0.334622
         5        33        34     1      119.518555      279.940091    ;  uncertainty theta = 0.027559, k = 0.287070
         6         5        10     1      120.341995      378.416324    ;  uncertainty theta = 0.003053, k = 0.079333
         6         5        33     1      130.070251      406.372596    ;  uncertainty theta = 0.003047, k = 0.189160
         6         7         8     1      122.110641      522.210041    ;  uncertainty theta = 0.001703, k = 0.050914
         6         7        23     1      119.408218      283.874626    ;  uncertainty theta = 0.001884, k = 0.037783
         7         6        22     1      121.416527      285.300171    ;  uncertainty theta = 0.001028, k = 0.037490
         7         8         9     1      121.942673      521.393620    ;  uncertainty theta = 0.001697, k = 0.032913
         7         8        24     1      119.651100      288.114903    ;  uncertainty theta = 0.001746, k = 0.035440
         8         7        23     1      119.801102      287.497128    ;  uncertainty theta = 0.001585, k = 0.046675
         8         9        10     1      119.165207      547.786701    ;  uncertainty theta = 0.003326, k = 0.038562
         8         9        25     1      120.508347      285.672566    ;  uncertainty theta = 0.001453, k = 0.031601
         9         8        24     1      119.815613      287.517590    ;  uncertainty theta = 0.001890, k = 0.024499
         9        10        11     1      132.186111      358.431813    ;  uncertainty theta = 0.003911, k = 0.091946
        10         5        33     1      107.610229      677.054783    ;  uncertainty theta = 0.004088, k = 0.326769
        10         9        25     1      121.598999      289.048093    ;  uncertainty theta = 0.003949, k = 0.074173
        10        11        12     1      125.270729      364.592289    ;  uncertainty theta = 0.008077, k = 0.215292
        11         4        33     1      110.824791      694.108082    ;  uncertainty theta = 0.003478, k = 0.245195
        11        12        13     1      111.535912      545.701979    ;  uncertainty theta = 0.004629, k = 0.049601
        11        12        26     1      107.023758      409.119878    ;  uncertainty theta = 0.002156, k = 0.076181
        11        12        27     1      107.023758      409.119878    ;  uncertainty theta = 0.002156, k = 0.076181
        12        13        14     1      109.851822      549.423630    ;  uncertainty theta = 0.002518, k = 0.053793
        12        13        28     1      107.780540      395.334819    ;  uncertainty theta = 0.002719, k = 0.061247
        12        13        29     1      107.780540      395.334819    ;  uncertainty theta = 0.002719, k = 0.061247
        13        12        26     1      106.925919      401.105057    ;  uncertainty theta = 0.002530, k = 0.096026
        13        12        27     1      106.925919      401.105057    ;  uncertainty theta = 0.002530, k = 0.096026
        13        14        15     1      109.097572      591.993417    ;  uncertainty theta = 0.001774, k = 0.047087
        13        14        30     1      109.881058      407.347284    ;  uncertainty theta = 0.001540, k = 0.051525
        13        14        31     1      109.881058      407.347284    ;  uncertainty theta = 0.001540, k = 0.051525
        14        13        28     1      106.738731      398.079420    ;  uncertainty theta = 0.001621, k = 0.021291
        14        13        29     1      106.738731      398.079420    ;  uncertainty theta = 0.001621, k = 0.021291
        14        15        16     1      111.272804      498.944554    ;  uncertainty theta = 0.001650, k = 0.042941
        15        14        30     1      107.038620      433.223781    ;  uncertainty theta = 0.001747, k = 0.026338
        15        14        31     1      107.038620      433.223781    ;  uncertainty theta = 0.001747, k = 0.026338
        15        16        17     1      117.115746      441.795887    ;  uncertainty theta = 0.003438, k = 0.160547
        15        16        21     1      120.103539      430.297229    ;  uncertainty theta = 0.003071, k = 0.153251
        16        17        18     1      119.438309      461.860585    ;  uncertainty theta = 0.004587, k = 0.166308
        16        17        38     1      118.867310      401.574046    ;  uncertainty theta = 0.001191, k = 0.137319
        16        21        20     1      120.020432      517.946461    ;  uncertainty theta = 0.002689, k = 0.078896
        16        21        32     1      118.528992      265.534831    ;  uncertainty theta = 0.002048, k = 0.055038
        17        16        21     1      123.854782      389.935827    ;  uncertainty theta = 0.004543, k = 0.092324
        17        18        19     1      122.271301      526.179562    ;  uncertainty theta = 0.002158, k = 0.046747
        17        18        37     1      117.626808      275.524055    ;  uncertainty theta = 0.002108, k = 0.066825
        17        38        39     1      109.807594      399.790151    ;  uncertainty theta = 0.001120, k = 0.022184
        17        38        40     1      109.807594      399.790151    ;  uncertainty theta = 0.001120, k = 0.022184
        17        38        41     1      109.807594      399.790151    ;  uncertainty theta = 0.001120, k = 0.022183
        18        17        38     1      121.303604      426.542571    ;  uncertainty theta = 0.001813, k = 0.131719
        18        19        20     1      118.361984      521.822037    ;  uncertainty theta = 0.000966, k = 0.018977
        18        19        36     1      120.495682      288.242301    ;  uncertainty theta = 0.001266, k = 0.027600
        19        18        37     1      120.163635      288.038579    ;  uncertainty theta = 0.000671, k = 0.037642
        19        20        21     1      119.218666      515.030283    ;  uncertainty theta = 0.001097, k = 0.029806
        19        20        35     1      120.923141      287.138747    ;  uncertainty theta = 0.000721, k = 0.023150
        20        19        36     1      120.725601      288.229629    ;  uncertainty theta = 0.001214, k = 0.026283
        20        21        32     1      120.726524      286.473442    ;  uncertainty theta = 0.001887, k = 0.013022
        21        20        35     1      120.269028      283.141455    ;  uncertainty theta = 0.001186, k = 0.057436
        26        12        27     1      104.532616      313.868120    ;  uncertainty theta = 0.003533, k = 0.064476
        28        13        29     1      105.092697      317.561425    ;  uncertainty theta = 0.002566, k = 0.027591
        30        14        31     1      107.503983      332.057469    ;  uncertainty theta = 0.002049, k = 0.038583
        39        38        40     1      106.743629      315.260499    ;  uncertainty theta = 0.000873, k = 0.028724
        39        38        41     1      106.743629      315.260531    ;  uncertainty theta = 0.000873, k = 0.028724
        40        38        41     1      106.743629      315.260531    ;  uncertainty theta = 0.000873, k = 0.028724

[ dihedrals ] ; propers for gromacs 4.5 or higher, use funct 9
;       ai        aj        ak        al funct           phase               k        pn
         1         2         4        11     9        0.000000       -1.372021         1    ;  uncertainty k = 1.492730
         1         2         4        11     9      180.000000        2.371115         2    ;  uncertainty k = 0.300482
         1         2         4        11     9        0.000000        0.292116         3    ;  uncertainty k = 0.252771
         1         2         4        11     9      180.000000        0.155159         4    ;  uncertainty k = 0.093475
         1         2         4        33     9        0.000000        1.707823         1    ;  uncertainty k = 0.704832
         1         2         4        33     9      180.000000        3.884647         2    ;  uncertainty k = 0.565808
         1         2         4        33     9        0.000000        0.749129         3    ;  uncertainty k = 0.264976
         1         2         4        33     9      180.000000        0.174104         4    ;  uncertainty k = 0.159693
         2         4        11        10     9        0.000000        0.658377         1    ;  uncertainty k = 1.317360
         2         4        11        10     9      180.000000       11.269219         2    ;  uncertainty k = 0.349150
         2         4        11        10     9        0.000000        2.080317         3    ;  uncertainty k = 0.240036
         2         4        11        10     9      180.000000        0.676709         4    ;  uncertainty k = 0.169861
         2         4        11        12     9        0.000000        0.204708         1    ;  uncertainty k = 0.747460
         2         4        11        12     9      180.000000        9.233953         2    ;  uncertainty k = 0.447590
         2         4        11        12     9        0.000000        1.675443         3    ;  uncertainty k = 0.293006
         2         4        11        12     9      180.000000        0.426607         4    ;  uncertainty k = 0.323880
         2         4        33         5     9        0.000000       -0.464998         1    ;  uncertainty k = 2.171907
         2         4        33         5     9      180.000000        6.451220         2    ;  uncertainty k = 1.089854
         2         4        33         5     9        0.000000        1.609707         3    ;  uncertainty k = 0.687909
         2         4        33         5     9      180.000000        0.292935         4    ;  uncertainty k = 0.259665
         2         4        33        34     9        0.000000        1.253701         1    ;  uncertainty k = 2.041217
         2         4        33        34     9      180.000000        2.479089         2    ;  uncertainty k = 1.021447
         2         4        33        34     9        0.000000        1.291813         3    ;  uncertainty k = 0.578698
         2         4        33        34     9      180.000000       -0.030601         4    ;  uncertainty k = 0.146306
         3         2         4        11     9        0.000000       -1.372021         1    ;  uncertainty k = 1.492730
         3         2         4        11     9      180.000000        2.371115         2    ;  uncertainty k = 0.300482
         3         2         4        11     9        0.000000        0.292116         3    ;  uncertainty k = 0.252771
         3         2         4        11     9      180.000000        0.155159         4    ;  uncertainty k = 0.093475
         3         2         4        33     9        0.000000        1.707823         1    ;  uncertainty k = 0.704832
         3         2         4        33     9      180.000000        3.884647         2    ;  uncertainty k = 0.565808
         3         2         4        33     9        0.000000        0.749129         3    ;  uncertainty k = 0.264976
         3         2         4        33     9      180.000000        0.174104         4    ;  uncertainty k = 0.159693
         4        11        10         5     9        0.000000        0.171220         1    ;  uncertainty k = 0.432161
         4        11        10         5     9      180.000000       11.967638         2    ;  uncertainty k = 1.294698
         4        11        10         5     9        0.000000       -9.909327         3    ;  uncertainty k = 1.605977
         4        11        10         5     9      180.000000        2.102653         4    ;  uncertainty k = 0.733398
         4        11        10         9     9        0.000000        0.079803         1    ;  uncertainty k = 1.313243
         4        11        10         9     9      180.000000        5.721978         2    ;  uncertainty k = 0.321426
         4        11        10         9     9        0.000000        0.431775         3    ;  uncertainty k = 0.611745
         4        11        10         9     9      180.000000        0.952472         4    ;  uncertainty k = 0.149862
         4        11        12        13     9        0.000000       -0.349976         1    ;  uncertainty k = 1.059919
         4        11        12        13     9      180.000000        1.470982         2    ;  uncertainty k = 0.379967
         4        11        12        13     9        0.000000        0.213574         3    ;  uncertainty k = 0.480671
         4        11        12        13     9      180.000000        0.121645         4    ;  uncertainty k = 0.162937
         4        11        12        26     9        0.000000        1.439359         1    ;  uncertainty k = 0.397283
         4        11        12        26     9      180.000000        2.614207         2    ;  uncertainty k = 0.334496
         4        11        12        26     9        0.000000        0.055715         3    ;  uncertainty k = 0.092065
         4        11        12        26     9      180.000000        0.180012         4    ;  uncertainty k = 0.123046
         4        11        12        27     9        0.000000        1.439359         1    ;  uncertainty k = 0.397283
         4        11        12        27     9      180.000000        2.614207         2    ;  uncertainty k = 0.334496
         4        11        12        27     9        0.000000        0.055715         3    ;  uncertainty k = 0.092065
         4        11        12        27     9      180.000000        0.180012         4    ;  uncertainty k = 0.123046
         4        33         5         6     9        0.000000        0.779094         1    ;  uncertainty k = 1.611142
         4        33         5         6     9      180.000000        6.072861         2    ;  uncertainty k = 1.235288
         4        33         5         6     9        0.000000        0.738725         3    ;  uncertainty k = 0.606503
         4        33         5         6     9      180.000000        0.313530         4    ;  uncertainty k = 0.310389
         4        33         5        10     9        0.000000       -0.304471         1    ;  uncertainty k = 0.989395
         4        33         5        10     9      180.000000       15.047901         2    ;  uncertainty k = 1.046721
         4        33         5        10     9        0.000000       -8.395770         3    ;  uncertainty k = 1.919282
         4        33         5        10     9      180.000000        0.648752         4    ;  uncertainty k = 0.607428
         5         6         7         8     9        0.000000       -0.007204         1    ;  uncertainty k = 0.352017
         5         6         7         8     9      180.000000       16.955015         2    ;  uncertainty k = 0.265826
         5         6         7         8     9        0.000000       -0.377243         3    ;  uncertainty k = 0.370601
         5         6         7         8     9      180.000000        0.608270         4    ;  uncertainty k = 0.292320
         5         6         7        23     9        0.000000        0.031156         1    ;  uncertainty k = 0.336940
         5         6         7        23     9      180.000000       10.941246         2    ;  uncertainty k = 0.419077
         5         6         7        23     9        0.000000        1.421256         3    ;  uncertainty k = 0.272944
         5         6         7        23     9      180.000000        1.557433         4    ;  uncertainty k = 0.258138
         5        10         9         8     9        0.000000        0.010948         1    ;  uncertainty k = 0.402869
         5        10         9         8     9      180.000000       13.710034         2    ;  uncertainty k = 0.163194
         5        10         9         8     9        0.000000       -1.521568         3    ;  uncertainty k = 0.300487
         5        10         9         8     9      180.000000        0.694567         4    ;  uncertainty k = 0.283041
         5        10         9        25     9        0.000000        0.253366         1    ;  uncertainty k = 0.171030
         5        10         9        25     9      180.000000        7.059567         2    ;  uncertainty k = 0.776058
         5        10         9        25     9        0.000000        1.466229         3    ;  uncertainty k = 0.353750
         5        10         9        25     9      180.000000        1.230009         4    ;  uncertainty k = 0.397540
         5        10        11        12     9        0.000000        1.338495         1    ;  uncertainty k = 1.087086
         5        10        11        12     9      180.000000       10.551108         2    ;  uncertainty k = 0.351316
         5        10        11        12     9        0.000000        1.801678         3    ;  uncertainty k = 0.392566
         5        10        11        12     9      180.000000        0.257171         4    ;  uncertainty k = 0.352643
         5        33         4        11     9        0.000000       -0.469081         1    ;  uncertainty k = 0.858054
         5        33         4        11     9      180.000000       14.635346         2    ;  uncertainty k = 0.621844
         5        33         4        11     9        0.000000       -5.847696         3    ;  uncertainty k = 1.154312
         5        33         4        11     9      180.000000        0.763949         4    ;  uncertainty k = 0.332867
         6         5        10         9     9        0.000000       -0.557459         1    ;  uncertainty k = 0.504536
         6         5        10         9     9      180.000000        7.175498         2    ;  uncertainty k = 0.762478
         6         5        10         9     9        0.000000        0.165063         3    ;  uncertainty k = 0.420578
         6         5        10         9     9      180.000000        0.902459         4    ;  uncertainty k = 0.405275
         6         5        10        11     9        0.000000       -0.095996         1    ;  uncertainty k = 0.579182
         6         5        10        11     9      180.000000        7.141608         2    ;  uncertainty k = 0.626861
         6         5        10        11     9        0.000000        0.190982         3    ;  uncertainty k = 0.555203
         6         5        10        11     9      180.000000        1.106105         4    ;  uncertainty k = 0.382286
         6         5        33        34     9        0.000000        1.556211         1    ;  uncertainty k = 0.864779
         6         5        33        34     9      180.000000        1.456879         2    ;  uncertainty k = 0.823313
         6         5        33        34     9        0.000000        1.223414         3    ;  uncertainty k = 0.515923
         6         5        33        34     9      180.000000        0.185999         4    ;  uncertainty k = 0.197024
         6         7         8         9     9        0.000000       -0.216392         1    ;  uncertainty k = 0.203221
         6         7         8         9     9      180.000000       12.688314         2    ;  uncertainty k = 0.287114
         6         7         8         9     9        0.000000       -0.841327         3    ;  uncertainty k = 0.664749
         6         7         8         9     9      180.000000        0.649352         4    ;  uncertainty k = 0.206451
         6         7         8        24     9        0.000000        0.020527         1    ;  uncertainty k = 0.059042
         6         7         8        24     9      180.000000        6.989280         2    ;  uncertainty k = 0.437421
         6         7         8        24     9        0.000000        1.365009         3    ;  uncertainty k = 0.283914
         6         7         8        24     9      180.000000        1.623914         4    ;  uncertainty k = 0.216596
         7         6         5        10     9        0.000000       -0.061762         1    ;  uncertainty k = 0.380516
         7         6         5        10     9      180.000000       12.578005         2    ;  uncertainty k = 0.240233
         7         6         5        10     9        0.000000       -1.274716         3    ;  uncertainty k = 0.208709
         7         6         5        10     9      180.000000        0.774303         4    ;  uncertainty k = 0.287170
         7         6         5        33     9        0.000000       -0.040937         1    ;  uncertainty k = 0.255560
         7         6         5        33     9      180.000000       11.252463         2    ;  uncertainty k = 0.580598
         7         6         5        33     9        0.000000        0.539336         3    ;  uncertainty k = 0.344721
         7         6         5        33     9      180.000000        1.022385         4    ;  uncertainty k = 0.303790
         7         8         9        10     9        0.000000        0.019920         1    ;  uncertainty k = 0.483038
         7         8         9        10     9      180.000000       16.879730         2    ;  uncertainty k = 0.325142
         7         8         9        10     9        0.000000       -0.454716         3    ;  uncertainty k = 0.474507
         7         8         9        10     9      180.000000        0.578125         4    ;  uncertainty k = 0.391909
         7         8         9        25     9        0.000000        0.168636         1    ;  uncertainty k = 0.193240
         7         8         9        25     9      180.000000        8.751745         2    ;  uncertainty k = 0.517235
         7         8         9        25     9        0.000000        1.537662         3    ;  uncertainty k = 0.246200
         7         8         9        25     9      180.000000        1.882842         4    ;  uncertainty k = 0.288260
         8         7         6        22     9        0.000000        0.165182         1    ;  uncertainty k = 0.216912
         8         7         6        22     9      180.000000        8.873569         2    ;  uncertainty k = 0.614610
         8         7         6        22     9        0.000000        1.622975         3    ;  uncertainty k = 0.261540
         8         7         6        22     9      180.000000        1.905453         4    ;  uncertainty k = 0.326822
         8         9        10        11     9        0.000000        0.249753         1    ;  uncertainty k = 0.103663
         8         9        10        11     9      180.000000        9.179070         2    ;  uncertainty k = 0.411370
         8         9        10        11     9        0.000000        0.517062         3    ;  uncertainty k = 0.430347
         8         9        10        11     9      180.000000        1.153234         4    ;  uncertainty k = 0.143424
         9         8         7        23     9        0.000000       -0.030439         1    ;  uncertainty k = 0.102038
         9         8         7        23     9      180.000000        6.901165         2    ;  uncertainty k = 0.417183
         9         8         7        23     9        0.000000        1.354655         3    ;  uncertainty k = 0.214825
         9         8         7        23     9      180.000000        1.587525         4    ;  uncertainty k = 0.176781
         9        10         5        33     9        0.000000       -0.032223         1    ;  uncertainty k = 0.572800
         9        10         5        33     9      180.000000        8.643799         2    ;  uncertainty k = 0.269496
         9        10         5        33     9        0.000000       -0.453955         3    ;  uncertainty k = 0.641368
         9        10         5        33     9      180.000000        1.174833         4    ;  uncertainty k = 0.384480
         9        10        11        12     9        0.000000        0.238961         1    ;  uncertainty k = 1.397644
         9        10        11        12     9      180.000000        5.787109         2    ;  uncertainty k = 0.469515
         9        10        11        12     9        0.000000        1.699642         3    ;  uncertainty k = 0.321923
         9        10        11        12     9      180.000000        0.173483         4    ;  uncertainty k = 0.188688
        10         5         6        22     9        0.000000        0.319122         1    ;  uncertainty k = 0.490757
        10         5         6        22     9      180.000000        6.345798         2    ;  uncertainty k = 0.822340
        10         5         6        22     9        0.000000        1.324954         3    ;  uncertainty k = 0.253224
        10         5         6        22     9      180.000000        1.101595         4    ;  uncertainty k = 0.359631
        10         5        33        34     9        0.000000        6.104771         1    ;  uncertainty k = 2.118850
        10         5        33        34     9      180.000000        4.638186         2    ;  uncertainty k = 1.440061
        10         5        33        34     9        0.000000        1.257718         3    ;  uncertainty k = 0.462506
        10         5        33        34     9      180.000000        0.319293         4    ;  uncertainty k = 0.097073
        10         9         8        24     9        0.000000        0.118303         1    ;  uncertainty k = 0.391732
        10         9         8        24     9      180.000000       10.979734         2    ;  uncertainty k = 0.363860
        10         9         8        24     9        0.000000        1.498292         3    ;  uncertainty k = 0.324461
        10         9         8        24     9      180.000000        1.658169         4    ;  uncertainty k = 0.294311
        10        11         4        33     9        0.000000       -0.343459         1    ;  uncertainty k = 0.628998
        10        11         4        33     9      180.000000       19.851697         2    ;  uncertainty k = 0.337386
        10        11         4        33     9        0.000000       -6.038290         3    ;  uncertainty k = 1.696783
        10        11         4        33     9      180.000000        1.027795         4    ;  uncertainty k = 0.436841
        10        11        12        13     9        0.000000       -0.219350         1    ;  uncertainty k = 1.004792
        10        11        12        13     9      180.000000        1.088397         2    ;  uncertainty k = 0.671793
        10        11        12        13     9        0.000000        0.696652         3    ;  uncertainty k = 0.268337
        10        11        12        13     9      180.000000        0.164044         4    ;  uncertainty k = 0.059900
        10        11        12        26     9        0.000000       -0.686921         1    ;  uncertainty k = 0.448582
        10        11        12        26     9      180.000000        2.071241         2    ;  uncertainty k = 0.415243
        10        11        12        26     9        0.000000        0.779274         3    ;  uncertainty k = 0.145606
        10        11        12        26     9      180.000000        0.211883         4    ;  uncertainty k = 0.077331
        10        11        12        27     9        0.000000       -0.686921         1    ;  uncertainty k = 0.448582
        10        11        12        27     9      180.000000        2.071241         2    ;  uncertainty k = 0.415243
        10        11        12        27     9        0.000000        0.779274         3    ;  uncertainty k = 0.145606
        10        11        12        27     9      180.000000        0.211883         4    ;  uncertainty k = 0.077331
        11         4        33        34     9        0.000000        3.994326         1    ;  uncertainty k = 2.809201
        11         4        33        34     9      180.000000        7.262693         2    ;  uncertainty k = 0.379220
        11         4        33        34     9        0.000000        1.858365         3    ;  uncertainty k = 0.686233
        11         4        33        34     9      180.000000       -0.114664         4    ;  uncertainty k = 0.351651
        11        10         5        33     9        0.000000       -0.200093         1    ;  uncertainty k = 0.424326
        11        10         5        33     9      180.000000       12.998296         2    ;  uncertainty k = 0.637101
        11        10         5        33     9        0.000000       -4.487286         3    ;  uncertainty k = 1.787354
        11        10         5        33     9      180.000000        1.376048         4    ;  uncertainty k = 0.852459
        11        10         9        25     9        0.000000        0.623609         1    ;  uncertainty k = 0.818827
        11        10         9        25     9      180.000000        5.597100         2    ;  uncertainty k = 0.476519
        11        10         9        25     9        0.000000        1.146276         3    ;  uncertainty k = 0.356005
        11        10         9        25     9      180.000000        0.780142         4    ;  uncertainty k = 0.277118
        11        12        13        14     9        0.000000       -2.776189         1    ;  uncertainty k = 1.013530
        11        12        13        14     9      180.000000       -0.432262         2    ;  uncertainty k = 0.383339
        11        12        13        14     9        0.000000        1.342246         3    ;  uncertainty k = 0.124146
        11        12        13        14     9      180.000000       -0.314463         4    ;  uncertainty k = 0.108584
        11        12        13        28     9        0.000000        0.428587         1    ;  uncertainty k = 0.616136
        11        12        13        28     9      180.000000       -0.329644         2    ;  uncertainty k = 0.354693
        11        12        13        28     9        0.000000        1.117197         3    ;  uncertainty k = 0.164143
        11        12        13        28     9      180.000000        0.004866         4    ;  uncertainty k = 0.054513
        11        12        13        29     9        0.000000        0.428587         1    ;  uncertainty k = 0.616136
        11        12        13        29     9      180.000000       -0.329644         2    ;  uncertainty k = 0.354693
        11        12        13        29     9        0.000000        1.117197         3    ;  uncertainty k = 0.164143
        11        12        13        29     9      180.000000        0.004866         4    ;  uncertainty k = 0.054513
        12        11         4        33     9        0.000000        0.421908         1    ;  uncertainty k = 0.686279
        12        11         4        33     9      180.000000       16.338015         2    ;  uncertainty k = 0.475382
        12        11         4        33     9        0.000000        1.239769         3    ;  uncertainty k = 0.508643
        12        11         4        33     9      180.000000        0.759832         4    ;  uncertainty k = 0.322483
        12        13        14        15     9        0.000000       -4.148741         1    ;  uncertainty k = 0.971148
        12        13        14        15     9      180.000000       -2.433059         2    ;  uncertainty k = 0.520482
        12        13        14        15     9        0.000000        2.190299         3    ;  uncertainty k = 0.352056
        12        13        14        15     9      180.000000       -0.464174         4    ;  uncertainty k = 0.143732
        12        13        14        30     9        0.000000       -1.880630         1    ;  uncertainty k = 0.475941
        12        13        14        30     9      180.000000        0.088883         2    ;  uncertainty k = 0.244154
        12        13        14        30     9        0.000000        0.929925         3    ;  uncertainty k = 0.062551
        12        13        14        30     9      180.000000       -0.361965         4    ;  uncertainty k = 0.104648
        12        13        14        31     9        0.000000       -1.880630         1    ;  uncertainty k = 0.475941
        12        13        14        31     9      180.000000        0.088883         2    ;  uncertainty k = 0.244154
        12        13        14        31     9        0.000000        0.929925         3    ;  uncertainty k = 0.062551
        12        13        14        31     9      180.000000       -0.361965         4    ;  uncertainty k = 0.104648
        13        14        15        16     9        0.000000       -0.862313         1    ;  uncertainty k = 0.445909
        13        14        15        16     9      180.000000       -0.373410         2    ;  uncertainty k = 0.400918
        13        14        15        16     9        0.000000        0.737521         3    ;  uncertainty k = 0.073361
        13        14        15        16     9      180.000000        0.502391         4    ;  uncertainty k = 0.054472
        14        13        12        26     9        0.000000       -1.671072         1    ;  uncertainty k = 0.367205
        14        13        12        26     9      180.000000       -0.605927         2    ;  uncertainty k = 0.313687
        14        13        12        26     9        0.000000        0.945998         3    ;  uncertainty k = 0.127309
        14        13        12        26     9      180.000000       -0.351966         4    ;  uncertainty k = 0.065354
        14        13        12        27     9        0.000000       -1.671072         1    ;  uncertainty k = 0.367205
        14        13        12        27     9      180.000000       -0.605927         2    ;  uncertainty k = 0.313687
        14        13        12        27     9        0.000000        0.945998         3    ;  uncertainty k = 0.127309
        14        13        12        27     9      180.000000       -0.351966         4    ;  uncertainty k = 0.065354
        14        15        16        17     9        0.000000        0.345392         1    ;  uncertainty k = 0.532162
        14        15        16        17     9      180.000000        5.892834         2    ;  uncertainty k = 0.141419
        14        15        16        17     9        0.000000        1.126838         3    ;  uncertainty k = 0.259889
        14        15        16        17     9      180.000000        0.162443         4    ;  uncertainty k = 0.036305
        14        15        16        21     9        0.000000        2.312799         1    ;  uncertainty k = 0.528859
        14        15        16        21     9      180.000000        6.371847         2    ;  uncertainty k = 0.127321
        14        15        16        21     9        0.000000        0.308902         3    ;  uncertainty k = 0.140589
        14        15        16        21     9      180.000000        0.089912         4    ;  uncertainty k = 0.039754
        15        14        13        28     9        0.000000        0.328499         1    ;  uncertainty k = 0.487650
        15        14        13        28     9      180.000000       -2.234149         2    ;  uncertainty k = 0.270403
        15        14        13        28     9        0.000000        1.421029         3    ;  uncertainty k = 0.139955
        15        14        13        28     9      180.000000        0.032712         4    ;  uncertainty k = 0.057434
        15        14        13        29     9        0.000000        0.328499         1    ;  uncertainty k = 0.487650
        15        14        13        29     9      180.000000       -2.234149         2    ;  uncertainty k = 0.270403
        15        14        13        29     9        0.000000        1.421029         3    ;  uncertainty k = 0.139955
        15        14        13        29     9      180.000000        0.032712         4    ;  uncertainty k = 0.057434
        15        16        17        18     9        0.000000        0.335302         1    ;  uncertainty k = 0.241403
        15        16        17        18     9      180.000000       10.368114         2    ;  uncertainty k = 0.266131
        15        16        17        18     9        0.000000        1.294517         3    ;  uncertainty k = 0.346609
        15        16        17        18     9      180.000000        1.673657         4    ;  uncertainty k = 0.096073
        15        16        17        38     9        0.000000       -0.196582         1    ;  uncertainty k = 0.701083
        15        16        17        38     9      180.000000       12.980047         2    ;  uncertainty k = 0.601852
        15        16        17        38     9        0.000000        0.700101         3    ;  uncertainty k = 0.373494
        15        16        17        38     9      180.000000        1.190043         4    ;  uncertainty k = 0.274325
        15        16        21        20     9        0.000000       -0.042347         1    ;  uncertainty k = 0.334520
        15        16        21        20     9      180.000000       11.743341         2    ;  uncertainty k = 0.387363
        15        16        21        20     9        0.000000        1.299479         3    ;  uncertainty k = 0.291176
        15        16        21        20     9      180.000000        1.652247         4    ;  uncertainty k = 0.206570
        15        16        21        32     9        0.000000       -0.126384         1    ;  uncertainty k = 0.271883
        15        16        21        32     9      180.000000        9.139256         2    ;  uncertainty k = 0.492244
        15        16        21        32     9        0.000000        0.791398         3    ;  uncertainty k = 0.163024
        15        16        21        32     9      180.000000        1.188690         4    ;  uncertainty k = 0.282034
        16        15        14        30     9        0.000000        0.743774         1    ;  uncertainty k = 0.514456
        16        15        14        30     9      180.000000       -1.294033         2    ;  uncertainty k = 0.143311
        16        15        14        30     9        0.000000        0.615431         3    ;  uncertainty k = 0.045830
        16        15        14        30     9      180.000000        0.217486         4    ;  uncertainty k = 0.058455
        16        15        14        31     9        0.000000        0.743774         1    ;  uncertainty k = 0.514456
        16        15        14        31     9      180.000000       -1.294033         2    ;  uncertainty k = 0.143311
        16        15        14        31     9        0.000000        0.615431         3    ;  uncertainty k = 0.045830
        16        15        14        31     9      180.000000        0.217486         4    ;  uncertainty k = 0.058455
        16        17        18        19     9        0.000000       -0.065704         1    ;  uncertainty k = 0.321122
        16        17        18        19     9      180.000000       11.902809         2    ;  uncertainty k = 0.502335
        16        17        18        19     9        0.000000       -0.076101         3    ;  uncertainty k = 0.264066
        16        17        18        19     9      180.000000        1.004056         4    ;  uncertainty k = 0.288746
        16        17        18        37     9        0.000000        0.138818         1    ;  uncertainty k = 0.319631
        16        17        18        37     9      180.000000        7.859778         2    ;  uncertainty k = 0.308795
        16        17        18        37     9        0.000000        1.414510         3    ;  uncertainty k = 0.379281
        16        17        18        37     9      180.000000        1.626416         4    ;  uncertainty k = 0.088349
        16        17        38        39     9        0.000000        0.161612         1    ;  uncertainty k = 0.297508
        16        17        38        39     9      180.000000        1.901078         2    ;  uncertainty k = 0.194575
        16        17        38        39     9        0.000000        0.441388         3    ;  uncertainty k = 0.040616
        16        17        38        39     9      180.000000        0.342342         4    ;  uncertainty k = 0.019504
        16        17        38        40     9        0.000000        0.161612         1    ;  uncertainty k = 0.297508
        16        17        38        40     9      180.000000        1.901078         2    ;  uncertainty k = 0.194575
        16        17        38        40     9        0.000000        0.441388         3    ;  uncertainty k = 0.040616
        16        17        38        40     9      180.000000        0.342342         4    ;  uncertainty k = 0.019504
        16        17        38        41     9        0.000000        0.161612         1    ;  uncertainty k = 0.297508
        16        17        38        41     9      180.000000        1.901077         2    ;  uncertainty k = 0.194574
        16        17        38        41     9        0.000000        0.441388         3    ;  uncertainty k = 0.040616
        16        17        38        41     9      180.000000        0.342342         4    ;  uncertainty k = 0.019504
        16        21        20        19     9        0.000000       -0.118560         1    ;  uncertainty k = 0.155250
        16        21        20        19     9      180.000000       14.367353         2    ;  uncertainty k = 0.270687
        16        21        20        19     9        0.000000       -1.037307         3    ;  uncertainty k = 0.452795
        16        21        20        19     9      180.000000        0.725177         4    ;  uncertainty k = 0.239818
        16        21        20        35     9        0.000000        0.020757         1    ;  uncertainty k = 0.295367
        16        21        20        35     9      180.000000        7.653097         2    ;  uncertainty k = 0.456658
        16        21        20        35     9        0.000000        1.360749         3    ;  uncertainty k = 0.252483
        16        21        20        35     9      180.000000        1.694472         4    ;  uncertainty k = 0.109241
        17        16        21        20     9        0.000000        0.148100         1    ;  uncertainty k = 0.133696
        17        16        21        20     9      180.000000        8.508351         2    ;  uncertainty k = 0.509379
        17        16        21        20     9        0.000000        0.252763         3    ;  uncertainty k = 0.361885
        17        16        21        20     9      180.000000        1.372006         4    ;  uncertainty k = 0.176104
        17        16        21        32     9        0.000000        0.140997         1    ;  uncertainty k = 0.240498
        17        16        21        32     9      180.000000        5.894601         2    ;  uncertainty k = 0.484218
        17        16        21        32     9        0.000000        1.478570         3    ;  uncertainty k = 0.345420
        17        16        21        32     9      180.000000        1.662355         4    ;  uncertainty k = 0.042416
        17        18        19        20     9        0.000000       -0.046088         1    ;  uncertainty k = 0.131730
        17        18        19        20     9      180.000000       13.681620         2    ;  uncertainty k = 0.192723
        17        18        19        20     9        0.000000       -1.077251         3    ;  uncertainty k = 0.617064
        17        18        19        20     9      180.000000        0.716047         4    ;  uncertainty k = 0.254194
        17        18        19        36     9        0.000000        0.199245         1    ;  uncertainty k = 0.332371
        17        18        19        36     9      180.000000        7.003525         2    ;  uncertainty k = 0.391237
        17        18        19        36     9        0.000000        1.519194         3    ;  uncertainty k = 0.228002
        17        18        19        36     9      180.000000        1.852970         4    ;  uncertainty k = 0.090011
        18        17        16        21     9        0.000000       -0.245836         1    ;  uncertainty k = 0.335275
        18        17        16        21     9      180.000000        6.832383         2    ;  uncertainty k = 0.868093
        18        17        16        21     9        0.000000        0.260181         3    ;  uncertainty k = 0.342975
        18        17        16        21     9      180.000000        1.251214         4    ;  uncertainty k = 0.371227
        18        17        38        39     9        0.000000        0.031669         1    ;  uncertainty k = 0.104674
        18        17        38        39     9      180.000000        1.458677         2    ;  uncertainty k = 0.157624
        18        17        38        39     9        0.000000        0.302402         3    ;  uncertainty k = 0.043933
        18        17        38        39     9      180.000000        0.204510         4    ;  uncertainty k = 0.044898
        18        17        38        40     9        0.000000        0.031669         1    ;  uncertainty k = 0.104674
        18        17        38        40     9      180.000000        1.458677         2    ;  uncertainty k = 0.157624
        18        17        38        40     9        0.000000        0.302402         3    ;  uncertainty k = 0.043933
        18        17        38        40     9      180.000000        0.204510         4    ;  uncertainty k = 0.044898
        18        17        38        41     9        0.000000        0.031669         1    ;  uncertainty k = 0.104674
        18        17        38        41     9      180.000000        1.458677         2    ;  uncertainty k = 0.157625
        18        17        38        41     9        0.000000        0.302402         3    ;  uncertainty k = 0.043933
        18        17        38        41     9      180.000000        0.204510         4    ;  uncertainty k = 0.044898
        18        19        20        21     9        0.000000        0.018642         1    ;  uncertainty k = 0.175261
        18        19        20        21     9      180.000000       15.361356         2    ;  uncertainty k = 0.356151
        18        19        20        21     9        0.000000       -1.397507         3    ;  uncertainty k = 0.554221
        18        19        20        21     9      180.000000        0.527752         4    ;  uncertainty k = 0.304134
        18        19        20        35     9        0.000000        0.128101         1    ;  uncertainty k = 0.095712
        18        19        20        35     9      180.000000        7.671643         2    ;  uncertainty k = 0.328227
        18        19        20        35     9        0.000000        1.444473         3    ;  uncertainty k = 0.324348
        18        19        20        35     9      180.000000        1.750108         4    ;  uncertainty k = 0.170983
        19        18        17        38     9        0.000000        0.172896         1    ;  uncertainty k = 0.076710
        19        18        17        38     9      180.000000       10.175087         2    ;  uncertainty k = 0.403101
        19        18        17        38     9        0.000000        1.459343         3    ;  uncertainty k = 0.284195
        19        18        17        38     9      180.000000        1.858460         4    ;  uncertainty k = 0.192540
        19        20        21        32     9        0.000000        0.148756         1    ;  uncertainty k = 0.093191
        19        20        21        32     9      180.000000        7.633846         2    ;  uncertainty k = 0.308889
        19        20        21        32     9        0.000000        1.516541         3    ;  uncertainty k = 0.301862
        19        20        21        32     9      180.000000        1.816834         4    ;  uncertainty k = 0.115726
        20        19        18        37     9        0.000000        0.108897         1    ;  uncertainty k = 0.121150
        20        19        18        37     9      180.000000        7.672687         2    ;  uncertainty k = 0.327357
        20        19        18        37     9        0.000000        1.422463         3    ;  uncertainty k = 0.315807
        20        19        18        37     9      180.000000        1.774287         4    ;  uncertainty k = 0.177545
        21        16        17        38     9        0.000000        0.389577         1    ;  uncertainty k = 0.426790
        21        16        17        38     9      180.000000        6.989662         2    ;  uncertainty k = 0.422043
        21        16        17        38     9        0.000000        1.119757         3    ;  uncertainty k = 0.350258
        21        16        17        38     9      180.000000        1.712011         4    ;  uncertainty k = 0.252481
        21        20        19        36     9        0.000000        0.208263         1    ;  uncertainty k = 0.142278
        21        20        19        36     9      180.000000        7.745113         2    ;  uncertainty k = 0.373761
        21        20        19        36     9        0.000000        1.473080         3    ;  uncertainty k = 0.296400
        21        20        19        36     9      180.000000        1.819828         4    ;  uncertainty k = 0.153877
        22         6         5        33     9        0.000000        0.248356         1    ;  uncertainty k = 0.309441
        22         6         5        33     9      180.000000        6.219890         2    ;  uncertainty k = 0.560809
        22         6         5        33     9        0.000000        1.223843         3    ;  uncertainty k = 0.395076
        22         6         5        33     9      180.000000        0.794522         4    ;  uncertainty k = 0.403871
        22         6         7        23     9        0.000000        0.067635         1    ;  uncertainty k = 0.257851
        22         6         7        23     9      180.000000        7.678575         2    ;  uncertainty k = 0.249765
        22         6         7        23     9        0.000000       -0.249178         3    ;  uncertainty k = 0.224083
        22         6         7        23     9      180.000000        0.128053         4    ;  uncertainty k = 0.127116
        23         7         8        24     9        0.000000        0.024825         1    ;  uncertainty k = 0.154579
        23         7         8        24     9      180.000000        6.825470         2    ;  uncertainty k = 0.478217
        23         7         8        24     9        0.000000       -0.239724         3    ;  uncertainty k = 0.197508
        23         7         8        24     9      180.000000        0.091582         4    ;  uncertainty k = 0.138206
        24         8         9        25     9        0.000000        0.081241         1    ;  uncertainty k = 0.094303
        24         8         9        25     9      180.000000        7.822590         2    ;  uncertainty k = 0.225676
        24         8         9        25     9        0.000000       -0.195366         3    ;  uncertainty k = 0.265935
        24         8         9        25     9      180.000000        0.166865         4    ;  uncertainty k = 0.178530
        26        12        13        28     9        0.000000        0.852998         1    ;  uncertainty k = 0.162312
        26        12        13        28     9      180.000000       -0.684815         2    ;  uncertainty k = 0.290805
        26        12        13        28     9        0.000000        0.190526         3    ;  uncertainty k = 0.067767
        26        12        13        28     9      180.000000        0.009351         4    ;  uncertainty k = 0.042473
        26        12        13        29     9        0.000000        0.852998         1    ;  uncertainty k = 0.162312
        26        12        13        29     9      180.000000       -0.684815         2    ;  uncertainty k = 0.290805
        26        12        13        29     9        0.000000        0.190526         3    ;  uncertainty k = 0.067767
        26        12        13        29     9      180.000000        0.009351         4    ;  uncertainty k = 0.042473
        27        12        13        28     9        0.000000        0.852998         1    ;  uncertainty k = 0.162312
        27        12        13        28     9      180.000000       -0.684815         2    ;  uncertainty k = 0.290805
        27        12        13        28     9        0.000000        0.190526         3    ;  uncertainty k = 0.067767
        27        12        13        28     9      180.000000        0.009351         4    ;  uncertainty k = 0.042473
        27        12        13        29     9        0.000000        0.852998         1    ;  uncertainty k = 0.162312
        27        12        13        29     9      180.000000       -0.684815         2    ;  uncertainty k = 0.290805
        27        12        13        29     9        0.000000        0.190526         3    ;  uncertainty k = 0.067767
        27        12        13        29     9      180.000000        0.009351         4    ;  uncertainty k = 0.042473
        28        13        14        30     9        0.000000        0.466640         1    ;  uncertainty k = 0.128300
        28        13        14        30     9      180.000000       -0.425604         2    ;  uncertainty k = 0.142653
        28        13        14        30     9        0.000000        0.107343         3    ;  uncertainty k = 0.078717
        28        13        14        30     9      180.000000       -0.038564         4    ;  uncertainty k = 0.071588
        28        13        14        31     9        0.000000        0.466640         1    ;  uncertainty k = 0.128300
        28        13        14        31     9      180.000000       -0.425604         2    ;  uncertainty k = 0.142653
        28        13        14        31     9        0.000000        0.107343         3    ;  uncertainty k = 0.078717
        28        13        14        31     9      180.000000       -0.038564         4    ;  uncertainty k = 0.071588
        29        13        14        30     9        0.000000        0.466640         1    ;  uncertainty k = 0.128300
        29        13        14        30     9      180.000000       -0.425604         2    ;  uncertainty k = 0.142653
        29        13        14        30     9        0.000000        0.107343         3    ;  uncertainty k = 0.078717
        29        13        14        30     9      180.000000       -0.038564         4    ;  uncertainty k = 0.071588
        29        13        14        31     9        0.000000        0.466640         1    ;  uncertainty k = 0.128300
        29        13        14        31     9      180.000000       -0.425604         2    ;  uncertainty k = 0.142653
        29        13        14        31     9        0.000000        0.107343         3    ;  uncertainty k = 0.078717
        29        13        14        31     9      180.000000       -0.038564         4    ;  uncertainty k = 0.071588
        32        21        20        35     9        0.000000       -0.082562         1    ;  uncertainty k = 0.094222
        32        21        20        35     9      180.000000        7.346364         2    ;  uncertainty k = 0.394634
        32        21        20        35     9        0.000000       -0.395700         3    ;  uncertainty k = 0.245860
        32        21        20        35     9      180.000000        0.108755         4    ;  uncertainty k = 0.118582
        35        20        19        36     9        0.000000        0.044651         1    ;  uncertainty k = 0.125515
        35        20        19        36     9      180.000000        7.380020         2    ;  uncertainty k = 0.412576
        35        20        19        36     9        0.000000       -0.389841         3    ;  uncertainty k = 0.292319
        35        20        19        36     9      180.000000        0.033925         4    ;  uncertainty k = 0.152583
        36        19        18        37     9        0.000000       -0.003894         1    ;  uncertainty k = 0.076266
        36        19        18        37     9      180.000000        7.469491         2    ;  uncertainty k = 0.330722
        36        19        18        37     9        0.000000       -0.409253         3    ;  uncertainty k = 0.273939
        36        19        18        37     9      180.000000        0.069415         4    ;  uncertainty k = 0.105871
        37        18        17        38     9        0.000000       -0.300532         1    ;  uncertainty k = 0.226935
        37        18        17        38     9      180.000000        8.255498         2    ;  uncertainty k = 0.328824
        37        18        17        38     9        0.000000        0.442127         3    ;  uncertainty k = 0.305226
        37        18        17        38     9      180.000000        1.066922         4    ;  uncertainty k = 0.205756

[ dihedrals ] ; impropers
;       ai        aj        ak        al funct           phase               k        pn
         2         1         3         4     4      180.000000       64.265870         2    ;  uncertainty k = 0.050254
         2         3         4         1     4      180.000000       64.265870         2    ;  uncertainty k = 0.050254
         2         4         1         3     4      180.000000       64.265870         2    ;  uncertainty k = 0.050254
         4         2        11        33     4      180.000000        5.876961         2    ;  uncertainty k = 0.526652
         4        11        33         2     4      180.000000        5.876961         2    ;  uncertainty k = 0.526652
         4        33         2        11     4      180.000000        5.876961         2    ;  uncertainty k = 0.526652
         5         6        10        33     4      180.000000        1.057348         2    ;  uncertainty k = 0.904202
         5        10        33         6     4      180.000000        1.057348         2    ;  uncertainty k = 0.904202
         5        33         6        10     4      180.000000        1.057348         2    ;  uncertainty k = 0.904202
         6         5         7        22     4      180.000000        2.336037         2    ;  uncertainty k = 0.300690
         6         7        22         5     4      180.000000        2.336037         2    ;  uncertainty k = 0.300690
         6        22         5         7     4      180.000000        2.336037         2    ;  uncertainty k = 0.300690
         7         6         8        23     4      180.000000        3.761581         2    ;  uncertainty k = 0.188539
         7         8        23         6     4      180.000000        3.761581         2    ;  uncertainty k = 0.188539
         7        23         6         8     4      180.000000        3.761581         2    ;  uncertainty k = 0.188539
         8         7         9        24     4      180.000000        3.007353         2    ;  uncertainty k = 0.125347
         8         9        24         7     4      180.000000        3.007353         2    ;  uncertainty k = 0.125347
         8        24         7         9     4      180.000000        3.007353         2    ;  uncertainty k = 0.125347
         9         8        10        25     4      180.000000        4.051631         2    ;  uncertainty k = 0.159442
         9        10        25         8     4      180.000000        4.051631         2    ;  uncertainty k = 0.159442
         9        25         8        10     4      180.000000        4.051631         2    ;  uncertainty k = 0.159442
        11         4        10        12     4      180.000000        2.099178         2    ;  uncertainty k = 0.534873
        11        10        12         4     4      180.000000        2.099178         2    ;  uncertainty k = 0.534873
        11        12         4        10     4      180.000000        2.099178         2    ;  uncertainty k = 0.534873
        16        15        17        21     4      180.000000       17.445868         2    ;  uncertainty k = 0.029939
        16        17        21        15     4      180.000000       17.445868         2    ;  uncertainty k = 0.029939
        16        21        15        17     4      180.000000       17.445868         2    ;  uncertainty k = 0.029939
        17        16        18        38     4      180.000000       12.856784         2    ;  uncertainty k = 0.091387
        17        18        38        16     4      180.000000       12.856784         2    ;  uncertainty k = 0.091387
        17        38        16        18     4      180.000000       12.856784         2    ;  uncertainty k = 0.091387
        18        17        19        37     4      180.000000        3.873650         2    ;  uncertainty k = 0.165814
        18        19        37        17     4      180.000000        3.873650         2    ;  uncertainty k = 0.165814
        18        37        17        19     4      180.000000        3.873650         2    ;  uncertainty k = 0.165814
        19        18        20        36     4      180.000000        3.457699         2    ;  uncertainty k = 0.197148
        19        20        36        18     4      180.000000        3.457699         2    ;  uncertainty k = 0.197148
        19        36        18        20     4      180.000000        3.457699         2    ;  uncertainty k = 0.197148
        20        19        21        35     4      180.000000        4.059783         2    ;  uncertainty k = 0.193907
        20        21        35        19     4      180.000000        4.059783         2    ;  uncertainty k = 0.193907
        20        35        19        21     4      180.000000        4.059783         2    ;  uncertainty k = 0.193907
        21        16        20        32     4      180.000000        2.226758         2    ;  uncertainty k = 0.404415
        21        20        32        16     4      180.000000        2.226758         2    ;  uncertainty k = 0.404415
        21        32        16        20     4      180.000000        2.226758         2    ;  uncertainty k = 0.404415

[ pairs ]
;       ai        aj funct
         1        11     1
         1        33     1
         2         5     1
         2        10     1
         2        12     1
         2        34     1
         3        11     1
         3        33     1
         4         6     1
         4         9     1
         4        13     1
         4        26     1
         4        27     1
         5         8     1
         5        12     1
         5        23     1
         5        25     1
         6         9     1
         6        11     1
         6        24     1
         6        34     1
         7        10     1
         7        25     1
         7        33     1
         8        11     1
         8        22     1
         9        12     1
         9        23     1
         9        33     1
        10        13     1
        10        22     1
        10        24     1
        10        26     1
        10        27     1
        10        34     1
        11        14     1
        11        25     1
        11        28     1
        11        29     1
        11        34     1
        12        15     1
        12        30     1
        12        31     1
        12        33     1
        13        16     1
        14        17     1
        14        21     1
        14        26     1
        14        27     1
        15        18     1
        15        20     1
        15        28     1
        15        29     1
        15        32     1
        15        38     1
        16        19     1
        16        30     1
        16        31     1
        16        35     1
        16        37     1
        16        39     1
        16        40     1
        16        41     1
        17        20     1
        17        32     1
        17        36     1
        18        21     1
        18        35     1
        18        39     1
        18        40     1
        18        41     1
        19        32     1
        19        38     1
        20        37     1
        21        36     1
        21        38     1
        22        23     1
        22        33     1
        23        24     1
        24        25     1
        26        28     1
        26        29     1
        27        28     1
        27        29     1
        28        30     1
        28        31     1
        29        30     1
        29        31     1
        32        35     1
        35        36     1
        36        37     1
        37        38     1
