; ITP file created by ByteFF-joint-25, 2026-02-17 09:20:52.901540

[ atomtypes ]
;name           bonded.type        at.num        mass        charge   ptype           sigma         epsilon
 o0bf                                   8      0.0000       0.00000       A     3.04807e-01     6.12065e-01    ;  uncertainty sigma = 0.000018, epsilon = 0.000616
 c1bf                                   6      0.0000       0.00000       A     3.31436e-01     4.13701e-01    ;  uncertainty sigma = 0.000034, epsilon = 0.002275
 o2bf                                   8      0.0000       0.00000       A     3.04807e-01     6.12065e-01    ;  uncertainty sigma = 0.000018, epsilon = 0.000616
 c3bf                                   6      0.0000       0.00000       A     3.31527e-01     4.12548e-01    ;  uncertainty sigma = 0.000053, epsilon = 0.002675
 c4bf                                   6      0.0000       0.00000       A     3.31556e-01     4.13605e-01    ;  uncertainty sigma = 0.000009, epsilon = 0.001072
 c5bf                                   6      0.0000       0.00000       A     3.31528e-01     4.13216e-01    ;  uncertainty sigma = 0.000006, epsilon = 0.000735
 c6bf                                   6      0.0000       0.00000       A     3.31524e-01     4.13323e-01    ;  uncertainty sigma = 0.000005, epsilon = 0.000518
 c7bf                                   6      0.0000       0.00000       A     3.31524e-01     4.13320e-01    ;  uncertainty sigma = 0.000004, epsilon = 0.000654
 c8bf                                   6      0.0000       0.00000       A     3.31525e-01     4.13140e-01    ;  uncertainty sigma = 0.000007, epsilon = 0.000627
 c9bf                                   6      0.0000       0.00000       A     3.31543e-01     4.12994e-01    ;  uncertainty sigma = 0.000008, epsilon = 0.001189
 c10bf                                  6      0.0000       0.00000       A     3.31576e-01     4.13309e-01    ;  uncertainty sigma = 0.000008, epsilon = 0.001192
 c11bf                                  6      0.0000       0.00000       A     3.39773e-01     4.50718e-01    ;  uncertainty sigma = 0.000020, epsilon = 0.000757
 c12bf                                  6      0.0000       0.00000       A     3.39755e-01     4.50608e-01    ;  uncertainty sigma = 0.000006, epsilon = 0.000953
 c13bf                                  6      0.0000       0.00000       A     3.39783e-01     4.50554e-01    ;  uncertainty sigma = 0.000007, epsilon = 0.000824
 o14bf                                  8      0.0000       0.00000       A     3.15608e-01     3.02862e-01    ;  uncertainty sigma = 0.000009, epsilon = 0.001287
 c15bf                                  6      0.0000       0.00000       A     3.31505e-01     4.13604e-01    ;  uncertainty sigma = 0.000012, epsilon = 0.001181
 c16bf                                  6      0.0000       0.00000       A     3.31528e-01     4.13505e-01    ;  uncertainty sigma = 0.000011, epsilon = 0.001226
 c17bf                                  6      0.0000       0.00000       A     3.31522e-01     4.13162e-01    ;  uncertainty sigma = 0.000005, epsilon = 0.000601
 c18bf                                  6      0.0000       0.00000       A     3.31514e-01     4.13342e-01    ;  uncertainty sigma = 0.000003, epsilon = 0.000647
 c19bf                                  6      0.0000       0.00000       A     3.31522e-01     4.13428e-01    ;  uncertainty sigma = 0.000004, epsilon = 0.000561
 c20bf                                  6      0.0000       0.00000       A     3.31513e-01     4.13177e-01    ;  uncertainty sigma = 0.000004, epsilon = 0.000520
 h21bf                                  1      0.0000       0.00000       A     2.62573e-01     6.69665e-02    ;  uncertainty sigma = 0.000008, epsilon = 0.000474
 h22bf                                  1      0.0000       0.00000       A     2.62567e-01     6.69871e-02    ;  uncertainty sigma = 0.000012, epsilon = 0.000553
 h23bf                                  1      0.0000       0.00000       A     2.62563e-01     6.69792e-02    ;  uncertainty sigma = 0.000011, epsilon = 0.000555
 h24bf                                  1      0.0000       0.00000       A     2.62566e-01     6.69359e-02    ;  uncertainty sigma = 0.000011, epsilon = 0.000323
 h25bf                                  1      0.0000       0.00000       A     2.60038e-01     8.64862e-02    ;  uncertainty sigma = 0.000012, epsilon = 0.000717
 h26bf                                  1      0.0000       0.00000       A     2.60038e-01     8.64862e-02    ;  uncertainty sigma = 0.000012, epsilon = 0.000717
 h27bf                                  1      0.0000       0.00000       A     2.60032e-01     8.63750e-02    ;  uncertainty sigma = 0.000011, epsilon = 0.000877
 h28bf                                  1      0.0000       0.00000       A     2.60032e-01     8.63750e-02    ;  uncertainty sigma = 0.000011, epsilon = 0.000877
 h29bf                                  1      0.0000       0.00000       A     2.42190e-01     8.69771e-02    ;  uncertainty sigma = 0.000031, epsilon = 0.000462
 h30bf                                  1      0.0000       0.00000       A     2.42190e-01     8.69771e-02    ;  uncertainty sigma = 0.000031, epsilon = 0.000462
 h31bf                                  1      0.0000       0.00000       A     2.62559e-01     6.70763e-02    ;  uncertainty sigma = 0.000006, epsilon = 0.000396
 n32bf                                  7      0.0000       0.00000       A     3.20754e-01     8.52244e-01    ;  uncertainty sigma = 0.000047, epsilon = 0.002451
 h33bf                                  1      0.0000       0.00000       A     1.10620e-01     4.09732e-02    ;  uncertainty sigma = 0.000138, epsilon = 0.001729
 h34bf                                  1      0.0000       0.00000       A     2.62562e-01     6.69705e-02    ;  uncertainty sigma = 0.000010, epsilon = 0.000501
 h35bf                                  1      0.0000       0.00000       A     2.62558e-01     6.70323e-02    ;  uncertainty sigma = 0.000010, epsilon = 0.000442
 h36bf                                  1      0.0000       0.00000       A     2.62567e-01     6.70698e-02    ;  uncertainty sigma = 0.000015, epsilon = 0.000472
 f37bf                                  9      0.0000       0.00000       A     3.03422e-01     3.48077e-01    ;  uncertainty sigma = 0.000014, epsilon = 0.000848
 c38bf                                  6      0.0000       0.00000       A     3.39790e-01     4.50444e-01    ;  uncertainty sigma = 0.000012, epsilon = 0.000714
 f39bf                                  9      0.0000       0.00000       A     3.03422e-01     3.48077e-01    ;  uncertainty sigma = 0.000014, epsilon = 0.000848
 f40bf                                  9      0.0000       0.00000       A     3.03422e-01     3.48077e-01    ;  uncertainty sigma = 0.000014, epsilon = 0.000848

[ moleculetype ]
;name             nrexcl
 MOL                   3

[ atoms ]
;       nr            type      resi   res      atom      cgnr      charge          mass ; qtot
         1            o0bf         1   UNL        o0         1    -0.82702       15.9990 ; qtot   -0.827
         2            c1bf         1   UNL        c1         2     0.92126       12.0110 ; qtot    0.094
         3            o2bf         1   UNL        o2         3    -0.82702       15.9990 ; qtot   -0.733
         4            c3bf         1   UNL        c3         4    -0.10822       12.0110 ; qtot   -0.841
         5            c4bf         1   UNL        c4         5    -0.06744       12.0110 ; qtot   -0.908
         6            c5bf         1   UNL        c5         6    -0.16684       12.0110 ; qtot   -1.075
         7            c6bf         1   UNL        c6         7    -0.11194       12.0110 ; qtot   -1.187
         8            c7bf         1   UNL        c7         8    -0.15971       12.0110 ; qtot   -1.347
         9            c8bf         1   UNL        c8         9    -0.09713       12.0110 ; qtot   -1.444
        10            c9bf         1   UNL        c9        10    -0.10135       12.0110 ; qtot   -1.545
        11           c10bf         1   UNL       c10        11    -0.18594       12.0110 ; qtot   -1.731
        12           c11bf         1   UNL       c11        12    -0.00834       12.0110 ; qtot   -1.740
        13           c12bf         1   UNL       c12        13    -0.09576       12.0110 ; qtot   -1.835
        14           c13bf         1   UNL       c13        14     0.14141       12.0110 ; qtot   -1.694
        15           o14bf         1   UNL       o14        15    -0.33450       15.9990 ; qtot   -2.029
        16           c15bf         1   UNL       c15        16     0.18953       12.0110 ; qtot   -1.839
        17           c16bf         1   UNL       c16        17    -0.22742       12.0110 ; qtot   -2.066
        18           c17bf         1   UNL       c17        18    -0.05297       12.0110 ; qtot   -2.119
        19           c18bf         1   UNL       c18        19    -0.15798       12.0110 ; qtot   -2.277
        20           c19bf         1   UNL       c19        20    -0.07308       12.0110 ; qtot   -2.350
        21           c20bf         1   UNL       c20        21    -0.20335       12.0110 ; qtot   -2.554
        22           h21bf         1   UNL       h21        22     0.13216        1.0080 ; qtot   -2.422
        23           h22bf         1   UNL       h22        23     0.12950        1.0080 ; qtot   -2.292
        24           h23bf         1   UNL       h23        24     0.12900        1.0080 ; qtot   -2.163
        25           h24bf         1   UNL       h24        25     0.13303        1.0080 ; qtot   -2.030
        26           h25bf         1   UNL       h25        26     0.04354        1.0080 ; qtot   -1.987
        27           h26bf         1   UNL       h26        27     0.04354        1.0080 ; qtot   -1.943
        28           h27bf         1   UNL       h27        28     0.05420        1.0080 ; qtot   -1.889
        29           h28bf         1   UNL       h28        29     0.05420        1.0080 ; qtot   -1.835
        30           h29bf         1   UNL       h29        30     0.04547        1.0080 ; qtot   -1.789
        31           h30bf         1   UNL       h30        31     0.04547        1.0080 ; qtot   -1.744
        32           h31bf         1   UNL       h31        32     0.14711        1.0080 ; qtot   -1.597
        33           n32bf         1   UNL       n32        33    -0.18585       14.0070 ; qtot   -1.782
        34           h33bf         1   UNL       h33        34     0.31616        1.0080 ; qtot   -1.466
        35           h34bf         1   UNL       h34        35     0.13529        1.0080 ; qtot   -1.331
        36           h35bf         1   UNL       h35        36     0.14205        1.0080 ; qtot   -1.189
        37           h36bf         1   UNL       h36        37     0.15417        1.0080 ; qtot   -1.035
        38           f37bf         1   UNL       f37        38    -0.22787       18.9980 ; qtot   -1.263
        39           c38bf         1   UNL       c38        39     0.71837       12.0110 ; qtot   -0.544
        40           f39bf         1   UNL       f39        40    -0.22787       18.9980 ; qtot   -0.772
        41           f40bf         1   UNL       f40        41    -0.22786       18.9980 ; qtot   -1.000

[ bonds ]
;       ai        aj funct               r               k
         1         2     1        0.126489   553283.027930    ;  uncertainty r = 0.000115, k = 9.491850
         2         3     1        0.126489   553283.027930    ;  uncertainty r = 0.000115, k = 9.491850
         2         4     1        0.152875   178456.869971    ;  uncertainty r = 0.000109, k = 53.157083
         4        11     1        0.138845   388969.962598    ;  uncertainty r = 0.000116, k = 35.597318
         4        33     1        0.138411   296910.956104    ;  uncertainty r = 0.000116, k = 16.653525
         5         6     1        0.139909   370024.083301    ;  uncertainty r = 0.000068, k = 3.273406
         5        10     1        0.143429   333658.830957    ;  uncertainty r = 0.000101, k = 12.925109
         5        33     1        0.137190   323439.748047    ;  uncertainty r = 0.000109, k = 15.720627
         6         7     1        0.139204   373030.439502    ;  uncertainty r = 0.000031, k = 1.532197
         6        22     1        0.108908   337826.589355    ;  uncertainty r = 0.000007, k = 0.915296
         7         8     1        0.141248   347880.881299    ;  uncertainty r = 0.000048, k = 2.727051
         7        23     1        0.108787   335143.149902    ;  uncertainty r = 0.000015, k = 1.282440
         8         9     1        0.139156   366705.382715    ;  uncertainty r = 0.000016, k = 3.013067
         8        24     1        0.108813   335291.367285    ;  uncertainty r = 0.000018, k = 0.841713
         9        10     1        0.140712   363994.363184    ;  uncertainty r = 0.000090, k = 9.392181
         9        25     1        0.108826   337192.119873    ;  uncertainty r = 0.000025, k = 2.686180
        10        11     1        0.143927   250387.756689    ;  uncertainty r = 0.000100, k = 20.205925
        11        12     1        0.150056   234448.846484    ;  uncertainty r = 0.000153, k = 11.938075
        12        13     1        0.153885   206360.273438    ;  uncertainty r = 0.000103, k = 7.147654
        12        26     1        0.109683   309037.278027    ;  uncertainty r = 0.000026, k = 1.364430
        12        27     1        0.109683   309037.278027    ;  uncertainty r = 0.000026, k = 1.364430
        13        14     1        0.152148   209963.738330    ;  uncertainty r = 0.000037, k = 3.156537
        13        28     1        0.109664   307643.385986    ;  uncertainty r = 0.000028, k = 1.424205
        13        29     1        0.109664   307643.385986    ;  uncertainty r = 0.000028, k = 1.424205
        14        15     1        0.142980   228114.468652    ;  uncertainty r = 0.000040, k = 3.422601
        14        30     1        0.109746   308188.118066    ;  uncertainty r = 0.000035, k = 1.332550
        14        31     1        0.109746   308188.118066    ;  uncertainty r = 0.000035, k = 1.332550
        15        16     1        0.136201   320114.356738    ;  uncertainty r = 0.000146, k = 13.744961
        16        17     1        0.140473   338586.829102    ;  uncertainty r = 0.000079, k = 9.391079
        16        21     1        0.139803   349959.525391    ;  uncertainty r = 0.000031, k = 5.826404
        17        18     1        0.139173   353665.189795    ;  uncertainty r = 0.000094, k = 6.290171
        17        39     1        0.150072   225821.644824    ;  uncertainty r = 0.000130, k = 2.343628
        18        19     1        0.139374   368610.246777    ;  uncertainty r = 0.000028, k = 3.037536
        18        37     1        0.108540   331631.439844    ;  uncertainty r = 0.000021, k = 2.041083
        19        20     1        0.139554   375155.382373    ;  uncertainty r = 0.000018, k = 1.550352
        19        36     1        0.108768   333476.495996    ;  uncertainty r = 0.000015, k = 1.392420
        20        21     1        0.139425   372926.375781    ;  uncertainty r = 0.000033, k = 2.948097
        20        35     1        0.108779   333347.099463    ;  uncertainty r = 0.000012, k = 0.897855
        21        32     1        0.108734   337361.252148    ;  uncertainty r = 0.000018, k = 0.943477
        33        34     1        0.101525   411016.174658    ;  uncertainty r = 0.000192, k = 19.532863
        38        39     1        0.135472   283593.762158    ;  uncertainty r = 0.000080, k = 5.809491
        39        40     1        0.135472   283593.762158    ;  uncertainty r = 0.000080, k = 5.809496
        39        41     1        0.135472   283593.762158    ;  uncertainty r = 0.000080, k = 5.809512

[ angles ]
;       ai        aj        ak funct           theta             cth
         1         2         3     1      131.490799      799.912859    ;  uncertainty theta = 0.007122, k = 0.161146
         1         2         4     1      115.643898      409.958900    ;  uncertainty theta = 0.009941, k = 0.278481
         2         4        11     1      129.691666      294.711298    ;  uncertainty theta = 0.010379, k = 0.154712
         2         4        33     1      117.855209      349.663901    ;  uncertainty theta = 0.005899, k = 0.287676
         3         2         4     1      115.643898      409.958900    ;  uncertainty theta = 0.009941, k = 0.278481
         4        11        10     1      107.813744      761.507600    ;  uncertainty theta = 0.003114, k = 0.233379
         4        11        12     1      125.834373      348.251252    ;  uncertainty theta = 0.008524, k = 0.203092
         4        33         5     1      106.686867      870.555270    ;  uncertainty theta = 0.004731, k = 0.157374
         4        33        34     1      118.324951      293.095597    ;  uncertainty theta = 0.017038, k = 0.289786
         5         6         7     1      117.288712      532.685108    ;  uncertainty theta = 0.002732, k = 0.138286
         5         6        22     1      122.416870      294.044173    ;  uncertainty theta = 0.002439, k = 0.026234
         5        10         9     1      116.726723      409.397211    ;  uncertainty theta = 0.004491, k = 0.081187
         5        10        11     1      107.622475      685.489179    ;  uncertainty theta = 0.004472, k = 0.334622
         5        33        34     1      119.518555      279.940091    ;  uncertainty theta = 0.027559, k = 0.287070
         6         5        10     1      120.341995      378.416324    ;  uncertainty theta = 0.003053, k = 0.079333
         6         5        33     1      130.070251      406.372596    ;  uncertainty theta = 0.003047, k = 0.189160
         6         7         8     1      122.110641      522.210041    ;  uncertainty theta = 0.001703, k = 0.050914
         6         7        23     1      119.408218      283.874626    ;  uncertainty theta = 0.001884, k = 0.037783
         7         6        22     1      121.416527      285.300171    ;  uncertainty theta = 0.001028, k = 0.037490
         7         8         9     1      121.942673      521.393620    ;  uncertainty theta = 0.001697, k = 0.032913
         7         8        24     1      119.651100      288.114903    ;  uncertainty theta = 0.001746, k = 0.035440
         8         7        23     1      119.801102      287.497128    ;  uncertainty theta = 0.001585, k = 0.046675
         8         9        10     1      119.165207      547.786701    ;  uncertainty theta = 0.003326, k = 0.038562
         8         9        25     1      120.508347      285.672566    ;  uncertainty theta = 0.001453, k = 0.031601
         9         8        24     1      119.815613      287.517590    ;  uncertainty theta = 0.001890, k = 0.024499
         9        10        11     1      132.186111      358.431813    ;  uncertainty theta = 0.003911, k = 0.091946
        10         5        33     1      107.610229      677.054783    ;  uncertainty theta = 0.004088, k = 0.326769
        10         9        25     1      121.598999      289.048093    ;  uncertainty theta = 0.003949, k = 0.074173
        10        11        12     1      125.270729      364.592289    ;  uncertainty theta = 0.008077, k = 0.215292
        11         4        33     1      110.824791      694.108082    ;  uncertainty theta = 0.003478, k = 0.245195
        11        12        13     1      111.535912      545.701979    ;  uncertainty theta = 0.004629, k = 0.049601
        11        12        26     1      107.023758      409.119878    ;  uncertainty theta = 0.002156, k = 0.076181
        11        12        27     1      107.023758      409.119878    ;  uncertainty theta = 0.002156, k = 0.076181
        12        13        14     1      109.851822      549.423630    ;  uncertainty theta = 0.002518, k = 0.053793
        12        13        28     1      107.780540      395.334819    ;  uncertainty theta = 0.002719, k = 0.061247
        12        13        29     1      107.780540      395.334819    ;  uncertainty theta = 0.002719, k = 0.061247
        13        12        26     1      106.925919      401.105057    ;  uncertainty theta = 0.002530, k = 0.096026
        13        12        27     1      106.925919      401.105057    ;  uncertainty theta = 0.002530, k = 0.096026
        13        14        15     1      108.766434      594.729782    ;  uncertainty theta = 0.001260, k = 0.068761
        13        14        30     1      109.881058      407.347284    ;  uncertainty theta = 0.001540, k = 0.051525
        13        14        31     1      109.881058      407.347284    ;  uncertainty theta = 0.001540, k = 0.051525
        14        13        28     1      106.738731      398.079420    ;  uncertainty theta = 0.001621, k = 0.021291
        14        13        29     1      106.738731      398.079420    ;  uncertainty theta = 0.001621, k = 0.021291
        14        15        16     1      110.961868      489.051893    ;  uncertainty theta = 0.001907, k = 0.064776
        15        14        30     1      106.781433      429.831942    ;  uncertainty theta = 0.001678, k = 0.026205
        15        14        31     1      106.781433      429.831942    ;  uncertainty theta = 0.001678, k = 0.026205
        15        16        17     1      116.448219      467.943014    ;  uncertainty theta = 0.003309, k = 0.133046
        15        16        21     1      120.141014      435.532017    ;  uncertainty theta = 0.004209, k = 0.158898
        16        17        18     1      123.501366      456.352677    ;  uncertainty theta = 0.005023, k = 0.165785
        16        17        39     1      116.412292      362.017287    ;  uncertainty theta = 0.004553, k = 0.326182
        16        21        20     1      120.223526      519.136810    ;  uncertainty theta = 0.002158, k = 0.114027
        16        21        32     1      118.104469      268.608669    ;  uncertainty theta = 0.001804, k = 0.106971
        17        16        21     1      123.538086      374.144956    ;  uncertainty theta = 0.006823, k = 0.134303
        17        18        19     1      121.803673      505.387407    ;  uncertainty theta = 0.002662, k = 0.095887
        17        18        37     1      116.363358      261.335637    ;  uncertainty theta = 0.003999, k = 0.088724
        17        39        38     1      112.699913      651.544232    ;  uncertainty theta = 0.001365, k = 0.051146
        17        39        40     1      112.699913      651.544232    ;  uncertainty theta = 0.001365, k = 0.051146
        17        39        41     1      112.699913      651.544296    ;  uncertainty theta = 0.001365, k = 0.051146
        18        17        39     1      116.801773      369.862574    ;  uncertainty theta = 0.004593, k = 0.154330
        18        19        20     1      118.563011      522.101190    ;  uncertainty theta = 0.001344, k = 0.029631
        18        19        36     1      120.011024      286.400405    ;  uncertainty theta = 0.001308, k = 0.076103
        19        18        37     1      120.561691      284.635280    ;  uncertainty theta = 0.001857, k = 0.034546
        19        20        21     1      119.166763      516.763934    ;  uncertainty theta = 0.002492, k = 0.019917
        19        20        35     1      120.651489      285.757094    ;  uncertainty theta = 0.000754, k = 0.014166
        20        19        36     1      120.909569      289.072545    ;  uncertainty theta = 0.001785, k = 0.028508
        20        21        32     1      120.973190      289.266180    ;  uncertainty theta = 0.001583, k = 0.016274
        21        20        35     1      119.836288      280.665888    ;  uncertainty theta = 0.002107, k = 0.020314
        26        12        27     1      104.532616      313.868120    ;  uncertainty theta = 0.003533, k = 0.064476
        28        13        29     1      105.092697      317.561425    ;  uncertainty theta = 0.002566, k = 0.027591
        30        14        31     1      107.503983      332.057469    ;  uncertainty theta = 0.002049, k = 0.038583
        38        39        40     1      107.981583      812.180311    ;  uncertainty theta = 0.001364, k = 0.046759
        38        39        41     1      107.981583      812.180311    ;  uncertainty theta = 0.001364, k = 0.046758
        40        39        41     1      107.981583      812.180184    ;  uncertainty theta = 0.001364, k = 0.046758

[ dihedrals ] ; propers for gromacs 4.5 or higher, use funct 9
;       ai        aj        ak        al funct           phase               k        pn
         1         2         4        11     9        0.000000       -1.372021         1    ;  uncertainty k = 1.492730
         1         2         4        11     9      180.000000        2.371115         2    ;  uncertainty k = 0.300482
         1         2         4        11     9        0.000000        0.292116         3    ;  uncertainty k = 0.252771
         1         2         4        11     9      180.000000        0.155159         4    ;  uncertainty k = 0.093475
         1         2         4        33     9        0.000000        1.707823         1    ;  uncertainty k = 0.704832
         1         2         4        33     9      180.000000        3.884647         2    ;  uncertainty k = 0.565808
         1         2         4        33     9        0.000000        0.749129         3    ;  uncertainty k = 0.264976
         1         2         4        33     9      180.000000        0.174104         4    ;  uncertainty k = 0.159693
         2         4        11        10     9        0.000000        0.658377         1    ;  uncertainty k = 1.317360
         2         4        11        10     9      180.000000       11.269219         2    ;  uncertainty k = 0.349150
         2         4        11        10     9        0.000000        2.080317         3    ;  uncertainty k = 0.240036
         2         4        11        10     9      180.000000        0.676709         4    ;  uncertainty k = 0.169861
         2         4        11        12     9        0.000000        0.204708         1    ;  uncertainty k = 0.747460
         2         4        11        12     9      180.000000        9.233953         2    ;  uncertainty k = 0.447590
         2         4        11        12     9        0.000000        1.675443         3    ;  uncertainty k = 0.293006
         2         4        11        12     9      180.000000        0.426607         4    ;  uncertainty k = 0.323880
         2         4        33         5     9        0.000000       -0.464998         1    ;  uncertainty k = 2.171907
         2         4        33         5     9      180.000000        6.451220         2    ;  uncertainty k = 1.089854
         2         4        33         5     9        0.000000        1.609707         3    ;  uncertainty k = 0.687909
         2         4        33         5     9      180.000000        0.292935         4    ;  uncertainty k = 0.259665
         2         4        33        34     9        0.000000        1.253701         1    ;  uncertainty k = 2.041217
         2         4        33        34     9      180.000000        2.479089         2    ;  uncertainty k = 1.021447
         2         4        33        34     9        0.000000        1.291813         3    ;  uncertainty k = 0.578698
         2         4        33        34     9      180.000000       -0.030601         4    ;  uncertainty k = 0.146306
         3         2         4        11     9        0.000000       -1.372021         1    ;  uncertainty k = 1.492730
         3         2         4        11     9      180.000000        2.371115         2    ;  uncertainty k = 0.300482
         3         2         4        11     9        0.000000        0.292116         3    ;  uncertainty k = 0.252771
         3         2         4        11     9      180.000000        0.155159         4    ;  uncertainty k = 0.093475
         3         2         4        33     9        0.000000        1.707823         1    ;  uncertainty k = 0.704832
         3         2         4        33     9      180.000000        3.884647         2    ;  uncertainty k = 0.565808
         3         2         4        33     9        0.000000        0.749129         3    ;  uncertainty k = 0.264976
         3         2         4        33     9      180.000000        0.174104         4    ;  uncertainty k = 0.159693
         4        11        10         5     9        0.000000        0.171220         1    ;  uncertainty k = 0.432161
         4        11        10         5     9      180.000000       11.967638         2    ;  uncertainty k = 1.294698
         4        11        10         5     9        0.000000       -9.909327         3    ;  uncertainty k = 1.605977
         4        11        10         5     9      180.000000        2.102653         4    ;  uncertainty k = 0.733398
         4        11        10         9     9        0.000000        0.079803         1    ;  uncertainty k = 1.313243
         4        11        10         9     9      180.000000        5.721978         2    ;  uncertainty k = 0.321426
         4        11        10         9     9        0.000000        0.431775         3    ;  uncertainty k = 0.611745
         4        11        10         9     9      180.000000        0.952472         4    ;  uncertainty k = 0.149862
         4        11        12        13     9        0.000000       -0.349976         1    ;  uncertainty k = 1.059919
         4        11        12        13     9      180.000000        1.470982         2    ;  uncertainty k = 0.379967
         4        11        12        13     9        0.000000        0.213574         3    ;  uncertainty k = 0.480671
         4        11        12        13     9      180.000000        0.121645         4    ;  uncertainty k = 0.162937
         4        11        12        26     9        0.000000        1.439359         1    ;  uncertainty k = 0.397283
         4        11        12        26     9      180.000000        2.614207         2    ;  uncertainty k = 0.334496
         4        11        12        26     9        0.000000        0.055715         3    ;  uncertainty k = 0.092065
         4        11        12        26     9      180.000000        0.180012         4    ;  uncertainty k = 0.123046
         4        11        12        27     9        0.000000        1.439359         1    ;  uncertainty k = 0.397283
         4        11        12        27     9      180.000000        2.614207         2    ;  uncertainty k = 0.334496
         4        11        12        27     9        0.000000        0.055715         3    ;  uncertainty k = 0.092065
         4        11        12        27     9      180.000000        0.180012         4    ;  uncertainty k = 0.123046
         4        33         5         6     9        0.000000        0.779094         1    ;  uncertainty k = 1.611142
         4        33         5         6     9      180.000000        6.072861         2    ;  uncertainty k = 1.235288
         4        33         5         6     9        0.000000        0.738725         3    ;  uncertainty k = 0.606503
         4        33         5         6     9      180.000000        0.313530         4    ;  uncertainty k = 0.310389
         4        33         5        10     9        0.000000       -0.304471         1    ;  uncertainty k = 0.989395
         4        33         5        10     9      180.000000       15.047901         2    ;  uncertainty k = 1.046721
         4        33         5        10     9        0.000000       -8.395770         3    ;  uncertainty k = 1.919282
         4        33         5        10     9      180.000000        0.648752         4    ;  uncertainty k = 0.607428
         5         6         7         8     9        0.000000       -0.007204         1    ;  uncertainty k = 0.352017
         5         6         7         8     9      180.000000       16.955015         2    ;  uncertainty k = 0.265826
         5         6         7         8     9        0.000000       -0.377243         3    ;  uncertainty k = 0.370601
         5         6         7         8     9      180.000000        0.608270         4    ;  uncertainty k = 0.292320
         5         6         7        23     9        0.000000        0.031156         1    ;  uncertainty k = 0.336940
         5         6         7        23     9      180.000000       10.941246         2    ;  uncertainty k = 0.419077
         5         6         7        23     9        0.000000        1.421256         3    ;  uncertainty k = 0.272944
         5         6         7        23     9      180.000000        1.557433         4    ;  uncertainty k = 0.258138
         5        10         9         8     9        0.000000        0.010948         1    ;  uncertainty k = 0.402869
         5        10         9         8     9      180.000000       13.710034         2    ;  uncertainty k = 0.163194
         5        10         9         8     9        0.000000       -1.521568         3    ;  uncertainty k = 0.300487
         5        10         9         8     9      180.000000        0.694567         4    ;  uncertainty k = 0.283041
         5        10         9        25     9        0.000000        0.253366         1    ;  uncertainty k = 0.171030
         5        10         9        25     9      180.000000        7.059567         2    ;  uncertainty k = 0.776058
         5        10         9        25     9        0.000000        1.466229         3    ;  uncertainty k = 0.353750
         5        10         9        25     9      180.000000        1.230009         4    ;  uncertainty k = 0.397540
         5        10        11        12     9        0.000000        1.338495         1    ;  uncertainty k = 1.087086
         5        10        11        12     9      180.000000       10.551108         2    ;  uncertainty k = 0.351316
         5        10        11        12     9        0.000000        1.801678         3    ;  uncertainty k = 0.392566
         5        10        11        12     9      180.000000        0.257171         4    ;  uncertainty k = 0.352643
         5        33         4        11     9        0.000000       -0.469081         1    ;  uncertainty k = 0.858054
         5        33         4        11     9      180.000000       14.635346         2    ;  uncertainty k = 0.621844
         5        33         4        11     9        0.000000       -5.847696         3    ;  uncertainty k = 1.154312
         5        33         4        11     9      180.000000        0.763949         4    ;  uncertainty k = 0.332867
         6         5        10         9     9        0.000000       -0.557459         1    ;  uncertainty k = 0.504536
         6         5        10         9     9      180.000000        7.175498         2    ;  uncertainty k = 0.762478
         6         5        10         9     9        0.000000        0.165063         3    ;  uncertainty k = 0.420578
         6         5        10         9     9      180.000000        0.902459         4    ;  uncertainty k = 0.405275
         6         5        10        11     9        0.000000       -0.095996         1    ;  uncertainty k = 0.579182
         6         5        10        11     9      180.000000        7.141608         2    ;  uncertainty k = 0.626861
         6         5        10        11     9        0.000000        0.190982         3    ;  uncertainty k = 0.555203
         6         5        10        11     9      180.000000        1.106105         4    ;  uncertainty k = 0.382286
         6         5        33        34     9        0.000000        1.556211         1    ;  uncertainty k = 0.864779
         6         5        33        34     9      180.000000        1.456879         2    ;  uncertainty k = 0.823313
         6         5        33        34     9        0.000000        1.223414         3    ;  uncertainty k = 0.515923
         6         5        33        34     9      180.000000        0.185999         4    ;  uncertainty k = 0.197024
         6         7         8         9     9        0.000000       -0.216392         1    ;  uncertainty k = 0.203221
         6         7         8         9     9      180.000000       12.688314         2    ;  uncertainty k = 0.287114
         6         7         8         9     9        0.000000       -0.841327         3    ;  uncertainty k = 0.664749
         6         7         8         9     9      180.000000        0.649352         4    ;  uncertainty k = 0.206451
         6         7         8        24     9        0.000000        0.020527         1    ;  uncertainty k = 0.059042
         6         7         8        24     9      180.000000        6.989280         2    ;  uncertainty k = 0.437421
         6         7         8        24     9        0.000000        1.365009         3    ;  uncertainty k = 0.283914
         6         7         8        24     9      180.000000        1.623914         4    ;  uncertainty k = 0.216596
         7         6         5        10     9        0.000000       -0.061762         1    ;  uncertainty k = 0.380516
         7         6         5        10     9      180.000000       12.578005         2    ;  uncertainty k = 0.240233
         7         6         5        10     9        0.000000       -1.274716         3    ;  uncertainty k = 0.208709
         7         6         5        10     9      180.000000        0.774303         4    ;  uncertainty k = 0.287170
         7         6         5        33     9        0.000000       -0.040937         1    ;  uncertainty k = 0.255560
         7         6         5        33     9      180.000000       11.252463         2    ;  uncertainty k = 0.580598
         7         6         5        33     9        0.000000        0.539336         3    ;  uncertainty k = 0.344721
         7         6         5        33     9      180.000000        1.022385         4    ;  uncertainty k = 0.303790
         7         8         9        10     9        0.000000        0.019920         1    ;  uncertainty k = 0.483038
         7         8         9        10     9      180.000000       16.879730         2    ;  uncertainty k = 0.325142
         7         8         9        10     9        0.000000       -0.454716         3    ;  uncertainty k = 0.474507
         7         8         9        10     9      180.000000        0.578125         4    ;  uncertainty k = 0.391909
         7         8         9        25     9        0.000000        0.168636         1    ;  uncertainty k = 0.193240
         7         8         9        25     9      180.000000        8.751745         2    ;  uncertainty k = 0.517235
         7         8         9        25     9        0.000000        1.537662         3    ;  uncertainty k = 0.246200
         7         8         9        25     9      180.000000        1.882842         4    ;  uncertainty k = 0.288260
         8         7         6        22     9        0.000000        0.165182         1    ;  uncertainty k = 0.216912
         8         7         6        22     9      180.000000        8.873569         2    ;  uncertainty k = 0.614610
         8         7         6        22     9        0.000000        1.622975         3    ;  uncertainty k = 0.261540
         8         7         6        22     9      180.000000        1.905453         4    ;  uncertainty k = 0.326822
         8         9        10        11     9        0.000000        0.249753         1    ;  uncertainty k = 0.103663
         8         9        10        11     9      180.000000        9.179070         2    ;  uncertainty k = 0.411370
         8         9        10        11     9        0.000000        0.517062         3    ;  uncertainty k = 0.430347
         8         9        10        11     9      180.000000        1.153234         4    ;  uncertainty k = 0.143424
         9         8         7        23     9        0.000000       -0.030439         1    ;  uncertainty k = 0.102038
         9         8         7        23     9      180.000000        6.901165         2    ;  uncertainty k = 0.417183
         9         8         7        23     9        0.000000        1.354655         3    ;  uncertainty k = 0.214825
         9         8         7        23     9      180.000000        1.587525         4    ;  uncertainty k = 0.176781
         9        10         5        33     9        0.000000       -0.032223         1    ;  uncertainty k = 0.572800
         9        10         5        33     9      180.000000        8.643799         2    ;  uncertainty k = 0.269496
         9        10         5        33     9        0.000000       -0.453955         3    ;  uncertainty k = 0.641368
         9        10         5        33     9      180.000000        1.174833         4    ;  uncertainty k = 0.384480
         9        10        11        12     9        0.000000        0.238961         1    ;  uncertainty k = 1.397644
         9        10        11        12     9      180.000000        5.787109         2    ;  uncertainty k = 0.469515
         9        10        11        12     9        0.000000        1.699642         3    ;  uncertainty k = 0.321923
         9        10        11        12     9      180.000000        0.173483         4    ;  uncertainty k = 0.188688
        10         5         6        22     9        0.000000        0.319122         1    ;  uncertainty k = 0.490757
        10         5         6        22     9      180.000000        6.345798         2    ;  uncertainty k = 0.822340
        10         5         6        22     9        0.000000        1.324954         3    ;  uncertainty k = 0.253224
        10         5         6        22     9      180.000000        1.101595         4    ;  uncertainty k = 0.359631
        10         5        33        34     9        0.000000        6.104771         1    ;  uncertainty k = 2.118850
        10         5        33        34     9      180.000000        4.638186         2    ;  uncertainty k = 1.440061
        10         5        33        34     9        0.000000        1.257718         3    ;  uncertainty k = 0.462506
        10         5        33        34     9      180.000000        0.319293         4    ;  uncertainty k = 0.097073
        10         9         8        24     9        0.000000        0.118303         1    ;  uncertainty k = 0.391732
        10         9         8        24     9      180.000000       10.979734         2    ;  uncertainty k = 0.363860
        10         9         8        24     9        0.000000        1.498292         3    ;  uncertainty k = 0.324461
        10         9         8        24     9      180.000000        1.658169         4    ;  uncertainty k = 0.294311
        10        11         4        33     9        0.000000       -0.343459         1    ;  uncertainty k = 0.628998
        10        11         4        33     9      180.000000       19.851697         2    ;  uncertainty k = 0.337386
        10        11         4        33     9        0.000000       -6.038290         3    ;  uncertainty k = 1.696783
        10        11         4        33     9      180.000000        1.027795         4    ;  uncertainty k = 0.436841
        10        11        12        13     9        0.000000       -0.219350         1    ;  uncertainty k = 1.004792
        10        11        12        13     9      180.000000        1.088397         2    ;  uncertainty k = 0.671793
        10        11        12        13     9        0.000000        0.696652         3    ;  uncertainty k = 0.268337
        10        11        12        13     9      180.000000        0.164044         4    ;  uncertainty k = 0.059900
        10        11        12        26     9        0.000000       -0.686921         1    ;  uncertainty k = 0.448582
        10        11        12        26     9      180.000000        2.071241         2    ;  uncertainty k = 0.415243
        10        11        12        26     9        0.000000        0.779274         3    ;  uncertainty k = 0.145606
        10        11        12        26     9      180.000000        0.211883         4    ;  uncertainty k = 0.077331
        10        11        12        27     9        0.000000       -0.686921         1    ;  uncertainty k = 0.448582
        10        11        12        27     9      180.000000        2.071241         2    ;  uncertainty k = 0.415243
        10        11        12        27     9        0.000000        0.779274         3    ;  uncertainty k = 0.145606
        10        11        12        27     9      180.000000        0.211883         4    ;  uncertainty k = 0.077331
        11         4        33        34     9        0.000000        3.994326         1    ;  uncertainty k = 2.809201
        11         4        33        34     9      180.000000        7.262693         2    ;  uncertainty k = 0.379220
        11         4        33        34     9        0.000000        1.858365         3    ;  uncertainty k = 0.686233
        11         4        33        34     9      180.000000       -0.114664         4    ;  uncertainty k = 0.351651
        11        10         5        33     9        0.000000       -0.200093         1    ;  uncertainty k = 0.424326
        11        10         5        33     9      180.000000       12.998296         2    ;  uncertainty k = 0.637101
        11        10         5        33     9        0.000000       -4.487286         3    ;  uncertainty k = 1.787354
        11        10         5        33     9      180.000000        1.376048         4    ;  uncertainty k = 0.852459
        11        10         9        25     9        0.000000        0.623609         1    ;  uncertainty k = 0.818827
        11        10         9        25     9      180.000000        5.597100         2    ;  uncertainty k = 0.476519
        11        10         9        25     9        0.000000        1.146276         3    ;  uncertainty k = 0.356005
        11        10         9        25     9      180.000000        0.780142         4    ;  uncertainty k = 0.277118
        11        12        13        14     9        0.000000       -2.776189         1    ;  uncertainty k = 1.013530
        11        12        13        14     9      180.000000       -0.432262         2    ;  uncertainty k = 0.383339
        11        12        13        14     9        0.000000        1.342246         3    ;  uncertainty k = 0.124146
        11        12        13        14     9      180.000000       -0.314463         4    ;  uncertainty k = 0.108584
        11        12        13        28     9        0.000000        0.428587         1    ;  uncertainty k = 0.616136
        11        12        13        28     9      180.000000       -0.329644         2    ;  uncertainty k = 0.354693
        11        12        13        28     9        0.000000        1.117197         3    ;  uncertainty k = 0.164143
        11        12        13        28     9      180.000000        0.004866         4    ;  uncertainty k = 0.054513
        11        12        13        29     9        0.000000        0.428587         1    ;  uncertainty k = 0.616136
        11        12        13        29     9      180.000000       -0.329644         2    ;  uncertainty k = 0.354693
        11        12        13        29     9        0.000000        1.117197         3    ;  uncertainty k = 0.164143
        11        12        13        29     9      180.000000        0.004866         4    ;  uncertainty k = 0.054513
        12        11         4        33     9        0.000000        0.421908         1    ;  uncertainty k = 0.686279
        12        11         4        33     9      180.000000       16.338015         2    ;  uncertainty k = 0.475382
        12        11         4        33     9        0.000000        1.239769         3    ;  uncertainty k = 0.508643
        12        11         4        33     9      180.000000        0.759832         4    ;  uncertainty k = 0.322483
        12        13        14        15     9        0.000000       -3.878014         1    ;  uncertainty k = 1.088146
        12        13        14        15     9      180.000000       -2.545616         2    ;  uncertainty k = 0.505718
        12        13        14        15     9        0.000000        2.205532         3    ;  uncertainty k = 0.290682
        12        13        14        15     9      180.000000       -0.464015         4    ;  uncertainty k = 0.148868
        12        13        14        30     9        0.000000       -1.880630         1    ;  uncertainty k = 0.475941
        12        13        14        30     9      180.000000        0.088883         2    ;  uncertainty k = 0.244154
        12        13        14        30     9        0.000000        0.929925         3    ;  uncertainty k = 0.062551
        12        13        14        30     9      180.000000       -0.361965         4    ;  uncertainty k = 0.104648
        12        13        14        31     9        0.000000       -1.880630         1    ;  uncertainty k = 0.475941
        12        13        14        31     9      180.000000        0.088883         2    ;  uncertainty k = 0.244154
        12        13        14        31     9        0.000000        0.929925         3    ;  uncertainty k = 0.062551
        12        13        14        31     9      180.000000       -0.361965         4    ;  uncertainty k = 0.104648
        13        14        15        16     9        0.000000       -0.979756         1    ;  uncertainty k = 0.814838
        13        14        15        16     9      180.000000       -0.599213         2    ;  uncertainty k = 0.115967
        13        14        15        16     9        0.000000        0.664751         3    ;  uncertainty k = 0.058943
        13        14        15        16     9      180.000000        0.541416         4    ;  uncertainty k = 0.077665
        14        13        12        26     9        0.000000       -1.671072         1    ;  uncertainty k = 0.367205
        14        13        12        26     9      180.000000       -0.605927         2    ;  uncertainty k = 0.313687
        14        13        12        26     9        0.000000        0.945998         3    ;  uncertainty k = 0.127309
        14        13        12        26     9      180.000000       -0.351966         4    ;  uncertainty k = 0.065354
        14        13        12        27     9        0.000000       -1.671072         1    ;  uncertainty k = 0.367205
        14        13        12        27     9      180.000000       -0.605927         2    ;  uncertainty k = 0.313687
        14        13        12        27     9        0.000000        0.945998         3    ;  uncertainty k = 0.127309
        14        13        12        27     9      180.000000       -0.351966         4    ;  uncertainty k = 0.065354
        14        15        16        17     9        0.000000       -3.510370         1    ;  uncertainty k = 1.110743
        14        15        16        17     9      180.000000        9.066350         2    ;  uncertainty k = 0.250926
        14        15        16        17     9        0.000000       -0.394914         3    ;  uncertainty k = 0.437951
        14        15        16        17     9      180.000000        0.358685         4    ;  uncertainty k = 0.147662
        14        15        16        21     9        0.000000        3.105336         1    ;  uncertainty k = 0.369269
        14        15        16        21     9      180.000000        7.299579         2    ;  uncertainty k = 0.101555
        14        15        16        21     9        0.000000        0.243361         3    ;  uncertainty k = 0.222858
        14        15        16        21     9      180.000000        0.029370         4    ;  uncertainty k = 0.071575
        15        14        13        28     9        0.000000        0.359546         1    ;  uncertainty k = 0.430983
        15        14        13        28     9      180.000000       -2.276869         2    ;  uncertainty k = 0.354296
        15        14        13        28     9        0.000000        1.413457         3    ;  uncertainty k = 0.158163
        15        14        13        28     9      180.000000        0.033233         4    ;  uncertainty k = 0.064696
        15        14        13        29     9        0.000000        0.359546         1    ;  uncertainty k = 0.430983
        15        14        13        29     9      180.000000       -2.276869         2    ;  uncertainty k = 0.354296
        15        14        13        29     9        0.000000        1.413457         3    ;  uncertainty k = 0.158163
        15        14        13        29     9      180.000000        0.033233         4    ;  uncertainty k = 0.064696
        15        16        17        18     9        0.000000        0.100841         1    ;  uncertainty k = 0.310953
        15        16        17        18     9      180.000000       10.124416         2    ;  uncertainty k = 0.330119
        15        16        17        18     9        0.000000        1.091005         3    ;  uncertainty k = 0.271569
        15        16        17        18     9      180.000000        1.617816         4    ;  uncertainty k = 0.121952
        15        16        17        39     9        0.000000       -0.084322         1    ;  uncertainty k = 1.051777
        15        16        17        39     9      180.000000       12.746692         2    ;  uncertainty k = 0.544136
        15        16        17        39     9        0.000000        0.824808         3    ;  uncertainty k = 0.292917
        15        16        17        39     9      180.000000        1.357702         4    ;  uncertainty k = 0.380506
        15        16        21        20     9        0.000000       -0.126384         1    ;  uncertainty k = 0.146786
        15        16        21        20     9      180.000000       11.502695         2    ;  uncertainty k = 0.313419
        15        16        21        20     9        0.000000        1.257079         3    ;  uncertainty k = 0.234000
        15        16        21        20     9      180.000000        1.606530         4    ;  uncertainty k = 0.145222
        15        16        21        32     9        0.000000       -0.153103         1    ;  uncertainty k = 0.318186
        15        16        21        32     9      180.000000        9.182696         2    ;  uncertainty k = 0.567877
        15        16        21        32     9        0.000000        0.674750         3    ;  uncertainty k = 0.097875
        15        16        21        32     9      180.000000        1.178651         4    ;  uncertainty k = 0.348450
        16        15        14        30     9        0.000000        0.995508         1    ;  uncertainty k = 0.502309
        16        15        14        30     9      180.000000       -1.667593         2    ;  uncertainty k = 0.334925
        16        15        14        30     9        0.000000        0.641311         3    ;  uncertainty k = 0.096210
        16        15        14        30     9      180.000000        0.279374         4    ;  uncertainty k = 0.063229
        16        15        14        31     9        0.000000        0.995508         1    ;  uncertainty k = 0.502309
        16        15        14        31     9      180.000000       -1.667593         2    ;  uncertainty k = 0.334925
        16        15        14        31     9        0.000000        0.641311         3    ;  uncertainty k = 0.096210
        16        15        14        31     9      180.000000        0.279374         4    ;  uncertainty k = 0.063229
        16        17        18        19     9        0.000000       -0.152826         1    ;  uncertainty k = 0.334294
        16        17        18        19     9      180.000000       11.396081         2    ;  uncertainty k = 0.466468
        16        17        18        19     9        0.000000       -0.138137         3    ;  uncertainty k = 0.347754
        16        17        18        19     9      180.000000        1.059835         4    ;  uncertainty k = 0.270368
        16        17        18        37     9        0.000000       -0.059357         1    ;  uncertainty k = 0.252747
        16        17        18        37     9      180.000000        8.310502         2    ;  uncertainty k = 0.195978
        16        17        18        37     9        0.000000        1.181102         3    ;  uncertainty k = 0.444767
        16        17        18        37     9      180.000000        1.563894         4    ;  uncertainty k = 0.132230
        16        17        39        38     9        0.000000        0.371607         1    ;  uncertainty k = 0.505947
        16        17        39        38     9      180.000000        2.604763         2    ;  uncertainty k = 0.515100
        16        17        39        38     9        0.000000        0.975762         3    ;  uncertainty k = 0.137044
        16        17        39        38     9      180.000000        0.245437         4    ;  uncertainty k = 0.073012
        16        17        39        40     9        0.000000        0.371607         1    ;  uncertainty k = 0.505947
        16        17        39        40     9      180.000000        2.604763         2    ;  uncertainty k = 0.515100
        16        17        39        40     9        0.000000        0.975762         3    ;  uncertainty k = 0.137044
        16        17        39        40     9      180.000000        0.245437         4    ;  uncertainty k = 0.073012
        16        17        39        41     9        0.000000        0.371607         1    ;  uncertainty k = 0.505947
        16        17        39        41     9      180.000000        2.604764         2    ;  uncertainty k = 0.515100
        16        17        39        41     9        0.000000        0.975763         3    ;  uncertainty k = 0.137044
        16        17        39        41     9      180.000000        0.245437         4    ;  uncertainty k = 0.073012
        16        21        20        19     9        0.000000       -0.156647         1    ;  uncertainty k = 0.225114
        16        21        20        19     9      180.000000       14.186287         2    ;  uncertainty k = 0.279673
        16        21        20        19     9        0.000000       -0.862167         3    ;  uncertainty k = 0.378050
        16        21        20        19     9      180.000000        0.787567         4    ;  uncertainty k = 0.178311
        16        21        20        35     9        0.000000       -0.002107         1    ;  uncertainty k = 0.304723
        16        21        20        35     9      180.000000        7.757211         2    ;  uncertainty k = 0.339609
        16        21        20        35     9        0.000000        1.406548         3    ;  uncertainty k = 0.199754
        16        21        20        35     9      180.000000        1.666613         4    ;  uncertainty k = 0.106355
        17        16        21        20     9        0.000000        0.064771         1    ;  uncertainty k = 0.402089
        17        16        21        20     9      180.000000        7.501711         2    ;  uncertainty k = 0.483122
        17        16        21        20     9        0.000000        0.543301         3    ;  uncertainty k = 0.440239
        17        16        21        20     9      180.000000        1.432989         4    ;  uncertainty k = 0.235130
        17        16        21        32     9        0.000000        0.138409         1    ;  uncertainty k = 0.349204
        17        16        21        32     9      180.000000        5.924571         2    ;  uncertainty k = 0.385121
        17        16        21        32     9        0.000000        1.463490         3    ;  uncertainty k = 0.373430
        17        16        21        32     9      180.000000        1.663366         4    ;  uncertainty k = 0.145887
        17        18        19        20     9        0.000000       -0.161167         1    ;  uncertainty k = 0.244201
        17        18        19        20     9      180.000000       12.700914         2    ;  uncertainty k = 0.416735
        17        18        19        20     9        0.000000       -0.695047         3    ;  uncertainty k = 0.428375
        17        18        19        20     9      180.000000        0.790172         4    ;  uncertainty k = 0.296810
        17        18        19        36     9        0.000000        0.200840         1    ;  uncertainty k = 0.311509
        17        18        19        36     9      180.000000        7.363242         2    ;  uncertainty k = 0.457343
        17        18        19        36     9        0.000000        1.451595         3    ;  uncertainty k = 0.314276
        17        18        19        36     9      180.000000        1.786080         4    ;  uncertainty k = 0.128251
        18        17        16        21     9        0.000000       -0.182840         1    ;  uncertainty k = 0.435809
        18        17        16        21     9      180.000000        6.372719         2    ;  uncertainty k = 0.549861
        18        17        16        21     9        0.000000        0.376026         3    ;  uncertainty k = 0.272991
        18        17        16        21     9      180.000000        1.299337         4    ;  uncertainty k = 0.254045
        18        17        39        38     9        0.000000       -0.459261         1    ;  uncertainty k = 0.261096
        18        17        39        38     9      180.000000        2.569934         2    ;  uncertainty k = 0.235120
        18        17        39        38     9        0.000000        0.264450         3    ;  uncertainty k = 0.044753
        18        17        39        38     9      180.000000        0.145247         4    ;  uncertainty k = 0.035174
        18        17        39        40     9        0.000000       -0.459261         1    ;  uncertainty k = 0.261096
        18        17        39        40     9      180.000000        2.569934         2    ;  uncertainty k = 0.235120
        18        17        39        40     9        0.000000        0.264450         3    ;  uncertainty k = 0.044753
        18        17        39        40     9      180.000000        0.145247         4    ;  uncertainty k = 0.035174
        18        17        39        41     9        0.000000       -0.459260         1    ;  uncertainty k = 0.261095
        18        17        39        41     9      180.000000        2.569934         2    ;  uncertainty k = 0.235120
        18        17        39        41     9        0.000000        0.264450         3    ;  uncertainty k = 0.044753
        18        17        39        41     9      180.000000        0.145247         4    ;  uncertainty k = 0.035174
        18        19        20        21     9        0.000000       -0.018053         1    ;  uncertainty k = 0.194488
        18        19        20        21     9      180.000000       14.971663         2    ;  uncertainty k = 0.265995
        18        19        20        21     9        0.000000       -1.183170         3    ;  uncertainty k = 0.481422
        18        19        20        21     9      180.000000        0.599471         4    ;  uncertainty k = 0.238557
        18        19        20        35     9        0.000000        0.091684         1    ;  uncertainty k = 0.149806
        18        19        20        35     9      180.000000        7.540530         2    ;  uncertainty k = 0.224020
        18        19        20        35     9        0.000000        1.475450         3    ;  uncertainty k = 0.300153
        18        19        20        35     9      180.000000        1.739512         4    ;  uncertainty k = 0.143549
        19        18        17        39     9        0.000000        0.156521         1    ;  uncertainty k = 0.392925
        19        18        17        39     9      180.000000       10.652153         2    ;  uncertainty k = 0.514761
        19        18        17        39     9        0.000000        1.609247         3    ;  uncertainty k = 0.354048
        19        18        17        39     9      180.000000        1.921476         4    ;  uncertainty k = 0.330283
        19        20        21        32     9        0.000000        0.091110         1    ;  uncertainty k = 0.183699
        19        20        21        32     9      180.000000        7.840784         2    ;  uncertainty k = 0.252664
        19        20        21        32     9        0.000000        1.468277         3    ;  uncertainty k = 0.258573
        19        20        21        32     9      180.000000        1.862763         4    ;  uncertainty k = 0.112213
        20        19        18        37     9        0.000000        0.004502         1    ;  uncertainty k = 0.142743
        20        19        18        37     9      180.000000        7.622342         2    ;  uncertainty k = 0.393000
        20        19        18        37     9        0.000000        1.319631         3    ;  uncertainty k = 0.234333
        20        19        18        37     9      180.000000        1.746472         4    ;  uncertainty k = 0.193831
        21        16        17        39     9        0.000000        0.413788         1    ;  uncertainty k = 0.253412
        21        16        17        39     9      180.000000        7.636401         2    ;  uncertainty k = 0.264548
        21        16        17        39     9        0.000000        1.326268         3    ;  uncertainty k = 0.356539
        21        16        17        39     9      180.000000        1.797489         4    ;  uncertainty k = 0.159498
        21        20        19        36     9        0.000000        0.153984         1    ;  uncertainty k = 0.246631
        21        20        19        36     9      180.000000        7.849855         2    ;  uncertainty k = 0.440001
        21        20        19        36     9        0.000000        1.482496         3    ;  uncertainty k = 0.247857
        21        20        19        36     9      180.000000        1.811432         4    ;  uncertainty k = 0.107330
        22         6         5        33     9        0.000000        0.248356         1    ;  uncertainty k = 0.309441
        22         6         5        33     9      180.000000        6.219890         2    ;  uncertainty k = 0.560809
        22         6         5        33     9        0.000000        1.223843         3    ;  uncertainty k = 0.395076
        22         6         5        33     9      180.000000        0.794522         4    ;  uncertainty k = 0.403871
        22         6         7        23     9        0.000000        0.067635         1    ;  uncertainty k = 0.257851
        22         6         7        23     9      180.000000        7.678575         2    ;  uncertainty k = 0.249765
        22         6         7        23     9        0.000000       -0.249178         3    ;  uncertainty k = 0.224083
        22         6         7        23     9      180.000000        0.128053         4    ;  uncertainty k = 0.127116
        23         7         8        24     9        0.000000        0.024825         1    ;  uncertainty k = 0.154579
        23         7         8        24     9      180.000000        6.825470         2    ;  uncertainty k = 0.478217
        23         7         8        24     9        0.000000       -0.239724         3    ;  uncertainty k = 0.197508
        23         7         8        24     9      180.000000        0.091582         4    ;  uncertainty k = 0.138206
        24         8         9        25     9        0.000000        0.081241         1    ;  uncertainty k = 0.094303
        24         8         9        25     9      180.000000        7.822590         2    ;  uncertainty k = 0.225676
        24         8         9        25     9        0.000000       -0.195366         3    ;  uncertainty k = 0.265935
        24         8         9        25     9      180.000000        0.166865         4    ;  uncertainty k = 0.178530
        26        12        13        28     9        0.000000        0.852998         1    ;  uncertainty k = 0.162312
        26        12        13        28     9      180.000000       -0.684815         2    ;  uncertainty k = 0.290805
        26        12        13        28     9        0.000000        0.190526         3    ;  uncertainty k = 0.067767
        26        12        13        28     9      180.000000        0.009351         4    ;  uncertainty k = 0.042473
        26        12        13        29     9        0.000000        0.852998         1    ;  uncertainty k = 0.162312
        26        12        13        29     9      180.000000       -0.684815         2    ;  uncertainty k = 0.290805
        26        12        13        29     9        0.000000        0.190526         3    ;  uncertainty k = 0.067767
        26        12        13        29     9      180.000000        0.009351         4    ;  uncertainty k = 0.042473
        27        12        13        28     9        0.000000        0.852998         1    ;  uncertainty k = 0.162312
        27        12        13        28     9      180.000000       -0.684815         2    ;  uncertainty k = 0.290805
        27        12        13        28     9        0.000000        0.190526         3    ;  uncertainty k = 0.067767
        27        12        13        28     9      180.000000        0.009351         4    ;  uncertainty k = 0.042473
        27        12        13        29     9        0.000000        0.852998         1    ;  uncertainty k = 0.162312
        27        12        13        29     9      180.000000       -0.684815         2    ;  uncertainty k = 0.290805
        27        12        13        29     9        0.000000        0.190526         3    ;  uncertainty k = 0.067767
        27        12        13        29     9      180.000000        0.009351         4    ;  uncertainty k = 0.042473
        28        13        14        30     9        0.000000        0.466640         1    ;  uncertainty k = 0.128300
        28        13        14        30     9      180.000000       -0.425604         2    ;  uncertainty k = 0.142653
        28        13        14        30     9        0.000000        0.107343         3    ;  uncertainty k = 0.078717
        28        13        14        30     9      180.000000       -0.038564         4    ;  uncertainty k = 0.071588
        28        13        14        31     9        0.000000        0.466640         1    ;  uncertainty k = 0.128300
        28        13        14        31     9      180.000000       -0.425604         2    ;  uncertainty k = 0.142653
        28        13        14        31     9        0.000000        0.107343         3    ;  uncertainty k = 0.078717
        28        13        14        31     9      180.000000       -0.038564         4    ;  uncertainty k = 0.071588
        29        13        14        30     9        0.000000        0.466640         1    ;  uncertainty k = 0.128300
        29        13        14        30     9      180.000000       -0.425604         2    ;  uncertainty k = 0.142653
        29        13        14        30     9        0.000000        0.107343         3    ;  uncertainty k = 0.078717
        29        13        14        30     9      180.000000       -0.038564         4    ;  uncertainty k = 0.071588
        29        13        14        31     9        0.000000        0.466640         1    ;  uncertainty k = 0.128300
        29        13        14        31     9      180.000000       -0.425604         2    ;  uncertainty k = 0.142653
        29        13        14        31     9        0.000000        0.107343         3    ;  uncertainty k = 0.078717
        29        13        14        31     9      180.000000       -0.038564         4    ;  uncertainty k = 0.071588
        32        21        20        35     9        0.000000       -0.065931         1    ;  uncertainty k = 0.065048
        32        21        20        35     9      180.000000        7.700435         2    ;  uncertainty k = 0.331835
        32        21        20        35     9        0.000000       -0.476188         3    ;  uncertainty k = 0.292621
        32        21        20        35     9      180.000000        0.093387         4    ;  uncertainty k = 0.157394
        35        20        19        36     9        0.000000       -0.007006         1    ;  uncertainty k = 0.059458
        35        20        19        36     9      180.000000        7.671526         2    ;  uncertainty k = 0.435469
        35        20        19        36     9        0.000000       -0.406399         3    ;  uncertainty k = 0.310969
        35        20        19        36     9      180.000000        0.034822         4    ;  uncertainty k = 0.176636
        36        19        18        37     9        0.000000        0.057722         1    ;  uncertainty k = 0.189020
        36        19        18        37     9      180.000000        7.749293         2    ;  uncertainty k = 0.441577
        36        19        18        37     9        0.000000       -0.357177         3    ;  uncertainty k = 0.250020
        36        19        18        37     9      180.000000        0.125994         4    ;  uncertainty k = 0.146724
        37        18        17        39     9        0.000000        0.051214         1    ;  uncertainty k = 0.267654
        37        18        17        39     9      180.000000        8.971182         2    ;  uncertainty k = 0.542742
        37        18        17        39     9        0.000000        0.714622         3    ;  uncertainty k = 0.192489
        37        18        17        39     9      180.000000        1.145649         4    ;  uncertainty k = 0.161277

[ dihedrals ] ; impropers
;       ai        aj        ak        al funct           phase               k        pn
         2         1         3         4     4      180.000000       64.265870         2    ;  uncertainty k = 0.050254
         2         3         4         1     4      180.000000       64.265870         2    ;  uncertainty k = 0.050254
         2         4         1         3     4      180.000000       64.265870         2    ;  uncertainty k = 0.050254
         4         2        11        33     4      180.000000        5.876961         2    ;  uncertainty k = 0.526652
         4        11        33         2     4      180.000000        5.876961         2    ;  uncertainty k = 0.526652
         4        33         2        11     4      180.000000        5.876961         2    ;  uncertainty k = 0.526652
         5         6        10        33     4      180.000000        1.057348         2    ;  uncertainty k = 0.904202
         5        10        33         6     4      180.000000        1.057348         2    ;  uncertainty k = 0.904202
         5        33         6        10     4      180.000000        1.057348         2    ;  uncertainty k = 0.904202
         6         5         7        22     4      180.000000        2.336037         2    ;  uncertainty k = 0.300690
         6         7        22         5     4      180.000000        2.336037         2    ;  uncertainty k = 0.300690
         6        22         5         7     4      180.000000        2.336037         2    ;  uncertainty k = 0.300690
         7         6         8        23     4      180.000000        3.761581         2    ;  uncertainty k = 0.188539
         7         8        23         6     4      180.000000        3.761581         2    ;  uncertainty k = 0.188539
         7        23         6         8     4      180.000000        3.761581         2    ;  uncertainty k = 0.188539
         8         7         9        24     4      180.000000        3.007353         2    ;  uncertainty k = 0.125347
         8         9        24         7     4      180.000000        3.007353         2    ;  uncertainty k = 0.125347
         8        24         7         9     4      180.000000        3.007353         2    ;  uncertainty k = 0.125347
         9         8        10        25     4      180.000000        4.051631         2    ;  uncertainty k = 0.159442
         9        10        25         8     4      180.000000        4.051631         2    ;  uncertainty k = 0.159442
         9        25         8        10     4      180.000000        4.051631         2    ;  uncertainty k = 0.159442
        11         4        10        12     4      180.000000        2.099178         2    ;  uncertainty k = 0.534873
        11        10        12         4     4      180.000000        2.099178         2    ;  uncertainty k = 0.534873
        11        12         4        10     4      180.000000        2.099178         2    ;  uncertainty k = 0.534873
        16        15        17        21     4      180.000000       20.949780         2    ;  uncertainty k = 0.082592
        16        17        21        15     4      180.000000       20.949780         2    ;  uncertainty k = 0.082592
        16        21        15        17     4      180.000000       20.949780         2    ;  uncertainty k = 0.082592
        17        16        18        39     4      180.000000        6.644144         2    ;  uncertainty k = 0.143020
        17        18        39        16     4      180.000000        6.644144         2    ;  uncertainty k = 0.143020
        17        39        16        18     4      180.000000        6.644144         2    ;  uncertainty k = 0.143020
        18        17        19        37     4      180.000000        4.679528         2    ;  uncertainty k = 0.095702
        18        19        37        17     4      180.000000        4.679528         2    ;  uncertainty k = 0.095702
        18        37        17        19     4      180.000000        4.679528         2    ;  uncertainty k = 0.095702
        19        18        20        36     4      180.000000        3.128814         2    ;  uncertainty k = 0.107565
        19        20        36        18     4      180.000000        3.128814         2    ;  uncertainty k = 0.107565
        19        36        18        20     4      180.000000        3.128814         2    ;  uncertainty k = 0.107565
        20        19        21        35     4      180.000000        4.952184         2    ;  uncertainty k = 0.113814
        20        21        35        19     4      180.000000        4.952184         2    ;  uncertainty k = 0.113814
        20        35        19        21     4      180.000000        4.952184         2    ;  uncertainty k = 0.113814
        21        16        20        32     4      180.000000        2.073306         2    ;  uncertainty k = 0.406967
        21        20        32        16     4      180.000000        2.073306         2    ;  uncertainty k = 0.406967
        21        32        16        20     4      180.000000        2.073306         2    ;  uncertainty k = 0.406967

[ pairs ]
;       ai        aj funct
         1        11     1
         1        33     1
         2         5     1
         2        10     1
         2        12     1
         2        34     1
         3        11     1
         3        33     1
         4         6     1
         4         9     1
         4        13     1
         4        26     1
         4        27     1
         5         8     1
         5        12     1
         5        23     1
         5        25     1
         6         9     1
         6        11     1
         6        24     1
         6        34     1
         7        10     1
         7        25     1
         7        33     1
         8        11     1
         8        22     1
         9        12     1
         9        23     1
         9        33     1
        10        13     1
        10        22     1
        10        24     1
        10        26     1
        10        27     1
        10        34     1
        11        14     1
        11        25     1
        11        28     1
        11        29     1
        11        34     1
        12        15     1
        12        30     1
        12        31     1
        12        33     1
        13        16     1
        14        17     1
        14        21     1
        14        26     1
        14        27     1
        15        18     1
        15        20     1
        15        28     1
        15        29     1
        15        32     1
        15        39     1
        16        19     1
        16        30     1
        16        31     1
        16        35     1
        16        37     1
        16        38     1
        16        40     1
        16        41     1
        17        20     1
        17        32     1
        17        36     1
        18        21     1
        18        35     1
        18        38     1
        18        40     1
        18        41     1
        19        32     1
        19        39     1
        20        37     1
        21        36     1
        21        39     1
        22        23     1
        22        33     1
        23        24     1
        24        25     1
        26        28     1
        26        29     1
        27        28     1
        27        29     1
        28        30     1
        28        31     1
        29        30     1
        29        31     1
        32        35     1
        35        36     1
        36        37     1
        37        39     1
