; ITP file created by ByteFF-joint-25, 2026-02-17 09:18:37.198476

[ atomtypes ]
;name           bonded.type        at.num        mass        charge   ptype           sigma         epsilon
 o0bf                                   8      0.0000       0.00000       A     3.04807e-01     6.12065e-01    ;  uncertainty sigma = 0.000018, epsilon = 0.000616
 c1bf                                   6      0.0000       0.00000       A     3.31436e-01     4.13701e-01    ;  uncertainty sigma = 0.000034, epsilon = 0.002275
 o2bf                                   8      0.0000       0.00000       A     3.04807e-01     6.12065e-01    ;  uncertainty sigma = 0.000018, epsilon = 0.000616
 c3bf                                   6      0.0000       0.00000       A     3.31527e-01     4.12548e-01    ;  uncertainty sigma = 0.000053, epsilon = 0.002675
 c4bf                                   6      0.0000       0.00000       A     3.31556e-01     4.13605e-01    ;  uncertainty sigma = 0.000009, epsilon = 0.001072
 c5bf                                   6      0.0000       0.00000       A     3.31528e-01     4.13216e-01    ;  uncertainty sigma = 0.000006, epsilon = 0.000735
 c6bf                                   6      0.0000       0.00000       A     3.31524e-01     4.13323e-01    ;  uncertainty sigma = 0.000005, epsilon = 0.000518
 c7bf                                   6      0.0000       0.00000       A     3.31524e-01     4.13320e-01    ;  uncertainty sigma = 0.000004, epsilon = 0.000654
 c8bf                                   6      0.0000       0.00000       A     3.31525e-01     4.13140e-01    ;  uncertainty sigma = 0.000007, epsilon = 0.000627
 c9bf                                   6      0.0000       0.00000       A     3.31543e-01     4.12994e-01    ;  uncertainty sigma = 0.000008, epsilon = 0.001189
 c10bf                                  6      0.0000       0.00000       A     3.31576e-01     4.13309e-01    ;  uncertainty sigma = 0.000008, epsilon = 0.001192
 c11bf                                  6      0.0000       0.00000       A     3.39773e-01     4.50718e-01    ;  uncertainty sigma = 0.000020, epsilon = 0.000757
 c12bf                                  6      0.0000       0.00000       A     3.39755e-01     4.50608e-01    ;  uncertainty sigma = 0.000006, epsilon = 0.000953
 c13bf                                  6      0.0000       0.00000       A     3.39779e-01     4.50532e-01    ;  uncertainty sigma = 0.000006, epsilon = 0.000794
 o14bf                                  8      0.0000       0.00000       A     3.15617e-01     3.03503e-01    ;  uncertainty sigma = 0.000014, epsilon = 0.000428
 c15bf                                  6      0.0000       0.00000       A     3.31522e-01     4.13178e-01    ;  uncertainty sigma = 0.000006, epsilon = 0.000699
 c16bf                                  6      0.0000       0.00000       A     3.31519e-01     4.13399e-01    ;  uncertainty sigma = 0.000002, epsilon = 0.000560
 c17bf                                  6      0.0000       0.00000       A     3.31524e-01     4.13469e-01    ;  uncertainty sigma = 0.000008, epsilon = 0.000618
 c18bf                                  6      0.0000       0.00000       A     3.31519e-01     4.13132e-01    ;  uncertainty sigma = 0.000008, epsilon = 0.000605
 c19bf                                  6      0.0000       0.00000       A     3.31524e-01     4.13469e-01    ;  uncertainty sigma = 0.000008, epsilon = 0.000618
 c20bf                                  6      0.0000       0.00000       A     3.31519e-01     4.13399e-01    ;  uncertainty sigma = 0.000002, epsilon = 0.000560
 h21bf                                  1      0.0000       0.00000       A     2.62573e-01     6.69665e-02    ;  uncertainty sigma = 0.000008, epsilon = 0.000474
 h22bf                                  1      0.0000       0.00000       A     2.62567e-01     6.69871e-02    ;  uncertainty sigma = 0.000012, epsilon = 0.000553
 h23bf                                  1      0.0000       0.00000       A     2.62563e-01     6.69792e-02    ;  uncertainty sigma = 0.000011, epsilon = 0.000555
 h24bf                                  1      0.0000       0.00000       A     2.62566e-01     6.69359e-02    ;  uncertainty sigma = 0.000011, epsilon = 0.000323
 h25bf                                  1      0.0000       0.00000       A     2.60038e-01     8.64862e-02    ;  uncertainty sigma = 0.000012, epsilon = 0.000717
 h26bf                                  1      0.0000       0.00000       A     2.60038e-01     8.64862e-02    ;  uncertainty sigma = 0.000012, epsilon = 0.000717
 h27bf                                  1      0.0000       0.00000       A     2.60032e-01     8.63750e-02    ;  uncertainty sigma = 0.000011, epsilon = 0.000877
 h28bf                                  1      0.0000       0.00000       A     2.60032e-01     8.63750e-02    ;  uncertainty sigma = 0.000011, epsilon = 0.000877
 h29bf                                  1      0.0000       0.00000       A     2.42190e-01     8.69771e-02    ;  uncertainty sigma = 0.000031, epsilon = 0.000462
 h30bf                                  1      0.0000       0.00000       A     2.42190e-01     8.69771e-02    ;  uncertainty sigma = 0.000031, epsilon = 0.000462
 h31bf                                  1      0.0000       0.00000       A     2.62560e-01     6.71344e-02    ;  uncertainty sigma = 0.000008, epsilon = 0.000451
 h32bf                                  1      0.0000       0.00000       A     2.62560e-01     6.71344e-02    ;  uncertainty sigma = 0.000008, epsilon = 0.000451
 n33bf                                  7      0.0000       0.00000       A     3.20754e-01     8.52244e-01    ;  uncertainty sigma = 0.000047, epsilon = 0.002451
 h34bf                                  1      0.0000       0.00000       A     1.10620e-01     4.09732e-02    ;  uncertainty sigma = 0.000138, epsilon = 0.001729
 h35bf                                  1      0.0000       0.00000       A     2.62566e-01     6.70585e-02    ;  uncertainty sigma = 0.000015, epsilon = 0.000589
 h36bf                                  1      0.0000       0.00000       A     2.62566e-01     6.70585e-02    ;  uncertainty sigma = 0.000015, epsilon = 0.000589
 c37bf                                  6      0.0000       0.00000       A     3.39800e-01     4.50131e-01    ;  uncertainty sigma = 0.000015, epsilon = 0.000645
 f38bf                                  9      0.0000       0.00000       A     3.03450e-01     3.47874e-01    ;  uncertainty sigma = 0.000008, epsilon = 0.001300
 f39bf                                  9      0.0000       0.00000       A     3.03450e-01     3.47874e-01    ;  uncertainty sigma = 0.000008, epsilon = 0.001300
 f40bf                                  9      0.0000       0.00000       A     3.03450e-01     3.47875e-01    ;  uncertainty sigma = 0.000008, epsilon = 0.001300

[ moleculetype ]
;name             nrexcl
 MOL                   3

[ atoms ]
;       nr            type      resi   res      atom      cgnr      charge          mass ; qtot
         1            o0bf         1   UNL        o0         1    -0.82702       15.9990 ; qtot   -0.827
         2            c1bf         1   UNL        c1         2     0.92126       12.0110 ; qtot    0.094
         3            o2bf         1   UNL        o2         3    -0.82702       15.9990 ; qtot   -0.733
         4            c3bf         1   UNL        c3         4    -0.10822       12.0110 ; qtot   -0.841
         5            c4bf         1   UNL        c4         5    -0.06744       12.0110 ; qtot   -0.908
         6            c5bf         1   UNL        c5         6    -0.16684       12.0110 ; qtot   -1.075
         7            c6bf         1   UNL        c6         7    -0.11194       12.0110 ; qtot   -1.187
         8            c7bf         1   UNL        c7         8    -0.15971       12.0110 ; qtot   -1.347
         9            c8bf         1   UNL        c8         9    -0.09713       12.0110 ; qtot   -1.444
        10            c9bf         1   UNL        c9        10    -0.10135       12.0110 ; qtot   -1.545
        11           c10bf         1   UNL       c10        11    -0.18594       12.0110 ; qtot   -1.731
        12           c11bf         1   UNL       c11        12    -0.00834       12.0110 ; qtot   -1.740
        13           c12bf         1   UNL       c12        13    -0.09601       12.0110 ; qtot   -1.836
        14           c13bf         1   UNL       c13        14     0.13794       12.0110 ; qtot   -1.698
        15           o14bf         1   UNL       o14        15    -0.33592       15.9990 ; qtot   -2.034
        16           c15bf         1   UNL       c15        16     0.15923       12.0110 ; qtot   -1.874
        17           c16bf         1   UNL       c16        17    -0.19360       12.0110 ; qtot   -2.068
        18           c17bf         1   UNL       c17        18    -0.03961       12.0110 ; qtot   -2.108
        19           c18bf         1   UNL       c18        19    -0.21891       12.0110 ; qtot   -2.327
        20           c19bf         1   UNL       c19        20    -0.03961       12.0110 ; qtot   -2.366
        21           c20bf         1   UNL       c20        21    -0.19360       12.0110 ; qtot   -2.560
        22           h21bf         1   UNL       h21        22     0.13216        1.0080 ; qtot   -2.428
        23           h22bf         1   UNL       h22        23     0.12950        1.0080 ; qtot   -2.298
        24           h23bf         1   UNL       h23        24     0.12900        1.0080 ; qtot   -2.169
        25           h24bf         1   UNL       h24        25     0.13303        1.0080 ; qtot   -2.036
        26           h25bf         1   UNL       h25        26     0.04354        1.0080 ; qtot   -1.993
        27           h26bf         1   UNL       h26        27     0.04354        1.0080 ; qtot   -1.949
        28           h27bf         1   UNL       h27        28     0.05420        1.0080 ; qtot   -1.895
        29           h28bf         1   UNL       h28        29     0.05420        1.0080 ; qtot   -1.841
        30           h29bf         1   UNL       h29        30     0.04465        1.0080 ; qtot   -1.796
        31           h30bf         1   UNL       h30        31     0.04465        1.0080 ; qtot   -1.751
        32           h31bf         1   UNL       h31        32     0.14763        1.0080 ; qtot   -1.604
        33           h32bf         1   UNL       h32        33     0.14763        1.0080 ; qtot   -1.456
        34           n33bf         1   UNL       n33        34    -0.18585       14.0070 ; qtot   -1.642
        35           h34bf         1   UNL       h34        35     0.31616        1.0080 ; qtot   -1.326
        36           h35bf         1   UNL       h35        36     0.15165        1.0080 ; qtot   -1.174
        37           h36bf         1   UNL       h36        37     0.15165        1.0080 ; qtot   -1.022
        38           c37bf         1   UNL       c37        38     0.71092       12.0110 ; qtot   -0.312
        39           f38bf         1   UNL       f38        39    -0.22950       18.9980 ; qtot   -0.541
        40           f39bf         1   UNL       f39        40    -0.22950       18.9980 ; qtot   -0.771
        41           f40bf         1   UNL       f40        41    -0.22948       18.9980 ; qtot   -1.000

[ bonds ]
;       ai        aj funct               r               k
         1         2     1        0.126489   553283.027930    ;  uncertainty r = 0.000115, k = 9.491850
         2         3     1        0.126489   553283.027930    ;  uncertainty r = 0.000115, k = 9.491850
         2         4     1        0.152875   178456.869971    ;  uncertainty r = 0.000109, k = 53.157083
         4        11     1        0.138845   388969.962598    ;  uncertainty r = 0.000116, k = 35.597318
         4        34     1        0.138411   296910.956104    ;  uncertainty r = 0.000116, k = 16.653525
         5         6     1        0.139909   370024.083301    ;  uncertainty r = 0.000068, k = 3.273406
         5        10     1        0.143429   333658.830957    ;  uncertainty r = 0.000101, k = 12.925109
         5        34     1        0.137190   323439.748047    ;  uncertainty r = 0.000109, k = 15.720627
         6         7     1        0.139204   373030.439502    ;  uncertainty r = 0.000031, k = 1.532197
         6        22     1        0.108908   337826.589355    ;  uncertainty r = 0.000007, k = 0.915296
         7         8     1        0.141248   347880.881299    ;  uncertainty r = 0.000048, k = 2.727051
         7        23     1        0.108787   335143.149902    ;  uncertainty r = 0.000015, k = 1.282440
         8         9     1        0.139156   366705.382715    ;  uncertainty r = 0.000016, k = 3.013067
         8        24     1        0.108813   335291.367285    ;  uncertainty r = 0.000018, k = 0.841713
         9        10     1        0.140712   363994.363184    ;  uncertainty r = 0.000090, k = 9.392181
         9        25     1        0.108826   337192.119873    ;  uncertainty r = 0.000025, k = 2.686180
        10        11     1        0.143927   250387.756689    ;  uncertainty r = 0.000100, k = 20.205925
        11        12     1        0.150056   234448.846484    ;  uncertainty r = 0.000153, k = 11.938075
        12        13     1        0.153885   206360.273438    ;  uncertainty r = 0.000103, k = 7.147654
        12        26     1        0.109683   309037.278027    ;  uncertainty r = 0.000026, k = 1.364430
        12        27     1        0.109683   309037.278027    ;  uncertainty r = 0.000026, k = 1.364430
        13        14     1        0.152189   210087.912524    ;  uncertainty r = 0.000032, k = 1.940784
        13        28     1        0.109664   307643.385986    ;  uncertainty r = 0.000028, k = 1.424205
        13        29     1        0.109664   307643.385986    ;  uncertainty r = 0.000028, k = 1.424205
        14        15     1        0.142377   233935.116455    ;  uncertainty r = 0.000037, k = 5.593643
        14        30     1        0.109775   308073.507520    ;  uncertainty r = 0.000024, k = 1.219195
        14        31     1        0.109775   308073.507520    ;  uncertainty r = 0.000024, k = 1.219195
        15        16     1        0.136746   321494.790723    ;  uncertainty r = 0.000032, k = 1.934732
        16        17     1        0.139892   363028.932764    ;  uncertainty r = 0.000044, k = 3.001658
        16        21     1        0.139892   363028.932764    ;  uncertainty r = 0.000044, k = 3.001658
        17        18     1        0.139093   365750.090527    ;  uncertainty r = 0.000025, k = 2.003789
        17        32     1        0.108809   337295.468555    ;  uncertainty r = 0.000025, k = 0.600608
        18        19     1        0.139138   353388.801660    ;  uncertainty r = 0.000090, k = 3.146344
        18        37     1        0.108608   331972.360254    ;  uncertainty r = 0.000017, k = 0.835685
        19        20     1        0.139138   353388.801660    ;  uncertainty r = 0.000090, k = 3.146344
        19        38     1        0.149318   215625.392090    ;  uncertainty r = 0.000066, k = 1.402454
        20        21     1        0.139093   365750.090527    ;  uncertainty r = 0.000025, k = 2.003789
        20        36     1        0.108608   331972.360254    ;  uncertainty r = 0.000017, k = 0.835685
        21        33     1        0.108809   337295.468555    ;  uncertainty r = 0.000025, k = 0.600608
        34        35     1        0.101525   411016.174658    ;  uncertainty r = 0.000192, k = 19.532863
        38        39     1        0.135375   286716.771875    ;  uncertainty r = 0.000039, k = 3.613467
        38        40     1        0.135375   286716.771875    ;  uncertainty r = 0.000039, k = 3.613462
        38        41     1        0.135375   286716.771875    ;  uncertainty r = 0.000039, k = 3.613444

[ angles ]
;       ai        aj        ak funct           theta             cth
         1         2         3     1      131.490799      799.912859    ;  uncertainty theta = 0.007122, k = 0.161146
         1         2         4     1      115.643898      409.958900    ;  uncertainty theta = 0.009941, k = 0.278481
         2         4        11     1      129.691666      294.711298    ;  uncertainty theta = 0.010379, k = 0.154712
         2         4        34     1      117.855209      349.663901    ;  uncertainty theta = 0.005899, k = 0.287676
         3         2         4     1      115.643898      409.958900    ;  uncertainty theta = 0.009941, k = 0.278481
         4        11        10     1      107.813744      761.507600    ;  uncertainty theta = 0.003114, k = 0.233379
         4        11        12     1      125.834373      348.251252    ;  uncertainty theta = 0.008524, k = 0.203092
         4        34         5     1      106.686867      870.555270    ;  uncertainty theta = 0.004731, k = 0.157374
         4        34        35     1      118.324951      293.095597    ;  uncertainty theta = 0.017038, k = 0.289786
         5         6         7     1      117.288712      532.685108    ;  uncertainty theta = 0.002732, k = 0.138286
         5         6        22     1      122.416870      294.044173    ;  uncertainty theta = 0.002439, k = 0.026234
         5        10         9     1      116.726723      409.397211    ;  uncertainty theta = 0.004491, k = 0.081187
         5        10        11     1      107.622475      685.489179    ;  uncertainty theta = 0.004472, k = 0.334622
         5        34        35     1      119.518555      279.940091    ;  uncertainty theta = 0.027559, k = 0.287070
         6         5        10     1      120.341995      378.416324    ;  uncertainty theta = 0.003053, k = 0.079333
         6         5        34     1      130.070251      406.372596    ;  uncertainty theta = 0.003047, k = 0.189160
         6         7         8     1      122.110641      522.210041    ;  uncertainty theta = 0.001703, k = 0.050914
         6         7        23     1      119.408218      283.874626    ;  uncertainty theta = 0.001884, k = 0.037783
         7         6        22     1      121.416527      285.300171    ;  uncertainty theta = 0.001028, k = 0.037490
         7         8         9     1      121.942673      521.393620    ;  uncertainty theta = 0.001697, k = 0.032913
         7         8        24     1      119.651100      288.114903    ;  uncertainty theta = 0.001746, k = 0.035440
         8         7        23     1      119.801102      287.497128    ;  uncertainty theta = 0.001585, k = 0.046675
         8         9        10     1      119.165207      547.786701    ;  uncertainty theta = 0.003326, k = 0.038562
         8         9        25     1      120.508347      285.672566    ;  uncertainty theta = 0.001453, k = 0.031601
         9         8        24     1      119.815613      287.517590    ;  uncertainty theta = 0.001890, k = 0.024499
         9        10        11     1      132.186111      358.431813    ;  uncertainty theta = 0.003911, k = 0.091946
        10         5        34     1      107.610229      677.054783    ;  uncertainty theta = 0.004088, k = 0.326769
        10         9        25     1      121.598999      289.048093    ;  uncertainty theta = 0.003949, k = 0.074173
        10        11        12     1      125.270729      364.592289    ;  uncertainty theta = 0.008077, k = 0.215292
        11         4        34     1      110.824791      694.108082    ;  uncertainty theta = 0.003478, k = 0.245195
        11        12        13     1      111.535912      545.701979    ;  uncertainty theta = 0.004629, k = 0.049601
        11        12        26     1      107.023758      409.119878    ;  uncertainty theta = 0.002156, k = 0.076181
        11        12        27     1      107.023758      409.119878    ;  uncertainty theta = 0.002156, k = 0.076181
        12        13        14     1      109.889565      550.105216    ;  uncertainty theta = 0.002846, k = 0.052217
        12        13        28     1      107.780540      395.334819    ;  uncertainty theta = 0.002719, k = 0.061247
        12        13        29     1      107.780540      395.334819    ;  uncertainty theta = 0.002719, k = 0.061247
        13        12        26     1      106.925919      401.105057    ;  uncertainty theta = 0.002530, k = 0.096026
        13        12        27     1      106.925919      401.105057    ;  uncertainty theta = 0.002530, k = 0.096026
        13        14        15     1      109.198631      594.126404    ;  uncertainty theta = 0.001676, k = 0.046038
        13        14        30     1      109.835693      407.619797    ;  uncertainty theta = 0.001604, k = 0.043274
        13        14        31     1      109.835693      407.619797    ;  uncertainty theta = 0.001604, k = 0.043274
        14        13        28     1      106.754715      398.540907    ;  uncertainty theta = 0.001622, k = 0.024398
        14        13        29     1      106.754715      398.540907    ;  uncertainty theta = 0.001622, k = 0.024398
        14        15        16     1      110.220474      507.954876    ;  uncertainty theta = 0.001136, k = 0.036555
        15        14        30     1      106.865379      432.369629    ;  uncertainty theta = 0.001791, k = 0.028057
        15        14        31     1      106.865379      432.369629    ;  uncertainty theta = 0.001791, k = 0.028057
        15        16        17     1      120.259033      426.894696    ;  uncertainty theta = 0.002912, k = 0.025271
        15        16        21     1      120.259033      426.894696    ;  uncertainty theta = 0.002912, k = 0.025271
        16        17        18     1      119.441307      526.033042    ;  uncertainty theta = 0.001668, k = 0.083800
        16        17        32     1      119.826111      272.583297    ;  uncertainty theta = 0.001966, k = 0.035948
        16        21        20     1      119.441307      526.033042    ;  uncertainty theta = 0.001668, k = 0.083800
        16        21        33     1      119.826111      272.583297    ;  uncertainty theta = 0.001966, k = 0.035948
        17        16        21     1      119.895103      369.021254    ;  uncertainty theta = 0.005858, k = 0.184031
        17        18        19     1      121.420250      506.882828    ;  uncertainty theta = 0.003304, k = 0.054276
        17        18        37     1      119.638321      278.986440    ;  uncertainty theta = 0.002619, k = 0.044799
        18        17        32     1      120.366714      282.894799    ;  uncertainty theta = 0.001736, k = 0.041989
        18        19        20     1      121.591629      485.173731    ;  uncertainty theta = 0.002920, k = 0.111992
        18        19        38     1      116.576256      345.234043    ;  uncertainty theta = 0.006096, k = 0.131061
        19        18        37     1      118.170311      269.383465    ;  uncertainty theta = 0.002870, k = 0.066012
        19        20        21     1      121.420250      506.882828    ;  uncertainty theta = 0.003304, k = 0.054276
        19        20        36     1      118.170311      269.383465    ;  uncertainty theta = 0.002870, k = 0.066012
        19        38        39     1      113.250099      677.753031    ;  uncertainty theta = 0.002305, k = 0.035159
        19        38        40     1      113.250099      677.753031    ;  uncertainty theta = 0.002305, k = 0.035159
        19        38        41     1      113.250099      677.752968    ;  uncertainty theta = 0.002305, k = 0.035158
        20        19        38     1      116.576256      345.233979    ;  uncertainty theta = 0.006096, k = 0.131061
        20        21        33     1      120.366714      282.894767    ;  uncertainty theta = 0.001736, k = 0.041989
        21        20        36     1      119.638321      278.986440    ;  uncertainty theta = 0.002619, k = 0.044799
        26        12        27     1      104.532616      313.868120    ;  uncertainty theta = 0.003533, k = 0.064476
        28        13        29     1      105.092697      317.561425    ;  uncertainty theta = 0.002566, k = 0.027591
        30        14        31     1      107.450478      331.956853    ;  uncertainty theta = 0.001998, k = 0.040678
        39        38        40     1      107.636398      790.642569    ;  uncertainty theta = 0.001905, k = 0.020858
        39        38        41     1      107.636398      790.642569    ;  uncertainty theta = 0.001905, k = 0.020859
        40        38        41     1      107.636398      790.642569    ;  uncertainty theta = 0.001905, k = 0.020858

[ dihedrals ] ; propers for gromacs 4.5 or higher, use funct 9
;       ai        aj        ak        al funct           phase               k        pn
         1         2         4        11     9        0.000000       -1.372021         1    ;  uncertainty k = 1.492730
         1         2         4        11     9      180.000000        2.371115         2    ;  uncertainty k = 0.300482
         1         2         4        11     9        0.000000        0.292116         3    ;  uncertainty k = 0.252771
         1         2         4        11     9      180.000000        0.155159         4    ;  uncertainty k = 0.093475
         1         2         4        34     9        0.000000        1.707823         1    ;  uncertainty k = 0.704832
         1         2         4        34     9      180.000000        3.884647         2    ;  uncertainty k = 0.565808
         1         2         4        34     9        0.000000        0.749129         3    ;  uncertainty k = 0.264976
         1         2         4        34     9      180.000000        0.174104         4    ;  uncertainty k = 0.159693
         2         4        11        10     9        0.000000        0.658377         1    ;  uncertainty k = 1.317360
         2         4        11        10     9      180.000000       11.269219         2    ;  uncertainty k = 0.349150
         2         4        11        10     9        0.000000        2.080317         3    ;  uncertainty k = 0.240036
         2         4        11        10     9      180.000000        0.676709         4    ;  uncertainty k = 0.169861
         2         4        11        12     9        0.000000        0.204708         1    ;  uncertainty k = 0.747460
         2         4        11        12     9      180.000000        9.233953         2    ;  uncertainty k = 0.447590
         2         4        11        12     9        0.000000        1.675443         3    ;  uncertainty k = 0.293006
         2         4        11        12     9      180.000000        0.426607         4    ;  uncertainty k = 0.323880
         2         4        34         5     9        0.000000       -0.464998         1    ;  uncertainty k = 2.171907
         2         4        34         5     9      180.000000        6.451220         2    ;  uncertainty k = 1.089854
         2         4        34         5     9        0.000000        1.609707         3    ;  uncertainty k = 0.687909
         2         4        34         5     9      180.000000        0.292935         4    ;  uncertainty k = 0.259665
         2         4        34        35     9        0.000000        1.253701         1    ;  uncertainty k = 2.041217
         2         4        34        35     9      180.000000        2.479089         2    ;  uncertainty k = 1.021447
         2         4        34        35     9        0.000000        1.291813         3    ;  uncertainty k = 0.578698
         2         4        34        35     9      180.000000       -0.030601         4    ;  uncertainty k = 0.146306
         3         2         4        11     9        0.000000       -1.372021         1    ;  uncertainty k = 1.492730
         3         2         4        11     9      180.000000        2.371115         2    ;  uncertainty k = 0.300482
         3         2         4        11     9        0.000000        0.292116         3    ;  uncertainty k = 0.252771
         3         2         4        11     9      180.000000        0.155159         4    ;  uncertainty k = 0.093475
         3         2         4        34     9        0.000000        1.707823         1    ;  uncertainty k = 0.704832
         3         2         4        34     9      180.000000        3.884647         2    ;  uncertainty k = 0.565808
         3         2         4        34     9        0.000000        0.749129         3    ;  uncertainty k = 0.264976
         3         2         4        34     9      180.000000        0.174104         4    ;  uncertainty k = 0.159693
         4        11        10         5     9        0.000000        0.171220         1    ;  uncertainty k = 0.432161
         4        11        10         5     9      180.000000       11.967638         2    ;  uncertainty k = 1.294698
         4        11        10         5     9        0.000000       -9.909327         3    ;  uncertainty k = 1.605977
         4        11        10         5     9      180.000000        2.102653         4    ;  uncertainty k = 0.733398
         4        11        10         9     9        0.000000        0.079803         1    ;  uncertainty k = 1.313243
         4        11        10         9     9      180.000000        5.721978         2    ;  uncertainty k = 0.321426
         4        11        10         9     9        0.000000        0.431775         3    ;  uncertainty k = 0.611745
         4        11        10         9     9      180.000000        0.952472         4    ;  uncertainty k = 0.149862
         4        11        12        13     9        0.000000       -0.349976         1    ;  uncertainty k = 1.059919
         4        11        12        13     9      180.000000        1.470982         2    ;  uncertainty k = 0.379967
         4        11        12        13     9        0.000000        0.213574         3    ;  uncertainty k = 0.480671
         4        11        12        13     9      180.000000        0.121645         4    ;  uncertainty k = 0.162937
         4        11        12        26     9        0.000000        1.439359         1    ;  uncertainty k = 0.397283
         4        11        12        26     9      180.000000        2.614207         2    ;  uncertainty k = 0.334496
         4        11        12        26     9        0.000000        0.055715         3    ;  uncertainty k = 0.092065
         4        11        12        26     9      180.000000        0.180012         4    ;  uncertainty k = 0.123046
         4        11        12        27     9        0.000000        1.439359         1    ;  uncertainty k = 0.397283
         4        11        12        27     9      180.000000        2.614207         2    ;  uncertainty k = 0.334496
         4        11        12        27     9        0.000000        0.055715         3    ;  uncertainty k = 0.092065
         4        11        12        27     9      180.000000        0.180012         4    ;  uncertainty k = 0.123046
         4        34         5         6     9        0.000000        0.779094         1    ;  uncertainty k = 1.611142
         4        34         5         6     9      180.000000        6.072861         2    ;  uncertainty k = 1.235288
         4        34         5         6     9        0.000000        0.738725         3    ;  uncertainty k = 0.606503
         4        34         5         6     9      180.000000        0.313530         4    ;  uncertainty k = 0.310389
         4        34         5        10     9        0.000000       -0.304471         1    ;  uncertainty k = 0.989395
         4        34         5        10     9      180.000000       15.047901         2    ;  uncertainty k = 1.046721
         4        34         5        10     9        0.000000       -8.395770         3    ;  uncertainty k = 1.919282
         4        34         5        10     9      180.000000        0.648752         4    ;  uncertainty k = 0.607428
         5         6         7         8     9        0.000000       -0.007204         1    ;  uncertainty k = 0.352017
         5         6         7         8     9      180.000000       16.955015         2    ;  uncertainty k = 0.265826
         5         6         7         8     9        0.000000       -0.377243         3    ;  uncertainty k = 0.370601
         5         6         7         8     9      180.000000        0.608270         4    ;  uncertainty k = 0.292320
         5         6         7        23     9        0.000000        0.031156         1    ;  uncertainty k = 0.336940
         5         6         7        23     9      180.000000       10.941246         2    ;  uncertainty k = 0.419077
         5         6         7        23     9        0.000000        1.421256         3    ;  uncertainty k = 0.272944
         5         6         7        23     9      180.000000        1.557433         4    ;  uncertainty k = 0.258138
         5        10         9         8     9        0.000000        0.010948         1    ;  uncertainty k = 0.402869
         5        10         9         8     9      180.000000       13.710034         2    ;  uncertainty k = 0.163194
         5        10         9         8     9        0.000000       -1.521568         3    ;  uncertainty k = 0.300487
         5        10         9         8     9      180.000000        0.694567         4    ;  uncertainty k = 0.283041
         5        10         9        25     9        0.000000        0.253366         1    ;  uncertainty k = 0.171030
         5        10         9        25     9      180.000000        7.059567         2    ;  uncertainty k = 0.776058
         5        10         9        25     9        0.000000        1.466229         3    ;  uncertainty k = 0.353750
         5        10         9        25     9      180.000000        1.230009         4    ;  uncertainty k = 0.397540
         5        10        11        12     9        0.000000        1.338495         1    ;  uncertainty k = 1.087086
         5        10        11        12     9      180.000000       10.551108         2    ;  uncertainty k = 0.351316
         5        10        11        12     9        0.000000        1.801678         3    ;  uncertainty k = 0.392566
         5        10        11        12     9      180.000000        0.257171         4    ;  uncertainty k = 0.352643
         5        34         4        11     9        0.000000       -0.469081         1    ;  uncertainty k = 0.858054
         5        34         4        11     9      180.000000       14.635346         2    ;  uncertainty k = 0.621844
         5        34         4        11     9        0.000000       -5.847696         3    ;  uncertainty k = 1.154312
         5        34         4        11     9      180.000000        0.763949         4    ;  uncertainty k = 0.332867
         6         5        10         9     9        0.000000       -0.557459         1    ;  uncertainty k = 0.504536
         6         5        10         9     9      180.000000        7.175498         2    ;  uncertainty k = 0.762478
         6         5        10         9     9        0.000000        0.165063         3    ;  uncertainty k = 0.420578
         6         5        10         9     9      180.000000        0.902459         4    ;  uncertainty k = 0.405275
         6         5        10        11     9        0.000000       -0.095996         1    ;  uncertainty k = 0.579182
         6         5        10        11     9      180.000000        7.141608         2    ;  uncertainty k = 0.626861
         6         5        10        11     9        0.000000        0.190982         3    ;  uncertainty k = 0.555203
         6         5        10        11     9      180.000000        1.106105         4    ;  uncertainty k = 0.382286
         6         5        34        35     9        0.000000        1.556211         1    ;  uncertainty k = 0.864779
         6         5        34        35     9      180.000000        1.456879         2    ;  uncertainty k = 0.823313
         6         5        34        35     9        0.000000        1.223414         3    ;  uncertainty k = 0.515923
         6         5        34        35     9      180.000000        0.185999         4    ;  uncertainty k = 0.197024
         6         7         8         9     9        0.000000       -0.216392         1    ;  uncertainty k = 0.203221
         6         7         8         9     9      180.000000       12.688314         2    ;  uncertainty k = 0.287114
         6         7         8         9     9        0.000000       -0.841327         3    ;  uncertainty k = 0.664749
         6         7         8         9     9      180.000000        0.649352         4    ;  uncertainty k = 0.206451
         6         7         8        24     9        0.000000        0.020527         1    ;  uncertainty k = 0.059042
         6         7         8        24     9      180.000000        6.989280         2    ;  uncertainty k = 0.437421
         6         7         8        24     9        0.000000        1.365009         3    ;  uncertainty k = 0.283914
         6         7         8        24     9      180.000000        1.623914         4    ;  uncertainty k = 0.216596
         7         6         5        10     9        0.000000       -0.061762         1    ;  uncertainty k = 0.380516
         7         6         5        10     9      180.000000       12.578005         2    ;  uncertainty k = 0.240233
         7         6         5        10     9        0.000000       -1.274716         3    ;  uncertainty k = 0.208709
         7         6         5        10     9      180.000000        0.774303         4    ;  uncertainty k = 0.287170
         7         6         5        34     9        0.000000       -0.040937         1    ;  uncertainty k = 0.255560
         7         6         5        34     9      180.000000       11.252463         2    ;  uncertainty k = 0.580598
         7         6         5        34     9        0.000000        0.539336         3    ;  uncertainty k = 0.344721
         7         6         5        34     9      180.000000        1.022385         4    ;  uncertainty k = 0.303790
         7         8         9        10     9        0.000000        0.019920         1    ;  uncertainty k = 0.483038
         7         8         9        10     9      180.000000       16.879730         2    ;  uncertainty k = 0.325142
         7         8         9        10     9        0.000000       -0.454716         3    ;  uncertainty k = 0.474507
         7         8         9        10     9      180.000000        0.578125         4    ;  uncertainty k = 0.391909
         7         8         9        25     9        0.000000        0.168636         1    ;  uncertainty k = 0.193240
         7         8         9        25     9      180.000000        8.751745         2    ;  uncertainty k = 0.517235
         7         8         9        25     9        0.000000        1.537662         3    ;  uncertainty k = 0.246200
         7         8         9        25     9      180.000000        1.882842         4    ;  uncertainty k = 0.288260
         8         7         6        22     9        0.000000        0.165182         1    ;  uncertainty k = 0.216912
         8         7         6        22     9      180.000000        8.873569         2    ;  uncertainty k = 0.614610
         8         7         6        22     9        0.000000        1.622975         3    ;  uncertainty k = 0.261540
         8         7         6        22     9      180.000000        1.905453         4    ;  uncertainty k = 0.326822
         8         9        10        11     9        0.000000        0.249753         1    ;  uncertainty k = 0.103663
         8         9        10        11     9      180.000000        9.179070         2    ;  uncertainty k = 0.411370
         8         9        10        11     9        0.000000        0.517062         3    ;  uncertainty k = 0.430347
         8         9        10        11     9      180.000000        1.153234         4    ;  uncertainty k = 0.143424
         9         8         7        23     9        0.000000       -0.030439         1    ;  uncertainty k = 0.102038
         9         8         7        23     9      180.000000        6.901165         2    ;  uncertainty k = 0.417183
         9         8         7        23     9        0.000000        1.354655         3    ;  uncertainty k = 0.214825
         9         8         7        23     9      180.000000        1.587525         4    ;  uncertainty k = 0.176781
         9        10         5        34     9        0.000000       -0.032223         1    ;  uncertainty k = 0.572800
         9        10         5        34     9      180.000000        8.643799         2    ;  uncertainty k = 0.269496
         9        10         5        34     9        0.000000       -0.453955         3    ;  uncertainty k = 0.641368
         9        10         5        34     9      180.000000        1.174833         4    ;  uncertainty k = 0.384480
         9        10        11        12     9        0.000000        0.238961         1    ;  uncertainty k = 1.397644
         9        10        11        12     9      180.000000        5.787109         2    ;  uncertainty k = 0.469515
         9        10        11        12     9        0.000000        1.699642         3    ;  uncertainty k = 0.321923
         9        10        11        12     9      180.000000        0.173483         4    ;  uncertainty k = 0.188688
        10         5         6        22     9        0.000000        0.319122         1    ;  uncertainty k = 0.490757
        10         5         6        22     9      180.000000        6.345798         2    ;  uncertainty k = 0.822340
        10         5         6        22     9        0.000000        1.324954         3    ;  uncertainty k = 0.253224
        10         5         6        22     9      180.000000        1.101595         4    ;  uncertainty k = 0.359631
        10         5        34        35     9        0.000000        6.104771         1    ;  uncertainty k = 2.118850
        10         5        34        35     9      180.000000        4.638186         2    ;  uncertainty k = 1.440061
        10         5        34        35     9        0.000000        1.257718         3    ;  uncertainty k = 0.462506
        10         5        34        35     9      180.000000        0.319293         4    ;  uncertainty k = 0.097073
        10         9         8        24     9        0.000000        0.118303         1    ;  uncertainty k = 0.391732
        10         9         8        24     9      180.000000       10.979734         2    ;  uncertainty k = 0.363860
        10         9         8        24     9        0.000000        1.498292         3    ;  uncertainty k = 0.324461
        10         9         8        24     9      180.000000        1.658169         4    ;  uncertainty k = 0.294311
        10        11         4        34     9        0.000000       -0.343459         1    ;  uncertainty k = 0.628998
        10        11         4        34     9      180.000000       19.851697         2    ;  uncertainty k = 0.337386
        10        11         4        34     9        0.000000       -6.038290         3    ;  uncertainty k = 1.696783
        10        11         4        34     9      180.000000        1.027795         4    ;  uncertainty k = 0.436841
        10        11        12        13     9        0.000000       -0.219350         1    ;  uncertainty k = 1.004792
        10        11        12        13     9      180.000000        1.088397         2    ;  uncertainty k = 0.671793
        10        11        12        13     9        0.000000        0.696652         3    ;  uncertainty k = 0.268337
        10        11        12        13     9      180.000000        0.164044         4    ;  uncertainty k = 0.059900
        10        11        12        26     9        0.000000       -0.686921         1    ;  uncertainty k = 0.448582
        10        11        12        26     9      180.000000        2.071241         2    ;  uncertainty k = 0.415243
        10        11        12        26     9        0.000000        0.779274         3    ;  uncertainty k = 0.145606
        10        11        12        26     9      180.000000        0.211883         4    ;  uncertainty k = 0.077331
        10        11        12        27     9        0.000000       -0.686921         1    ;  uncertainty k = 0.448582
        10        11        12        27     9      180.000000        2.071241         2    ;  uncertainty k = 0.415243
        10        11        12        27     9        0.000000        0.779274         3    ;  uncertainty k = 0.145606
        10        11        12        27     9      180.000000        0.211883         4    ;  uncertainty k = 0.077331
        11         4        34        35     9        0.000000        3.994326         1    ;  uncertainty k = 2.809201
        11         4        34        35     9      180.000000        7.262693         2    ;  uncertainty k = 0.379220
        11         4        34        35     9        0.000000        1.858365         3    ;  uncertainty k = 0.686233
        11         4        34        35     9      180.000000       -0.114664         4    ;  uncertainty k = 0.351651
        11        10         5        34     9        0.000000       -0.200093         1    ;  uncertainty k = 0.424326
        11        10         5        34     9      180.000000       12.998296         2    ;  uncertainty k = 0.637101
        11        10         5        34     9        0.000000       -4.487286         3    ;  uncertainty k = 1.787354
        11        10         5        34     9      180.000000        1.376048         4    ;  uncertainty k = 0.852459
        11        10         9        25     9        0.000000        0.623609         1    ;  uncertainty k = 0.818827
        11        10         9        25     9      180.000000        5.597100         2    ;  uncertainty k = 0.476519
        11        10         9        25     9        0.000000        1.146276         3    ;  uncertainty k = 0.356005
        11        10         9        25     9      180.000000        0.780142         4    ;  uncertainty k = 0.277118
        11        12        13        14     9        0.000000       -2.797521         1    ;  uncertainty k = 1.001297
        11        12        13        14     9      180.000000       -0.438773         2    ;  uncertainty k = 0.388442
        11        12        13        14     9        0.000000        1.346273         3    ;  uncertainty k = 0.124329
        11        12        13        14     9      180.000000       -0.311874         4    ;  uncertainty k = 0.109825
        11        12        13        28     9        0.000000        0.428587         1    ;  uncertainty k = 0.616136
        11        12        13        28     9      180.000000       -0.329644         2    ;  uncertainty k = 0.354693
        11        12        13        28     9        0.000000        1.117197         3    ;  uncertainty k = 0.164143
        11        12        13        28     9      180.000000        0.004866         4    ;  uncertainty k = 0.054513
        11        12        13        29     9        0.000000        0.428587         1    ;  uncertainty k = 0.616136
        11        12        13        29     9      180.000000       -0.329644         2    ;  uncertainty k = 0.354693
        11        12        13        29     9        0.000000        1.117197         3    ;  uncertainty k = 0.164143
        11        12        13        29     9      180.000000        0.004866         4    ;  uncertainty k = 0.054513
        12        11         4        34     9        0.000000        0.421908         1    ;  uncertainty k = 0.686279
        12        11         4        34     9      180.000000       16.338015         2    ;  uncertainty k = 0.475382
        12        11         4        34     9        0.000000        1.239769         3    ;  uncertainty k = 0.508643
        12        11         4        34     9      180.000000        0.759832         4    ;  uncertainty k = 0.322483
        12        13        14        15     9        0.000000       -3.985968         1    ;  uncertainty k = 1.196706
        12        13        14        15     9      180.000000       -2.430722         2    ;  uncertainty k = 0.479759
        12        13        14        15     9        0.000000        2.169434         3    ;  uncertainty k = 0.272716
        12        13        14        15     9      180.000000       -0.467268         4    ;  uncertainty k = 0.160423
        12        13        14        30     9        0.000000       -1.869287         1    ;  uncertainty k = 0.468315
        12        13        14        30     9      180.000000        0.095120         2    ;  uncertainty k = 0.233462
        12        13        14        30     9        0.000000        0.933992         3    ;  uncertainty k = 0.064492
        12        13        14        30     9      180.000000       -0.359472         4    ;  uncertainty k = 0.103212
        12        13        14        31     9        0.000000       -1.869287         1    ;  uncertainty k = 0.468315
        12        13        14        31     9      180.000000        0.095120         2    ;  uncertainty k = 0.233462
        12        13        14        31     9        0.000000        0.933992         3    ;  uncertainty k = 0.064492
        12        13        14        31     9      180.000000       -0.359472         4    ;  uncertainty k = 0.103212
        13        14        15        16     9        0.000000       -1.197238         1    ;  uncertainty k = 0.516483
        13        14        15        16     9      180.000000       -0.236435         2    ;  uncertainty k = 0.249614
        13        14        15        16     9        0.000000        0.767114         3    ;  uncertainty k = 0.090550
        13        14        15        16     9      180.000000        0.497633         4    ;  uncertainty k = 0.070023
        14        13        12        26     9        0.000000       -1.671600         1    ;  uncertainty k = 0.371924
        14        13        12        26     9      180.000000       -0.604412         2    ;  uncertainty k = 0.297865
        14        13        12        26     9        0.000000        0.944747         3    ;  uncertainty k = 0.125510
        14        13        12        26     9      180.000000       -0.352082         4    ;  uncertainty k = 0.062685
        14        13        12        27     9        0.000000       -1.671600         1    ;  uncertainty k = 0.371924
        14        13        12        27     9      180.000000       -0.604412         2    ;  uncertainty k = 0.297865
        14        13        12        27     9        0.000000        0.944747         3    ;  uncertainty k = 0.125510
        14        13        12        27     9      180.000000       -0.352082         4    ;  uncertainty k = 0.062685
        14        15        16        17     9        0.000000        0.557756         1    ;  uncertainty k = 0.729464
        14        15        16        17     9      180.000000        7.648059         2    ;  uncertainty k = 0.097323
        14        15        16        17     9        0.000000        0.712478         3    ;  uncertainty k = 0.050936
        14        15        16        17     9      180.000000        0.157514         4    ;  uncertainty k = 0.015477
        14        15        16        21     9        0.000000        0.557756         1    ;  uncertainty k = 0.729464
        14        15        16        21     9      180.000000        7.648059         2    ;  uncertainty k = 0.097323
        14        15        16        21     9        0.000000        0.712478         3    ;  uncertainty k = 0.050936
        14        15        16        21     9      180.000000        0.157514         4    ;  uncertainty k = 0.015477
        15        14        13        28     9        0.000000        0.257140         1    ;  uncertainty k = 0.550551
        15        14        13        28     9      180.000000       -2.135456         2    ;  uncertainty k = 0.266835
        15        14        13        28     9        0.000000        1.420201         3    ;  uncertainty k = 0.100382
        15        14        13        28     9      180.000000        0.041522         4    ;  uncertainty k = 0.068682
        15        14        13        29     9        0.000000        0.257140         1    ;  uncertainty k = 0.550551
        15        14        13        29     9      180.000000       -2.135456         2    ;  uncertainty k = 0.266835
        15        14        13        29     9        0.000000        1.420201         3    ;  uncertainty k = 0.100382
        15        14        13        29     9      180.000000        0.041522         4    ;  uncertainty k = 0.068682
        15        16        17        18     9        0.000000        0.009334         1    ;  uncertainty k = 0.303884
        15        16        17        18     9      180.000000       10.290740         2    ;  uncertainty k = 0.418409
        15        16        17        18     9        0.000000        1.234752         3    ;  uncertainty k = 0.246073
        15        16        17        18     9      180.000000        1.634893         4    ;  uncertainty k = 0.165645
        15        16        17        32     9        0.000000       -0.225140         1    ;  uncertainty k = 0.233566
        15        16        17        32     9      180.000000        8.610474         2    ;  uncertainty k = 0.308718
        15        16        17        32     9        0.000000        0.669372         3    ;  uncertainty k = 0.123361
        15        16        17        32     9      180.000000        0.973199         4    ;  uncertainty k = 0.194130
        15        16        21        20     9        0.000000        0.009334         1    ;  uncertainty k = 0.303884
        15        16        21        20     9      180.000000       10.290740         2    ;  uncertainty k = 0.418409
        15        16        21        20     9        0.000000        1.234752         3    ;  uncertainty k = 0.246073
        15        16        21        20     9      180.000000        1.634893         4    ;  uncertainty k = 0.165645
        15        16        21        33     9        0.000000       -0.225140         1    ;  uncertainty k = 0.233566
        15        16        21        33     9      180.000000        8.610474         2    ;  uncertainty k = 0.308718
        15        16        21        33     9        0.000000        0.669372         3    ;  uncertainty k = 0.123361
        15        16        21        33     9      180.000000        0.973199         4    ;  uncertainty k = 0.194130
        16        15        14        30     9        0.000000        0.610302         1    ;  uncertainty k = 0.388004
        16        15        14        30     9      180.000000       -1.169249         2    ;  uncertainty k = 0.099891
        16        15        14        30     9        0.000000        0.547938         3    ;  uncertainty k = 0.050641
        16        15        14        30     9      180.000000        0.261287         4    ;  uncertainty k = 0.062005
        16        15        14        31     9        0.000000        0.610302         1    ;  uncertainty k = 0.388004
        16        15        14        31     9      180.000000       -1.169249         2    ;  uncertainty k = 0.099891
        16        15        14        31     9        0.000000        0.547938         3    ;  uncertainty k = 0.050641
        16        15        14        31     9      180.000000        0.261287         4    ;  uncertainty k = 0.062005
        16        17        18        19     9        0.000000       -0.223597         1    ;  uncertainty k = 0.249459
        16        17        18        19     9      180.000000       13.536038         2    ;  uncertainty k = 0.195570
        16        17        18        19     9        0.000000       -0.727810         3    ;  uncertainty k = 0.427183
        16        17        18        19     9      180.000000        0.817771         4    ;  uncertainty k = 0.277493
        16        17        18        37     9        0.000000        0.025933         1    ;  uncertainty k = 0.270566
        16        17        18        37     9      180.000000        8.170568         2    ;  uncertainty k = 0.376150
        16        17        18        37     9        0.000000        1.245494         3    ;  uncertainty k = 0.292962
        16        17        18        37     9      180.000000        1.734215         4    ;  uncertainty k = 0.081603
        16        21        20        19     9        0.000000       -0.223597         1    ;  uncertainty k = 0.249459
        16        21        20        19     9      180.000000       13.536038         2    ;  uncertainty k = 0.195570
        16        21        20        19     9        0.000000       -0.727810         3    ;  uncertainty k = 0.427183
        16        21        20        19     9      180.000000        0.817771         4    ;  uncertainty k = 0.277493
        16        21        20        36     9        0.000000        0.025933         1    ;  uncertainty k = 0.270566
        16        21        20        36     9      180.000000        8.170568         2    ;  uncertainty k = 0.376150
        16        21        20        36     9        0.000000        1.245494         3    ;  uncertainty k = 0.292962
        16        21        20        36     9      180.000000        1.734215         4    ;  uncertainty k = 0.081603
        17        16        21        20     9        0.000000        0.104846         1    ;  uncertainty k = 0.184659
        17        16        21        20     9      180.000000        8.880372         2    ;  uncertainty k = 0.540087
        17        16        21        20     9        0.000000        0.084171         3    ;  uncertainty k = 0.246278
        17        16        21        20     9      180.000000        1.243504         4    ;  uncertainty k = 0.300362
        17        16        21        33     9        0.000000        0.257622         1    ;  uncertainty k = 0.292945
        17        16        21        33     9      180.000000        6.259992         2    ;  uncertainty k = 0.591370
        17        16        21        33     9        0.000000        1.467039         3    ;  uncertainty k = 0.321500
        17        16        21        33     9      180.000000        1.576223         4    ;  uncertainty k = 0.162217
        17        18        19        20     9        0.000000       -0.111089         1    ;  uncertainty k = 0.192842
        17        18        19        20     9      180.000000       12.084258         2    ;  uncertainty k = 0.427967
        17        18        19        20     9        0.000000       -0.752353         3    ;  uncertainty k = 0.442457
        17        18        19        20     9      180.000000        0.793586         4    ;  uncertainty k = 0.435353
        17        18        19        38     9        0.000000        0.139298         1    ;  uncertainty k = 0.218056
        17        18        19        38     9      180.000000       10.083601         2    ;  uncertainty k = 0.715043
        17        18        19        38     9        0.000000        1.469923         3    ;  uncertainty k = 0.279672
        17        18        19        38     9      180.000000        1.949484         4    ;  uncertainty k = 0.352624
        18        17        16        21     9        0.000000        0.104846         1    ;  uncertainty k = 0.184659
        18        17        16        21     9      180.000000        8.880372         2    ;  uncertainty k = 0.540087
        18        17        16        21     9        0.000000        0.084171         3    ;  uncertainty k = 0.246278
        18        17        16        21     9      180.000000        1.243504         4    ;  uncertainty k = 0.300362
        18        19        20        21     9        0.000000       -0.111089         1    ;  uncertainty k = 0.192842
        18        19        20        21     9      180.000000       12.084258         2    ;  uncertainty k = 0.427967
        18        19        20        21     9        0.000000       -0.752353         3    ;  uncertainty k = 0.442457
        18        19        20        21     9      180.000000        0.793586         4    ;  uncertainty k = 0.435353
        18        19        20        36     9        0.000000        0.152704         1    ;  uncertainty k = 0.234758
        18        19        20        36     9      180.000000        7.213552         2    ;  uncertainty k = 0.382531
        18        19        20        36     9        0.000000        1.314343         3    ;  uncertainty k = 0.391648
        18        19        20        36     9      180.000000        1.621977         4    ;  uncertainty k = 0.255203
        18        19        38        39     9        0.000000       -0.704577         1    ;  uncertainty k = 0.278522
        18        19        38        39     9      180.000000        2.662578         2    ;  uncertainty k = 0.051028
        18        19        38        39     9        0.000000        0.705269         3    ;  uncertainty k = 0.070446
        18        19        38        39     9      180.000000        0.163805         4    ;  uncertainty k = 0.063746
        18        19        38        40     9        0.000000       -0.704577         1    ;  uncertainty k = 0.278522
        18        19        38        40     9      180.000000        2.662578         2    ;  uncertainty k = 0.051028
        18        19        38        40     9        0.000000        0.705269         3    ;  uncertainty k = 0.070446
        18        19        38        40     9      180.000000        0.163805         4    ;  uncertainty k = 0.063746
        18        19        38        41     9        0.000000       -0.704578         1    ;  uncertainty k = 0.278522
        18        19        38        41     9      180.000000        2.662578         2    ;  uncertainty k = 0.051027
        18        19        38        41     9        0.000000        0.705269         3    ;  uncertainty k = 0.070446
        18        19        38        41     9      180.000000        0.163805         4    ;  uncertainty k = 0.063746
        19        18        17        32     9        0.000000        0.189734         1    ;  uncertainty k = 0.185105
        19        18        17        32     9      180.000000        7.959912         2    ;  uncertainty k = 0.331854
        19        18        17        32     9        0.000000        1.513912         3    ;  uncertainty k = 0.252596
        19        18        17        32     9      180.000000        1.860979         4    ;  uncertainty k = 0.145240
        19        20        21        33     9        0.000000        0.189734         1    ;  uncertainty k = 0.185105
        19        20        21        33     9      180.000000        7.959912         2    ;  uncertainty k = 0.331854
        19        20        21        33     9        0.000000        1.513912         3    ;  uncertainty k = 0.252596
        19        20        21        33     9      180.000000        1.860979         4    ;  uncertainty k = 0.145240
        20        19        18        37     9        0.000000        0.152704         1    ;  uncertainty k = 0.234758
        20        19        18        37     9      180.000000        7.213552         2    ;  uncertainty k = 0.382531
        20        19        18        37     9        0.000000        1.314343         3    ;  uncertainty k = 0.391648
        20        19        18        37     9      180.000000        1.621977         4    ;  uncertainty k = 0.255203
        20        19        38        39     9        0.000000       -0.704577         1    ;  uncertainty k = 0.278522
        20        19        38        39     9      180.000000        2.662578         2    ;  uncertainty k = 0.051028
        20        19        38        39     9        0.000000        0.705269         3    ;  uncertainty k = 0.070446
        20        19        38        39     9      180.000000        0.163805         4    ;  uncertainty k = 0.063746
        20        19        38        40     9        0.000000       -0.704577         1    ;  uncertainty k = 0.278522
        20        19        38        40     9      180.000000        2.662578         2    ;  uncertainty k = 0.051028
        20        19        38        40     9        0.000000        0.705269         3    ;  uncertainty k = 0.070446
        20        19        38        40     9      180.000000        0.163805         4    ;  uncertainty k = 0.063746
        20        19        38        41     9        0.000000       -0.704578         1    ;  uncertainty k = 0.278522
        20        19        38        41     9      180.000000        2.662578         2    ;  uncertainty k = 0.051027
        20        19        38        41     9        0.000000        0.705269         3    ;  uncertainty k = 0.070446
        20        19        38        41     9      180.000000        0.163805         4    ;  uncertainty k = 0.063746
        21        16        17        32     9        0.000000        0.257622         1    ;  uncertainty k = 0.292945
        21        16        17        32     9      180.000000        6.259992         2    ;  uncertainty k = 0.591370
        21        16        17        32     9        0.000000        1.467039         3    ;  uncertainty k = 0.321500
        21        16        17        32     9      180.000000        1.576223         4    ;  uncertainty k = 0.162217
        21        20        19        38     9        0.000000        0.139298         1    ;  uncertainty k = 0.218056
        21        20        19        38     9      180.000000       10.083601         2    ;  uncertainty k = 0.715043
        21        20        19        38     9        0.000000        1.469923         3    ;  uncertainty k = 0.279672
        21        20        19        38     9      180.000000        1.949484         4    ;  uncertainty k = 0.352624
        22         6         5        34     9        0.000000        0.248356         1    ;  uncertainty k = 0.309441
        22         6         5        34     9      180.000000        6.219890         2    ;  uncertainty k = 0.560809
        22         6         5        34     9        0.000000        1.223843         3    ;  uncertainty k = 0.395076
        22         6         5        34     9      180.000000        0.794522         4    ;  uncertainty k = 0.403871
        22         6         7        23     9        0.000000        0.067635         1    ;  uncertainty k = 0.257851
        22         6         7        23     9      180.000000        7.678575         2    ;  uncertainty k = 0.249765
        22         6         7        23     9        0.000000       -0.249178         3    ;  uncertainty k = 0.224083
        22         6         7        23     9      180.000000        0.128053         4    ;  uncertainty k = 0.127116
        23         7         8        24     9        0.000000        0.024825         1    ;  uncertainty k = 0.154579
        23         7         8        24     9      180.000000        6.825470         2    ;  uncertainty k = 0.478217
        23         7         8        24     9        0.000000       -0.239724         3    ;  uncertainty k = 0.197508
        23         7         8        24     9      180.000000        0.091582         4    ;  uncertainty k = 0.138206
        24         8         9        25     9        0.000000        0.081241         1    ;  uncertainty k = 0.094303
        24         8         9        25     9      180.000000        7.822590         2    ;  uncertainty k = 0.225676
        24         8         9        25     9        0.000000       -0.195366         3    ;  uncertainty k = 0.265935
        24         8         9        25     9      180.000000        0.166865         4    ;  uncertainty k = 0.178530
        26        12        13        28     9        0.000000        0.852998         1    ;  uncertainty k = 0.162312
        26        12        13        28     9      180.000000       -0.684815         2    ;  uncertainty k = 0.290805
        26        12        13        28     9        0.000000        0.190526         3    ;  uncertainty k = 0.067767
        26        12        13        28     9      180.000000        0.009351         4    ;  uncertainty k = 0.042473
        26        12        13        29     9        0.000000        0.852998         1    ;  uncertainty k = 0.162312
        26        12        13        29     9      180.000000       -0.684815         2    ;  uncertainty k = 0.290805
        26        12        13        29     9        0.000000        0.190526         3    ;  uncertainty k = 0.067767
        26        12        13        29     9      180.000000        0.009351         4    ;  uncertainty k = 0.042473
        27        12        13        28     9        0.000000        0.852998         1    ;  uncertainty k = 0.162312
        27        12        13        28     9      180.000000       -0.684815         2    ;  uncertainty k = 0.290805
        27        12        13        28     9        0.000000        0.190526         3    ;  uncertainty k = 0.067767
        27        12        13        28     9      180.000000        0.009351         4    ;  uncertainty k = 0.042473
        27        12        13        29     9        0.000000        0.852998         1    ;  uncertainty k = 0.162312
        27        12        13        29     9      180.000000       -0.684815         2    ;  uncertainty k = 0.290805
        27        12        13        29     9        0.000000        0.190526         3    ;  uncertainty k = 0.067767
        27        12        13        29     9      180.000000        0.009351         4    ;  uncertainty k = 0.042473
        28        13        14        30     9        0.000000        0.461039         1    ;  uncertainty k = 0.142816
        28        13        14        30     9      180.000000       -0.427775         2    ;  uncertainty k = 0.141329
        28        13        14        30     9        0.000000        0.095542         3    ;  uncertainty k = 0.073246
        28        13        14        30     9      180.000000       -0.037844         4    ;  uncertainty k = 0.076606
        28        13        14        31     9        0.000000        0.461039         1    ;  uncertainty k = 0.142816
        28        13        14        31     9      180.000000       -0.427775         2    ;  uncertainty k = 0.141329
        28        13        14        31     9        0.000000        0.095542         3    ;  uncertainty k = 0.073246
        28        13        14        31     9      180.000000       -0.037844         4    ;  uncertainty k = 0.076606
        29        13        14        30     9        0.000000        0.461039         1    ;  uncertainty k = 0.142816
        29        13        14        30     9      180.000000       -0.427775         2    ;  uncertainty k = 0.141329
        29        13        14        30     9        0.000000        0.095542         3    ;  uncertainty k = 0.073246
        29        13        14        30     9      180.000000       -0.037844         4    ;  uncertainty k = 0.076606
        29        13        14        31     9        0.000000        0.461039         1    ;  uncertainty k = 0.142816
        29        13        14        31     9      180.000000       -0.427775         2    ;  uncertainty k = 0.141329
        29        13        14        31     9        0.000000        0.095542         3    ;  uncertainty k = 0.073246
        29        13        14        31     9      180.000000       -0.037844         4    ;  uncertainty k = 0.076606
        32        17        18        37     9        0.000000        0.035639         1    ;  uncertainty k = 0.180621
        32        17        18        37     9      180.000000        7.735995         2    ;  uncertainty k = 0.345433
        32        17        18        37     9        0.000000       -0.399249         3    ;  uncertainty k = 0.242728
        32        17        18        37     9      180.000000        0.169552         4    ;  uncertainty k = 0.131042
        33        21        20        36     9        0.000000        0.035639         1    ;  uncertainty k = 0.180621
        33        21        20        36     9      180.000000        7.735995         2    ;  uncertainty k = 0.345433
        33        21        20        36     9        0.000000       -0.399249         3    ;  uncertainty k = 0.242728
        33        21        20        36     9      180.000000        0.169552         4    ;  uncertainty k = 0.131042
        36        20        19        38     9        0.000000       -0.066497         1    ;  uncertainty k = 0.341818
        36        20        19        38     9      180.000000        8.723672         2    ;  uncertainty k = 0.502087
        36        20        19        38     9        0.000000        0.652125         3    ;  uncertainty k = 0.246836
        36        20        19        38     9      180.000000        0.991999         4    ;  uncertainty k = 0.195837
        37        18        19        38     9        0.000000       -0.066497         1    ;  uncertainty k = 0.341818
        37        18        19        38     9      180.000000        8.723672         2    ;  uncertainty k = 0.502087
        37        18        19        38     9        0.000000        0.652125         3    ;  uncertainty k = 0.246836
        37        18        19        38     9      180.000000        0.991999         4    ;  uncertainty k = 0.195837

[ dihedrals ] ; impropers
;       ai        aj        ak        al funct           phase               k        pn
         2         1         3         4     4      180.000000       64.265870         2    ;  uncertainty k = 0.050254
         2         3         4         1     4      180.000000       64.265870         2    ;  uncertainty k = 0.050254
         2         4         1         3     4      180.000000       64.265870         2    ;  uncertainty k = 0.050254
         4         2        11        34     4      180.000000        5.876961         2    ;  uncertainty k = 0.526652
         4        11        34         2     4      180.000000        5.876961         2    ;  uncertainty k = 0.526652
         4        34         2        11     4      180.000000        5.876961         2    ;  uncertainty k = 0.526652
         5         6        10        34     4      180.000000        1.057348         2    ;  uncertainty k = 0.904202
         5        10        34         6     4      180.000000        1.057348         2    ;  uncertainty k = 0.904202
         5        34         6        10     4      180.000000        1.057348         2    ;  uncertainty k = 0.904202
         6         5         7        22     4      180.000000        2.336037         2    ;  uncertainty k = 0.300690
         6         7        22         5     4      180.000000        2.336037         2    ;  uncertainty k = 0.300690
         6        22         5         7     4      180.000000        2.336037         2    ;  uncertainty k = 0.300690
         7         6         8        23     4      180.000000        3.761581         2    ;  uncertainty k = 0.188539
         7         8        23         6     4      180.000000        3.761581         2    ;  uncertainty k = 0.188539
         7        23         6         8     4      180.000000        3.761581         2    ;  uncertainty k = 0.188539
         8         7         9        24     4      180.000000        3.007353         2    ;  uncertainty k = 0.125347
         8         9        24         7     4      180.000000        3.007353         2    ;  uncertainty k = 0.125347
         8        24         7         9     4      180.000000        3.007353         2    ;  uncertainty k = 0.125347
         9         8        10        25     4      180.000000        4.051631         2    ;  uncertainty k = 0.159442
         9        10        25         8     4      180.000000        4.051631         2    ;  uncertainty k = 0.159442
         9        25         8        10     4      180.000000        4.051631         2    ;  uncertainty k = 0.159442
        11         4        10        12     4      180.000000        2.099178         2    ;  uncertainty k = 0.534873
        11        10        12         4     4      180.000000        2.099178         2    ;  uncertainty k = 0.534873
        11        12         4        10     4      180.000000        2.099178         2    ;  uncertainty k = 0.534873
        16        15        17        21     4      180.000000       20.399167         2    ;  uncertainty k = 0.057521
        16        17        21        15     4      180.000000       20.399167         2    ;  uncertainty k = 0.057521
        16        21        15        17     4      180.000000       20.399167         2    ;  uncertainty k = 0.057521
        17        16        18        32     4      180.000000        2.062818         2    ;  uncertainty k = 0.241373
        17        18        32        16     4      180.000000        2.062818         2    ;  uncertainty k = 0.241373
        17        32        16        18     4      180.000000        2.062818         2    ;  uncertainty k = 0.241373
        18        17        19        37     4      180.000000        5.138964         2    ;  uncertainty k = 0.070251
        18        19        37        17     4      180.000000        5.138964         2    ;  uncertainty k = 0.070251
        18        37        17        19     4      180.000000        5.138964         2    ;  uncertainty k = 0.070251
        19        18        20        38     4      180.000000        6.408584         2    ;  uncertainty k = 0.210074
        19        20        38        18     4      180.000000        6.408584         2    ;  uncertainty k = 0.210074
        19        38        18        20     4      180.000000        6.408584         2    ;  uncertainty k = 0.210074
        20        19        21        36     4      180.000000        5.138964         2    ;  uncertainty k = 0.070251
        20        21        36        19     4      180.000000        5.138964         2    ;  uncertainty k = 0.070251
        20        36        19        21     4      180.000000        5.138964         2    ;  uncertainty k = 0.070251
        21        16        20        33     4      180.000000        2.062818         2    ;  uncertainty k = 0.241373
        21        20        33        16     4      180.000000        2.062818         2    ;  uncertainty k = 0.241373
        21        33        16        20     4      180.000000        2.062818         2    ;  uncertainty k = 0.241373

[ pairs ]
;       ai        aj funct
         1        11     1
         1        34     1
         2         5     1
         2        10     1
         2        12     1
         2        35     1
         3        11     1
         3        34     1
         4         6     1
         4         9     1
         4        13     1
         4        26     1
         4        27     1
         5         8     1
         5        12     1
         5        23     1
         5        25     1
         6         9     1
         6        11     1
         6        24     1
         6        35     1
         7        10     1
         7        25     1
         7        34     1
         8        11     1
         8        22     1
         9        12     1
         9        23     1
         9        34     1
        10        13     1
        10        22     1
        10        24     1
        10        26     1
        10        27     1
        10        35     1
        11        14     1
        11        25     1
        11        28     1
        11        29     1
        11        35     1
        12        15     1
        12        30     1
        12        31     1
        12        34     1
        13        16     1
        14        17     1
        14        21     1
        14        26     1
        14        27     1
        15        18     1
        15        20     1
        15        28     1
        15        29     1
        15        32     1
        15        33     1
        16        19     1
        16        30     1
        16        31     1
        16        36     1
        16        37     1
        17        20     1
        17        33     1
        17        38     1
        18        21     1
        18        36     1
        18        39     1
        18        40     1
        18        41     1
        19        32     1
        19        33     1
        20        37     1
        20        39     1
        20        40     1
        20        41     1
        21        32     1
        21        38     1
        22        23     1
        22        34     1
        23        24     1
        24        25     1
        26        28     1
        26        29     1
        27        28     1
        27        29     1
        28        30     1
        28        31     1
        29        30     1
        29        31     1
        32        37     1
        33        36     1
        36        38     1
        37        38     1
