; ITP file created by ByteFF-joint-25, 2026-02-17 09:20:39.497667

[ atomtypes ]
;name           bonded.type        at.num        mass        charge   ptype           sigma         epsilon
 o0bf                                   8      0.0000       0.00000       A     3.04807e-01     6.12065e-01    ;  uncertainty sigma = 0.000018, epsilon = 0.000616
 c1bf                                   6      0.0000       0.00000       A     3.31436e-01     4.13701e-01    ;  uncertainty sigma = 0.000034, epsilon = 0.002275
 o2bf                                   8      0.0000       0.00000       A     3.04807e-01     6.12065e-01    ;  uncertainty sigma = 0.000018, epsilon = 0.000616
 c3bf                                   6      0.0000       0.00000       A     3.31527e-01     4.12548e-01    ;  uncertainty sigma = 0.000053, epsilon = 0.002675
 c4bf                                   6      0.0000       0.00000       A     3.31556e-01     4.13605e-01    ;  uncertainty sigma = 0.000009, epsilon = 0.001072
 c5bf                                   6      0.0000       0.00000       A     3.31528e-01     4.13216e-01    ;  uncertainty sigma = 0.000006, epsilon = 0.000735
 c6bf                                   6      0.0000       0.00000       A     3.31524e-01     4.13323e-01    ;  uncertainty sigma = 0.000005, epsilon = 0.000518
 c7bf                                   6      0.0000       0.00000       A     3.31524e-01     4.13320e-01    ;  uncertainty sigma = 0.000004, epsilon = 0.000654
 c8bf                                   6      0.0000       0.00000       A     3.31525e-01     4.13140e-01    ;  uncertainty sigma = 0.000007, epsilon = 0.000627
 c9bf                                   6      0.0000       0.00000       A     3.31543e-01     4.12994e-01    ;  uncertainty sigma = 0.000008, epsilon = 0.001189
 c10bf                                  6      0.0000       0.00000       A     3.31576e-01     4.13309e-01    ;  uncertainty sigma = 0.000008, epsilon = 0.001192
 c11bf                                  6      0.0000       0.00000       A     3.39773e-01     4.50718e-01    ;  uncertainty sigma = 0.000020, epsilon = 0.000757
 c12bf                                  6      0.0000       0.00000       A     3.39755e-01     4.50608e-01    ;  uncertainty sigma = 0.000006, epsilon = 0.000953
 c13bf                                  6      0.0000       0.00000       A     3.39779e-01     4.50532e-01    ;  uncertainty sigma = 0.000006, epsilon = 0.000794
 o14bf                                  8      0.0000       0.00000       A     3.15617e-01     3.03503e-01    ;  uncertainty sigma = 0.000014, epsilon = 0.000428
 c15bf                                  6      0.0000       0.00000       A     3.31518e-01     4.13204e-01    ;  uncertainty sigma = 0.000007, epsilon = 0.000855
 c16bf                                  6      0.0000       0.00000       A     3.31520e-01     4.13386e-01    ;  uncertainty sigma = 0.000003, epsilon = 0.000600
 c17bf                                  6      0.0000       0.00000       A     3.31522e-01     4.13473e-01    ;  uncertainty sigma = 0.000004, epsilon = 0.000470
 c18bf                                  6      0.0000       0.00000       A     3.31520e-01     4.13575e-01    ;  uncertainty sigma = 0.000011, epsilon = 0.000850
 c19bf                                  6      0.0000       0.00000       A     3.31522e-01     4.13473e-01    ;  uncertainty sigma = 0.000004, epsilon = 0.000470
 c20bf                                  6      0.0000       0.00000       A     3.31520e-01     4.13386e-01    ;  uncertainty sigma = 0.000003, epsilon = 0.000600
 h21bf                                  1      0.0000       0.00000       A     2.62573e-01     6.69665e-02    ;  uncertainty sigma = 0.000008, epsilon = 0.000474
 h22bf                                  1      0.0000       0.00000       A     2.62567e-01     6.69871e-02    ;  uncertainty sigma = 0.000012, epsilon = 0.000553
 h23bf                                  1      0.0000       0.00000       A     2.62563e-01     6.69792e-02    ;  uncertainty sigma = 0.000011, epsilon = 0.000555
 h24bf                                  1      0.0000       0.00000       A     2.62566e-01     6.69359e-02    ;  uncertainty sigma = 0.000011, epsilon = 0.000323
 h25bf                                  1      0.0000       0.00000       A     2.60038e-01     8.64862e-02    ;  uncertainty sigma = 0.000012, epsilon = 0.000717
 h26bf                                  1      0.0000       0.00000       A     2.60038e-01     8.64862e-02    ;  uncertainty sigma = 0.000012, epsilon = 0.000717
 h27bf                                  1      0.0000       0.00000       A     2.60032e-01     8.63750e-02    ;  uncertainty sigma = 0.000011, epsilon = 0.000877
 h28bf                                  1      0.0000       0.00000       A     2.60032e-01     8.63750e-02    ;  uncertainty sigma = 0.000011, epsilon = 0.000877
 h29bf                                  1      0.0000       0.00000       A     2.42190e-01     8.69771e-02    ;  uncertainty sigma = 0.000031, epsilon = 0.000462
 h30bf                                  1      0.0000       0.00000       A     2.42190e-01     8.69771e-02    ;  uncertainty sigma = 0.000031, epsilon = 0.000462
 h31bf                                  1      0.0000       0.00000       A     2.62561e-01     6.71274e-02    ;  uncertainty sigma = 0.000009, epsilon = 0.000422
 h32bf                                  1      0.0000       0.00000       A     2.62561e-01     6.71274e-02    ;  uncertainty sigma = 0.000009, epsilon = 0.000422
 n33bf                                  7      0.0000       0.00000       A     3.20754e-01     8.52244e-01    ;  uncertainty sigma = 0.000047, epsilon = 0.002451
 h34bf                                  1      0.0000       0.00000       A     1.10620e-01     4.09732e-02    ;  uncertainty sigma = 0.000138, epsilon = 0.001729
 h35bf                                  1      0.0000       0.00000       A     2.62559e-01     6.71642e-02    ;  uncertainty sigma = 0.000007, epsilon = 0.000412
 h36bf                                  1      0.0000       0.00000       A     2.62559e-01     6.71642e-02    ;  uncertainty sigma = 0.000007, epsilon = 0.000412
 o37bf                                  8      0.0000       0.00000       A     3.15625e-01     3.05612e-01    ;  uncertainty sigma = 0.000019, epsilon = 0.003158
 c38bf                                  6      0.0000       0.00000       A     3.31520e-01     4.13333e-01    ;  uncertainty sigma = 0.000002, epsilon = 0.000598
 c39bf                                  6      0.0000       0.00000       A     3.31521e-01     4.13477e-01    ;  uncertainty sigma = 0.000003, epsilon = 0.000586
 c40bf                                  6      0.0000       0.00000       A     3.31513e-01     4.13426e-01    ;  uncertainty sigma = 0.000002, epsilon = 0.000633
 c41bf                                  6      0.0000       0.00000       A     3.31518e-01     4.13555e-01    ;  uncertainty sigma = 0.000015, epsilon = 0.000780
 c42bf                                  6      0.0000       0.00000       A     3.31513e-01     4.13426e-01    ;  uncertainty sigma = 0.000002, epsilon = 0.000633
 c43bf                                  6      0.0000       0.00000       A     3.31521e-01     4.13477e-01    ;  uncertainty sigma = 0.000003, epsilon = 0.000586
 h44bf                                  1      0.0000       0.00000       A     2.62552e-01     6.70647e-02    ;  uncertainty sigma = 0.000011, epsilon = 0.000453
 h45bf                                  1      0.0000       0.00000       A     2.62562e-01     6.69704e-02    ;  uncertainty sigma = 0.000010, epsilon = 0.000501
 h46bf                                  1      0.0000       0.00000       A     2.62561e-01     6.71299e-02    ;  uncertainty sigma = 0.000006, epsilon = 0.000455
 h47bf                                  1      0.0000       0.00000       A     2.62561e-01     6.71300e-02    ;  uncertainty sigma = 0.000006, epsilon = 0.000455
 h48bf                                  1      0.0000       0.00000       A     2.62562e-01     6.69705e-02    ;  uncertainty sigma = 0.000010, epsilon = 0.000501

[ moleculetype ]
;name             nrexcl
 MOL                   3

[ atoms ]
;       nr            type      resi   res      atom      cgnr      charge          mass ; qtot
         1            o0bf         1   UNL        o0         1    -0.82702       15.9990 ; qtot   -0.827
         2            c1bf         1   UNL        c1         2     0.92126       12.0110 ; qtot    0.094
         3            o2bf         1   UNL        o2         3    -0.82702       15.9990 ; qtot   -0.733
         4            c3bf         1   UNL        c3         4    -0.10822       12.0110 ; qtot   -0.841
         5            c4bf         1   UNL        c4         5    -0.06744       12.0110 ; qtot   -0.908
         6            c5bf         1   UNL        c5         6    -0.16684       12.0110 ; qtot   -1.075
         7            c6bf         1   UNL        c6         7    -0.11194       12.0110 ; qtot   -1.187
         8            c7bf         1   UNL        c7         8    -0.15971       12.0110 ; qtot   -1.347
         9            c8bf         1   UNL        c8         9    -0.09713       12.0110 ; qtot   -1.444
        10            c9bf         1   UNL        c9        10    -0.10135       12.0110 ; qtot   -1.545
        11           c10bf         1   UNL       c10        11    -0.18594       12.0110 ; qtot   -1.731
        12           c11bf         1   UNL       c11        12    -0.00834       12.0110 ; qtot   -1.740
        13           c12bf         1   UNL       c12        13    -0.09601       12.0110 ; qtot   -1.836
        14           c13bf         1   UNL       c13        14     0.13794       12.0110 ; qtot   -1.698
        15           o14bf         1   UNL       o14        15    -0.33633       15.9990 ; qtot   -2.034
        16           c15bf         1   UNL       c15        16     0.11687       12.0110 ; qtot   -1.917
        17           c16bf         1   UNL       c16        17    -0.16073       12.0110 ; qtot   -2.078
        18           c17bf         1   UNL       c17        18    -0.12111       12.0110 ; qtot   -2.199
        19           c18bf         1   UNL       c18        19     0.07901       12.0110 ; qtot   -2.120
        20           c19bf         1   UNL       c19        20    -0.12111       12.0110 ; qtot   -2.241
        21           c20bf         1   UNL       c20        21    -0.16073       12.0110 ; qtot   -2.402
        22           h21bf         1   UNL       h21        22     0.13216        1.0080 ; qtot   -2.270
        23           h22bf         1   UNL       h22        23     0.12950        1.0080 ; qtot   -2.140
        24           h23bf         1   UNL       h23        24     0.12900        1.0080 ; qtot   -2.011
        25           h24bf         1   UNL       h24        25     0.13303        1.0080 ; qtot   -1.878
        26           h25bf         1   UNL       h25        26     0.04354        1.0080 ; qtot   -1.835
        27           h26bf         1   UNL       h26        27     0.04354        1.0080 ; qtot   -1.791
        28           h27bf         1   UNL       h27        28     0.05420        1.0080 ; qtot   -1.737
        29           h28bf         1   UNL       h28        29     0.05420        1.0080 ; qtot   -1.683
        30           h29bf         1   UNL       h29        30     0.04465        1.0080 ; qtot   -1.638
        31           h30bf         1   UNL       h30        31     0.04465        1.0080 ; qtot   -1.593
        32           h31bf         1   UNL       h31        32     0.14509        1.0080 ; qtot   -1.448
        33           h32bf         1   UNL       h32        33     0.14509        1.0080 ; qtot   -1.303
        34           n33bf         1   UNL       n33        34    -0.18585       14.0070 ; qtot   -1.489
        35           h34bf         1   UNL       h34        35     0.31616        1.0080 ; qtot   -1.173
        36           h35bf         1   UNL       h35        36     0.14991        1.0080 ; qtot   -1.023
        37           h36bf         1   UNL       h36        37     0.14991        1.0080 ; qtot   -0.873
        38           o37bf         1   UNL       o37        38    -0.25514       15.9990 ; qtot   -1.128
        39           c38bf         1   UNL       c38        39    -0.14445       12.0110 ; qtot   -1.273
        40           c39bf         1   UNL       c39        40    -0.10808       12.0110 ; qtot   -1.381
        41           c40bf         1   UNL       c40        41    -0.15791       12.0110 ; qtot   -1.539
        42           c41bf         1   UNL       c41        42     0.10607       12.0110 ; qtot   -1.433
        43           c42bf         1   UNL       c42        43    -0.15791       12.0110 ; qtot   -1.591
        44           c43bf         1   UNL       c43        44    -0.10808       12.0110 ; qtot   -1.699
        45           h44bf         1   UNL       h44        45     0.13419        1.0080 ; qtot   -1.564
        46           h45bf         1   UNL       h45        46     0.13547        1.0080 ; qtot   -1.429
        47           h46bf         1   UNL       h46        47     0.14674        1.0080 ; qtot   -1.282
        48           h47bf         1   UNL       h47        48     0.14674        1.0080 ; qtot   -1.135
        49           h48bf         1   UNL       h48        49     0.13547        1.0080 ; qtot   -1.000

[ bonds ]
;       ai        aj funct               r               k
         1         2     1        0.126489   553283.027930    ;  uncertainty r = 0.000115, k = 9.491850
         2         3     1        0.126489   553283.027930    ;  uncertainty r = 0.000115, k = 9.491850
         2         4     1        0.152875   178456.869971    ;  uncertainty r = 0.000109, k = 53.157083
         4        11     1        0.138845   388969.962598    ;  uncertainty r = 0.000116, k = 35.597318
         4        34     1        0.138411   296910.956104    ;  uncertainty r = 0.000116, k = 16.653525
         5         6     1        0.139909   370024.083301    ;  uncertainty r = 0.000068, k = 3.273406
         5        10     1        0.143429   333658.830957    ;  uncertainty r = 0.000101, k = 12.925109
         5        34     1        0.137190   323439.748047    ;  uncertainty r = 0.000109, k = 15.720627
         6         7     1        0.139204   373030.439502    ;  uncertainty r = 0.000031, k = 1.532197
         6        22     1        0.108908   337826.589355    ;  uncertainty r = 0.000007, k = 0.915296
         7         8     1        0.141248   347880.881299    ;  uncertainty r = 0.000048, k = 2.727051
         7        23     1        0.108787   335143.149902    ;  uncertainty r = 0.000015, k = 1.282440
         8         9     1        0.139156   366705.382715    ;  uncertainty r = 0.000016, k = 3.013067
         8        24     1        0.108813   335291.367285    ;  uncertainty r = 0.000018, k = 0.841713
         9        10     1        0.140712   363994.363184    ;  uncertainty r = 0.000090, k = 9.392181
         9        25     1        0.108826   337192.119873    ;  uncertainty r = 0.000025, k = 2.686180
        10        11     1        0.143927   250387.756689    ;  uncertainty r = 0.000100, k = 20.205925
        11        12     1        0.150056   234448.846484    ;  uncertainty r = 0.000153, k = 11.938075
        12        13     1        0.153885   206360.273438    ;  uncertainty r = 0.000103, k = 7.147654
        12        26     1        0.109683   309037.278027    ;  uncertainty r = 0.000026, k = 1.364430
        12        27     1        0.109683   309037.278027    ;  uncertainty r = 0.000026, k = 1.364430
        13        14     1        0.152189   210087.912524    ;  uncertainty r = 0.000032, k = 1.940784
        13        28     1        0.109664   307643.385986    ;  uncertainty r = 0.000028, k = 1.424205
        13        29     1        0.109664   307643.385986    ;  uncertainty r = 0.000028, k = 1.424205
        14        15     1        0.142377   233935.116455    ;  uncertainty r = 0.000037, k = 5.593643
        14        30     1        0.109775   308073.507520    ;  uncertainty r = 0.000024, k = 1.219195
        14        31     1        0.109775   308073.507520    ;  uncertainty r = 0.000024, k = 1.219195
        15        16     1        0.136908   319552.336035    ;  uncertainty r = 0.000033, k = 1.341763
        16        17     1        0.139714   361099.502002    ;  uncertainty r = 0.000019, k = 3.063067
        16        21     1        0.139714   361099.502002    ;  uncertainty r = 0.000019, k = 3.063067
        17        18     1        0.139059   369193.463281    ;  uncertainty r = 0.000042, k = 4.067998
        17        32     1        0.108811   336840.218506    ;  uncertainty r = 0.000033, k = 0.927641
        18        19     1        0.139353   356412.165576    ;  uncertainty r = 0.000026, k = 1.921756
        18        37     1        0.108794   336057.787012    ;  uncertainty r = 0.000024, k = 1.207299
        19        20     1        0.139353   356412.165576    ;  uncertainty r = 0.000026, k = 1.921756
        19        38     1        0.138386   317340.847900    ;  uncertainty r = 0.000042, k = 3.433243
        20        21     1        0.139059   369193.463281    ;  uncertainty r = 0.000042, k = 4.067998
        20        36     1        0.108794   336057.787012    ;  uncertainty r = 0.000024, k = 1.207299
        21        33     1        0.108811   336840.218506    ;  uncertainty r = 0.000033, k = 0.927641
        34        35     1        0.101525   411016.174658    ;  uncertainty r = 0.000192, k = 19.532863
        38        42     1        0.138290   318922.233398    ;  uncertainty r = 0.000040, k = 3.087873
        39        40     1        0.139686   369249.389551    ;  uncertainty r = 0.000012, k = 1.422086
        39        44     1        0.139686   369249.389551    ;  uncertainty r = 0.000012, k = 1.422087
        39        45     1        0.108820   334668.363965    ;  uncertainty r = 0.000011, k = 0.873071
        40        41     1        0.139415   369386.600439    ;  uncertainty r = 0.000019, k = 2.326485
        40        46     1        0.108801   333700.252148    ;  uncertainty r = 0.000015, k = 1.168081
        41        42     1        0.139518   355498.779785    ;  uncertainty r = 0.000030, k = 1.239174
        41        47     1        0.108834   336822.572363    ;  uncertainty r = 0.000014, k = 0.797807
        42        43     1        0.139518   355498.779785    ;  uncertainty r = 0.000030, k = 1.239184
        43        44     1        0.139415   369386.600439    ;  uncertainty r = 0.000019, k = 2.326499
        43        48     1        0.108834   336822.572363    ;  uncertainty r = 0.000014, k = 0.797818
        44        49     1        0.108801   333700.252148    ;  uncertainty r = 0.000015, k = 1.168098

[ angles ]
;       ai        aj        ak funct           theta             cth
         1         2         3     1      131.490799      799.912859    ;  uncertainty theta = 0.007122, k = 0.161146
         1         2         4     1      115.643898      409.958900    ;  uncertainty theta = 0.009941, k = 0.278481
         2         4        11     1      129.691666      294.711298    ;  uncertainty theta = 0.010379, k = 0.154712
         2         4        34     1      117.855209      349.663901    ;  uncertainty theta = 0.005899, k = 0.287676
         3         2         4     1      115.643898      409.958900    ;  uncertainty theta = 0.009941, k = 0.278481
         4        11        10     1      107.813744      761.507600    ;  uncertainty theta = 0.003114, k = 0.233379
         4        11        12     1      125.834373      348.251252    ;  uncertainty theta = 0.008524, k = 0.203092
         4        34         5     1      106.686867      870.555270    ;  uncertainty theta = 0.004731, k = 0.157374
         4        34        35     1      118.324951      293.095597    ;  uncertainty theta = 0.017038, k = 0.289786
         5         6         7     1      117.288712      532.685108    ;  uncertainty theta = 0.002732, k = 0.138286
         5         6        22     1      122.416870      294.044173    ;  uncertainty theta = 0.002439, k = 0.026234
         5        10         9     1      116.726723      409.397211    ;  uncertainty theta = 0.004491, k = 0.081187
         5        10        11     1      107.622475      685.489179    ;  uncertainty theta = 0.004472, k = 0.334622
         5        34        35     1      119.518555      279.940091    ;  uncertainty theta = 0.027559, k = 0.287070
         6         5        10     1      120.341995      378.416324    ;  uncertainty theta = 0.003053, k = 0.079333
         6         5        34     1      130.070251      406.372596    ;  uncertainty theta = 0.003047, k = 0.189160
         6         7         8     1      122.110641      522.210041    ;  uncertainty theta = 0.001703, k = 0.050914
         6         7        23     1      119.408218      283.874626    ;  uncertainty theta = 0.001884, k = 0.037783
         7         6        22     1      121.416527      285.300171    ;  uncertainty theta = 0.001028, k = 0.037490
         7         8         9     1      121.942673      521.393620    ;  uncertainty theta = 0.001697, k = 0.032913
         7         8        24     1      119.651100      288.114903    ;  uncertainty theta = 0.001746, k = 0.035440
         8         7        23     1      119.801102      287.497128    ;  uncertainty theta = 0.001585, k = 0.046675
         8         9        10     1      119.165207      547.786701    ;  uncertainty theta = 0.003326, k = 0.038562
         8         9        25     1      120.508347      285.672566    ;  uncertainty theta = 0.001453, k = 0.031601
         9         8        24     1      119.815613      287.517590    ;  uncertainty theta = 0.001890, k = 0.024499
         9        10        11     1      132.186111      358.431813    ;  uncertainty theta = 0.003911, k = 0.091946
        10         5        34     1      107.610229      677.054783    ;  uncertainty theta = 0.004088, k = 0.326769
        10         9        25     1      121.598999      289.048093    ;  uncertainty theta = 0.003949, k = 0.074173
        10        11        12     1      125.270729      364.592289    ;  uncertainty theta = 0.008077, k = 0.215292
        11         4        34     1      110.824791      694.108082    ;  uncertainty theta = 0.003478, k = 0.245195
        11        12        13     1      111.535912      545.701979    ;  uncertainty theta = 0.004629, k = 0.049601
        11        12        26     1      107.023758      409.119878    ;  uncertainty theta = 0.002156, k = 0.076181
        11        12        27     1      107.023758      409.119878    ;  uncertainty theta = 0.002156, k = 0.076181
        12        13        14     1      109.889565      550.105216    ;  uncertainty theta = 0.002846, k = 0.052217
        12        13        28     1      107.780540      395.334819    ;  uncertainty theta = 0.002719, k = 0.061247
        12        13        29     1      107.780540      395.334819    ;  uncertainty theta = 0.002719, k = 0.061247
        13        12        26     1      106.925919      401.105057    ;  uncertainty theta = 0.002530, k = 0.096026
        13        12        27     1      106.925919      401.105057    ;  uncertainty theta = 0.002530, k = 0.096026
        13        14        15     1      109.198631      594.126404    ;  uncertainty theta = 0.001676, k = 0.046038
        13        14        30     1      109.835693      407.619797    ;  uncertainty theta = 0.001604, k = 0.043274
        13        14        31     1      109.835693      407.619797    ;  uncertainty theta = 0.001604, k = 0.043274
        14        13        28     1      106.754715      398.540907    ;  uncertainty theta = 0.001622, k = 0.024398
        14        13        29     1      106.754715      398.540907    ;  uncertainty theta = 0.001622, k = 0.024398
        14        15        16     1      110.251144      508.726288    ;  uncertainty theta = 0.001477, k = 0.039222
        15        14        30     1      106.865379      432.369629    ;  uncertainty theta = 0.001791, k = 0.028057
        15        14        31     1      106.865379      432.369629    ;  uncertainty theta = 0.001791, k = 0.028057
        15        16        17     1      119.964233      425.316407    ;  uncertainty theta = 0.003943, k = 0.033404
        15        16        21     1      119.964233      425.316407    ;  uncertainty theta = 0.003943, k = 0.033404
        16        17        18     1      119.610916      516.335389    ;  uncertainty theta = 0.002169, k = 0.031898
        16        17        32     1      119.730026      266.457519    ;  uncertainty theta = 0.001751, k = 0.056305
        16        21        20     1      119.610916      516.335389    ;  uncertainty theta = 0.002169, k = 0.031898
        16        21        33     1      119.730026      266.457519    ;  uncertainty theta = 0.001751, k = 0.056305
        17        16        21     1      120.350853      370.285947    ;  uncertainty theta = 0.003154, k = 0.104845
        17        18        19     1      119.477066      511.093163    ;  uncertainty theta = 0.002675, k = 0.032996
        17        18        37     1      120.615616      282.340899    ;  uncertainty theta = 0.001982, k = 0.015238
        18        17        32     1      120.323219      281.813462    ;  uncertainty theta = 0.002697, k = 0.028198
        18        19        20     1      120.761635      374.781660    ;  uncertainty theta = 0.004011, k = 0.048338
        18        19        38     1      119.737366      417.198702    ;  uncertainty theta = 0.003256, k = 0.065257
        19        18        37     1      120.440308      275.235964    ;  uncertainty theta = 0.000838, k = 0.040931
        19        20        21     1      119.477066      511.093163    ;  uncertainty theta = 0.002675, k = 0.032996
        19        20        36     1      120.440308      275.235964    ;  uncertainty theta = 0.000838, k = 0.040931
        19        38        42     1      112.937279      465.726712    ;  uncertainty theta = 0.000953, k = 0.067064
        20        19        38     1      119.737366      417.198702    ;  uncertainty theta = 0.003256, k = 0.065257
        20        21        33     1      120.323219      281.813462    ;  uncertainty theta = 0.002697, k = 0.028198
        21        20        36     1      120.615616      282.340899    ;  uncertainty theta = 0.001982, k = 0.015238
        26        12        27     1      104.532616      313.868120    ;  uncertainty theta = 0.003533, k = 0.064476
        28        13        29     1      105.092697      317.561425    ;  uncertainty theta = 0.002566, k = 0.027591
        30        14        31     1      107.450478      331.956853    ;  uncertainty theta = 0.001998, k = 0.040678
        38        42        41     1      119.670509      415.712794    ;  uncertainty theta = 0.003413, k = 0.055603
        38        42        43     1      119.670509      415.712794    ;  uncertainty theta = 0.003413, k = 0.055603
        39        40        41     1      120.084068      516.951887    ;  uncertainty theta = 0.001716, k = 0.038478
        39        40        46     1      120.581619      286.044482    ;  uncertainty theta = 0.000906, k = 0.028064
        39        44        43     1      120.084068      516.951887    ;  uncertainty theta = 0.001716, k = 0.038478
        39        44        49     1      120.581619      286.044514    ;  uncertainty theta = 0.000906, k = 0.028064
        40        39        44     1      118.409134      527.559747    ;  uncertainty theta = 0.001688, k = 0.022829
        40        39        45     1      120.564613      288.816344    ;  uncertainty theta = 0.001662, k = 0.014287
        40        41        42     1      118.519211      523.221503    ;  uncertainty theta = 0.002484, k = 0.072785
        40        41        47     1      121.371338      289.886891    ;  uncertainty theta = 0.001216, k = 0.033022
        41        40        46     1      119.735619      283.765838    ;  uncertainty theta = 0.001282, k = 0.024909
        41        42        43     1      121.527512      383.380419    ;  uncertainty theta = 0.003757, k = 0.115404
        42        41        47     1      120.429733      275.977785    ;  uncertainty theta = 0.001141, k = 0.018771
        42        43        44     1      118.519211      523.221471    ;  uncertainty theta = 0.002484, k = 0.072785
        42        43        48     1      120.429733      275.977785    ;  uncertainty theta = 0.001141, k = 0.018771
        43        44        49     1      119.735619      283.765806    ;  uncertainty theta = 0.001282, k = 0.024909
        44        39        45     1      120.564613      288.816376    ;  uncertainty theta = 0.001662, k = 0.014287
        44        43        48     1      121.371338      289.886891    ;  uncertainty theta = 0.001216, k = 0.033023

[ dihedrals ] ; propers for gromacs 4.5 or higher, use funct 9
;       ai        aj        ak        al funct           phase               k        pn
         1         2         4        11     9        0.000000       -1.372021         1    ;  uncertainty k = 1.492730
         1         2         4        11     9      180.000000        2.371115         2    ;  uncertainty k = 0.300482
         1         2         4        11     9        0.000000        0.292116         3    ;  uncertainty k = 0.252771
         1         2         4        11     9      180.000000        0.155159         4    ;  uncertainty k = 0.093475
         1         2         4        34     9        0.000000        1.707823         1    ;  uncertainty k = 0.704832
         1         2         4        34     9      180.000000        3.884647         2    ;  uncertainty k = 0.565808
         1         2         4        34     9        0.000000        0.749129         3    ;  uncertainty k = 0.264976
         1         2         4        34     9      180.000000        0.174104         4    ;  uncertainty k = 0.159693
         2         4        11        10     9        0.000000        0.658377         1    ;  uncertainty k = 1.317360
         2         4        11        10     9      180.000000       11.269219         2    ;  uncertainty k = 0.349150
         2         4        11        10     9        0.000000        2.080317         3    ;  uncertainty k = 0.240036
         2         4        11        10     9      180.000000        0.676709         4    ;  uncertainty k = 0.169861
         2         4        11        12     9        0.000000        0.204708         1    ;  uncertainty k = 0.747460
         2         4        11        12     9      180.000000        9.233953         2    ;  uncertainty k = 0.447590
         2         4        11        12     9        0.000000        1.675443         3    ;  uncertainty k = 0.293006
         2         4        11        12     9      180.000000        0.426607         4    ;  uncertainty k = 0.323880
         2         4        34         5     9        0.000000       -0.464998         1    ;  uncertainty k = 2.171907
         2         4        34         5     9      180.000000        6.451220         2    ;  uncertainty k = 1.089854
         2         4        34         5     9        0.000000        1.609707         3    ;  uncertainty k = 0.687909
         2         4        34         5     9      180.000000        0.292935         4    ;  uncertainty k = 0.259665
         2         4        34        35     9        0.000000        1.253701         1    ;  uncertainty k = 2.041217
         2         4        34        35     9      180.000000        2.479089         2    ;  uncertainty k = 1.021447
         2         4        34        35     9        0.000000        1.291813         3    ;  uncertainty k = 0.578698
         2         4        34        35     9      180.000000       -0.030601         4    ;  uncertainty k = 0.146306
         3         2         4        11     9        0.000000       -1.372021         1    ;  uncertainty k = 1.492730
         3         2         4        11     9      180.000000        2.371115         2    ;  uncertainty k = 0.300482
         3         2         4        11     9        0.000000        0.292116         3    ;  uncertainty k = 0.252771
         3         2         4        11     9      180.000000        0.155159         4    ;  uncertainty k = 0.093475
         3         2         4        34     9        0.000000        1.707823         1    ;  uncertainty k = 0.704832
         3         2         4        34     9      180.000000        3.884647         2    ;  uncertainty k = 0.565808
         3         2         4        34     9        0.000000        0.749129         3    ;  uncertainty k = 0.264976
         3         2         4        34     9      180.000000        0.174104         4    ;  uncertainty k = 0.159693
         4        11        10         5     9        0.000000        0.171220         1    ;  uncertainty k = 0.432161
         4        11        10         5     9      180.000000       11.967638         2    ;  uncertainty k = 1.294698
         4        11        10         5     9        0.000000       -9.909327         3    ;  uncertainty k = 1.605977
         4        11        10         5     9      180.000000        2.102653         4    ;  uncertainty k = 0.733398
         4        11        10         9     9        0.000000        0.079803         1    ;  uncertainty k = 1.313243
         4        11        10         9     9      180.000000        5.721978         2    ;  uncertainty k = 0.321426
         4        11        10         9     9        0.000000        0.431775         3    ;  uncertainty k = 0.611745
         4        11        10         9     9      180.000000        0.952472         4    ;  uncertainty k = 0.149862
         4        11        12        13     9        0.000000       -0.349976         1    ;  uncertainty k = 1.059919
         4        11        12        13     9      180.000000        1.470982         2    ;  uncertainty k = 0.379967
         4        11        12        13     9        0.000000        0.213574         3    ;  uncertainty k = 0.480671
         4        11        12        13     9      180.000000        0.121645         4    ;  uncertainty k = 0.162937
         4        11        12        26     9        0.000000        1.439359         1    ;  uncertainty k = 0.397283
         4        11        12        26     9      180.000000        2.614207         2    ;  uncertainty k = 0.334496
         4        11        12        26     9        0.000000        0.055715         3    ;  uncertainty k = 0.092065
         4        11        12        26     9      180.000000        0.180012         4    ;  uncertainty k = 0.123046
         4        11        12        27     9        0.000000        1.439359         1    ;  uncertainty k = 0.397283
         4        11        12        27     9      180.000000        2.614207         2    ;  uncertainty k = 0.334496
         4        11        12        27     9        0.000000        0.055715         3    ;  uncertainty k = 0.092065
         4        11        12        27     9      180.000000        0.180012         4    ;  uncertainty k = 0.123046
         4        34         5         6     9        0.000000        0.779094         1    ;  uncertainty k = 1.611142
         4        34         5         6     9      180.000000        6.072861         2    ;  uncertainty k = 1.235288
         4        34         5         6     9        0.000000        0.738725         3    ;  uncertainty k = 0.606503
         4        34         5         6     9      180.000000        0.313530         4    ;  uncertainty k = 0.310389
         4        34         5        10     9        0.000000       -0.304471         1    ;  uncertainty k = 0.989395
         4        34         5        10     9      180.000000       15.047901         2    ;  uncertainty k = 1.046721
         4        34         5        10     9        0.000000       -8.395770         3    ;  uncertainty k = 1.919282
         4        34         5        10     9      180.000000        0.648752         4    ;  uncertainty k = 0.607428
         5         6         7         8     9        0.000000       -0.007204         1    ;  uncertainty k = 0.352017
         5         6         7         8     9      180.000000       16.955015         2    ;  uncertainty k = 0.265826
         5         6         7         8     9        0.000000       -0.377243         3    ;  uncertainty k = 0.370601
         5         6         7         8     9      180.000000        0.608270         4    ;  uncertainty k = 0.292320
         5         6         7        23     9        0.000000        0.031156         1    ;  uncertainty k = 0.336940
         5         6         7        23     9      180.000000       10.941246         2    ;  uncertainty k = 0.419077
         5         6         7        23     9        0.000000        1.421256         3    ;  uncertainty k = 0.272944
         5         6         7        23     9      180.000000        1.557433         4    ;  uncertainty k = 0.258138
         5        10         9         8     9        0.000000        0.010948         1    ;  uncertainty k = 0.402869
         5        10         9         8     9      180.000000       13.710034         2    ;  uncertainty k = 0.163194
         5        10         9         8     9        0.000000       -1.521568         3    ;  uncertainty k = 0.300487
         5        10         9         8     9      180.000000        0.694567         4    ;  uncertainty k = 0.283041
         5        10         9        25     9        0.000000        0.253366         1    ;  uncertainty k = 0.171030
         5        10         9        25     9      180.000000        7.059567         2    ;  uncertainty k = 0.776058
         5        10         9        25     9        0.000000        1.466229         3    ;  uncertainty k = 0.353750
         5        10         9        25     9      180.000000        1.230009         4    ;  uncertainty k = 0.397540
         5        10        11        12     9        0.000000        1.338495         1    ;  uncertainty k = 1.087086
         5        10        11        12     9      180.000000       10.551108         2    ;  uncertainty k = 0.351316
         5        10        11        12     9        0.000000        1.801678         3    ;  uncertainty k = 0.392566
         5        10        11        12     9      180.000000        0.257171         4    ;  uncertainty k = 0.352643
         5        34         4        11     9        0.000000       -0.469081         1    ;  uncertainty k = 0.858054
         5        34         4        11     9      180.000000       14.635346         2    ;  uncertainty k = 0.621844
         5        34         4        11     9        0.000000       -5.847696         3    ;  uncertainty k = 1.154312
         5        34         4        11     9      180.000000        0.763949         4    ;  uncertainty k = 0.332867
         6         5        10         9     9        0.000000       -0.557459         1    ;  uncertainty k = 0.504536
         6         5        10         9     9      180.000000        7.175498         2    ;  uncertainty k = 0.762478
         6         5        10         9     9        0.000000        0.165063         3    ;  uncertainty k = 0.420578
         6         5        10         9     9      180.000000        0.902459         4    ;  uncertainty k = 0.405275
         6         5        10        11     9        0.000000       -0.095996         1    ;  uncertainty k = 0.579182
         6         5        10        11     9      180.000000        7.141608         2    ;  uncertainty k = 0.626861
         6         5        10        11     9        0.000000        0.190982         3    ;  uncertainty k = 0.555203
         6         5        10        11     9      180.000000        1.106105         4    ;  uncertainty k = 0.382286
         6         5        34        35     9        0.000000        1.556211         1    ;  uncertainty k = 0.864779
         6         5        34        35     9      180.000000        1.456879         2    ;  uncertainty k = 0.823313
         6         5        34        35     9        0.000000        1.223414         3    ;  uncertainty k = 0.515923
         6         5        34        35     9      180.000000        0.185999         4    ;  uncertainty k = 0.197024
         6         7         8         9     9        0.000000       -0.216392         1    ;  uncertainty k = 0.203221
         6         7         8         9     9      180.000000       12.688314         2    ;  uncertainty k = 0.287114
         6         7         8         9     9        0.000000       -0.841327         3    ;  uncertainty k = 0.664749
         6         7         8         9     9      180.000000        0.649352         4    ;  uncertainty k = 0.206451
         6         7         8        24     9        0.000000        0.020527         1    ;  uncertainty k = 0.059042
         6         7         8        24     9      180.000000        6.989280         2    ;  uncertainty k = 0.437421
         6         7         8        24     9        0.000000        1.365009         3    ;  uncertainty k = 0.283914
         6         7         8        24     9      180.000000        1.623914         4    ;  uncertainty k = 0.216596
         7         6         5        10     9        0.000000       -0.061762         1    ;  uncertainty k = 0.380516
         7         6         5        10     9      180.000000       12.578005         2    ;  uncertainty k = 0.240233
         7         6         5        10     9        0.000000       -1.274716         3    ;  uncertainty k = 0.208709
         7         6         5        10     9      180.000000        0.774303         4    ;  uncertainty k = 0.287170
         7         6         5        34     9        0.000000       -0.040937         1    ;  uncertainty k = 0.255560
         7         6         5        34     9      180.000000       11.252463         2    ;  uncertainty k = 0.580598
         7         6         5        34     9        0.000000        0.539336         3    ;  uncertainty k = 0.344721
         7         6         5        34     9      180.000000        1.022385         4    ;  uncertainty k = 0.303790
         7         8         9        10     9        0.000000        0.019920         1    ;  uncertainty k = 0.483038
         7         8         9        10     9      180.000000       16.879730         2    ;  uncertainty k = 0.325142
         7         8         9        10     9        0.000000       -0.454716         3    ;  uncertainty k = 0.474507
         7         8         9        10     9      180.000000        0.578125         4    ;  uncertainty k = 0.391909
         7         8         9        25     9        0.000000        0.168636         1    ;  uncertainty k = 0.193240
         7         8         9        25     9      180.000000        8.751745         2    ;  uncertainty k = 0.517235
         7         8         9        25     9        0.000000        1.537662         3    ;  uncertainty k = 0.246200
         7         8         9        25     9      180.000000        1.882842         4    ;  uncertainty k = 0.288260
         8         7         6        22     9        0.000000        0.165182         1    ;  uncertainty k = 0.216912
         8         7         6        22     9      180.000000        8.873569         2    ;  uncertainty k = 0.614610
         8         7         6        22     9        0.000000        1.622975         3    ;  uncertainty k = 0.261540
         8         7         6        22     9      180.000000        1.905453         4    ;  uncertainty k = 0.326822
         8         9        10        11     9        0.000000        0.249753         1    ;  uncertainty k = 0.103663
         8         9        10        11     9      180.000000        9.179070         2    ;  uncertainty k = 0.411370
         8         9        10        11     9        0.000000        0.517062         3    ;  uncertainty k = 0.430347
         8         9        10        11     9      180.000000        1.153234         4    ;  uncertainty k = 0.143424
         9         8         7        23     9        0.000000       -0.030439         1    ;  uncertainty k = 0.102038
         9         8         7        23     9      180.000000        6.901165         2    ;  uncertainty k = 0.417183
         9         8         7        23     9        0.000000        1.354655         3    ;  uncertainty k = 0.214825
         9         8         7        23     9      180.000000        1.587525         4    ;  uncertainty k = 0.176781
         9        10         5        34     9        0.000000       -0.032223         1    ;  uncertainty k = 0.572800
         9        10         5        34     9      180.000000        8.643799         2    ;  uncertainty k = 0.269496
         9        10         5        34     9        0.000000       -0.453955         3    ;  uncertainty k = 0.641368
         9        10         5        34     9      180.000000        1.174833         4    ;  uncertainty k = 0.384480
         9        10        11        12     9        0.000000        0.238961         1    ;  uncertainty k = 1.397644
         9        10        11        12     9      180.000000        5.787109         2    ;  uncertainty k = 0.469515
         9        10        11        12     9        0.000000        1.699642         3    ;  uncertainty k = 0.321923
         9        10        11        12     9      180.000000        0.173483         4    ;  uncertainty k = 0.188688
        10         5         6        22     9        0.000000        0.319122         1    ;  uncertainty k = 0.490757
        10         5         6        22     9      180.000000        6.345798         2    ;  uncertainty k = 0.822340
        10         5         6        22     9        0.000000        1.324954         3    ;  uncertainty k = 0.253224
        10         5         6        22     9      180.000000        1.101595         4    ;  uncertainty k = 0.359631
        10         5        34        35     9        0.000000        6.104771         1    ;  uncertainty k = 2.118850
        10         5        34        35     9      180.000000        4.638186         2    ;  uncertainty k = 1.440061
        10         5        34        35     9        0.000000        1.257718         3    ;  uncertainty k = 0.462506
        10         5        34        35     9      180.000000        0.319293         4    ;  uncertainty k = 0.097073
        10         9         8        24     9        0.000000        0.118303         1    ;  uncertainty k = 0.391732
        10         9         8        24     9      180.000000       10.979734         2    ;  uncertainty k = 0.363860
        10         9         8        24     9        0.000000        1.498292         3    ;  uncertainty k = 0.324461
        10         9         8        24     9      180.000000        1.658169         4    ;  uncertainty k = 0.294311
        10        11         4        34     9        0.000000       -0.343459         1    ;  uncertainty k = 0.628998
        10        11         4        34     9      180.000000       19.851697         2    ;  uncertainty k = 0.337386
        10        11         4        34     9        0.000000       -6.038290         3    ;  uncertainty k = 1.696783
        10        11         4        34     9      180.000000        1.027795         4    ;  uncertainty k = 0.436841
        10        11        12        13     9        0.000000       -0.219350         1    ;  uncertainty k = 1.004792
        10        11        12        13     9      180.000000        1.088397         2    ;  uncertainty k = 0.671793
        10        11        12        13     9        0.000000        0.696652         3    ;  uncertainty k = 0.268337
        10        11        12        13     9      180.000000        0.164044         4    ;  uncertainty k = 0.059900
        10        11        12        26     9        0.000000       -0.686921         1    ;  uncertainty k = 0.448582
        10        11        12        26     9      180.000000        2.071241         2    ;  uncertainty k = 0.415243
        10        11        12        26     9        0.000000        0.779274         3    ;  uncertainty k = 0.145606
        10        11        12        26     9      180.000000        0.211883         4    ;  uncertainty k = 0.077331
        10        11        12        27     9        0.000000       -0.686921         1    ;  uncertainty k = 0.448582
        10        11        12        27     9      180.000000        2.071241         2    ;  uncertainty k = 0.415243
        10        11        12        27     9        0.000000        0.779274         3    ;  uncertainty k = 0.145606
        10        11        12        27     9      180.000000        0.211883         4    ;  uncertainty k = 0.077331
        11         4        34        35     9        0.000000        3.994326         1    ;  uncertainty k = 2.809201
        11         4        34        35     9      180.000000        7.262693         2    ;  uncertainty k = 0.379220
        11         4        34        35     9        0.000000        1.858365         3    ;  uncertainty k = 0.686233
        11         4        34        35     9      180.000000       -0.114664         4    ;  uncertainty k = 0.351651
        11        10         5        34     9        0.000000       -0.200093         1    ;  uncertainty k = 0.424326
        11        10         5        34     9      180.000000       12.998296         2    ;  uncertainty k = 0.637101
        11        10         5        34     9        0.000000       -4.487286         3    ;  uncertainty k = 1.787354
        11        10         5        34     9      180.000000        1.376048         4    ;  uncertainty k = 0.852459
        11        10         9        25     9        0.000000        0.623609         1    ;  uncertainty k = 0.818827
        11        10         9        25     9      180.000000        5.597100         2    ;  uncertainty k = 0.476519
        11        10         9        25     9        0.000000        1.146276         3    ;  uncertainty k = 0.356005
        11        10         9        25     9      180.000000        0.780142         4    ;  uncertainty k = 0.277118
        11        12        13        14     9        0.000000       -2.797521         1    ;  uncertainty k = 1.001297
        11        12        13        14     9      180.000000       -0.438773         2    ;  uncertainty k = 0.388442
        11        12        13        14     9        0.000000        1.346273         3    ;  uncertainty k = 0.124329
        11        12        13        14     9      180.000000       -0.311874         4    ;  uncertainty k = 0.109825
        11        12        13        28     9        0.000000        0.428587         1    ;  uncertainty k = 0.616136
        11        12        13        28     9      180.000000       -0.329644         2    ;  uncertainty k = 0.354693
        11        12        13        28     9        0.000000        1.117197         3    ;  uncertainty k = 0.164143
        11        12        13        28     9      180.000000        0.004866         4    ;  uncertainty k = 0.054513
        11        12        13        29     9        0.000000        0.428587         1    ;  uncertainty k = 0.616136
        11        12        13        29     9      180.000000       -0.329644         2    ;  uncertainty k = 0.354693
        11        12        13        29     9        0.000000        1.117197         3    ;  uncertainty k = 0.164143
        11        12        13        29     9      180.000000        0.004866         4    ;  uncertainty k = 0.054513
        12        11         4        34     9        0.000000        0.421908         1    ;  uncertainty k = 0.686279
        12        11         4        34     9      180.000000       16.338015         2    ;  uncertainty k = 0.475382
        12        11         4        34     9        0.000000        1.239769         3    ;  uncertainty k = 0.508643
        12        11         4        34     9      180.000000        0.759832         4    ;  uncertainty k = 0.322483
        12        13        14        15     9        0.000000       -3.985968         1    ;  uncertainty k = 1.196706
        12        13        14        15     9      180.000000       -2.430722         2    ;  uncertainty k = 0.479759
        12        13        14        15     9        0.000000        2.169434         3    ;  uncertainty k = 0.272716
        12        13        14        15     9      180.000000       -0.467268         4    ;  uncertainty k = 0.160423
        12        13        14        30     9        0.000000       -1.869287         1    ;  uncertainty k = 0.468315
        12        13        14        30     9      180.000000        0.095120         2    ;  uncertainty k = 0.233462
        12        13        14        30     9        0.000000        0.933992         3    ;  uncertainty k = 0.064492
        12        13        14        30     9      180.000000       -0.359472         4    ;  uncertainty k = 0.103212
        12        13        14        31     9        0.000000       -1.869287         1    ;  uncertainty k = 0.468315
        12        13        14        31     9      180.000000        0.095120         2    ;  uncertainty k = 0.233462
        12        13        14        31     9        0.000000        0.933992         3    ;  uncertainty k = 0.064492
        12        13        14        31     9      180.000000       -0.359472         4    ;  uncertainty k = 0.103212
        13        14        15        16     9        0.000000       -1.120566         1    ;  uncertainty k = 0.482284
        13        14        15        16     9      180.000000       -0.213249         2    ;  uncertainty k = 0.245668
        13        14        15        16     9        0.000000        0.782583         3    ;  uncertainty k = 0.094120
        13        14        15        16     9      180.000000        0.485925         4    ;  uncertainty k = 0.072698
        14        13        12        26     9        0.000000       -1.671600         1    ;  uncertainty k = 0.371924
        14        13        12        26     9      180.000000       -0.604412         2    ;  uncertainty k = 0.297865
        14        13        12        26     9        0.000000        0.944747         3    ;  uncertainty k = 0.125510
        14        13        12        26     9      180.000000       -0.352082         4    ;  uncertainty k = 0.062685
        14        13        12        27     9        0.000000       -1.671600         1    ;  uncertainty k = 0.371924
        14        13        12        27     9      180.000000       -0.604412         2    ;  uncertainty k = 0.297865
        14        13        12        27     9        0.000000        0.944747         3    ;  uncertainty k = 0.125510
        14        13        12        27     9      180.000000       -0.352082         4    ;  uncertainty k = 0.062685
        14        15        16        17     9        0.000000        0.818025         1    ;  uncertainty k = 0.370288
        14        15        16        17     9      180.000000        6.834788         2    ;  uncertainty k = 0.084122
        14        15        16        17     9        0.000000        0.678781         3    ;  uncertainty k = 0.053365
        14        15        16        17     9      180.000000        0.202171         4    ;  uncertainty k = 0.042675
        14        15        16        21     9        0.000000        0.818025         1    ;  uncertainty k = 0.370288
        14        15        16        21     9      180.000000        6.834788         2    ;  uncertainty k = 0.084122
        14        15        16        21     9        0.000000        0.678781         3    ;  uncertainty k = 0.053365
        14        15        16        21     9      180.000000        0.202171         4    ;  uncertainty k = 0.042675
        15        14        13        28     9        0.000000        0.257140         1    ;  uncertainty k = 0.550551
        15        14        13        28     9      180.000000       -2.135456         2    ;  uncertainty k = 0.266835
        15        14        13        28     9        0.000000        1.420201         3    ;  uncertainty k = 0.100382
        15        14        13        28     9      180.000000        0.041522         4    ;  uncertainty k = 0.068682
        15        14        13        29     9        0.000000        0.257140         1    ;  uncertainty k = 0.550551
        15        14        13        29     9      180.000000       -2.135456         2    ;  uncertainty k = 0.266835
        15        14        13        29     9        0.000000        1.420201         3    ;  uncertainty k = 0.100382
        15        14        13        29     9      180.000000        0.041522         4    ;  uncertainty k = 0.068682
        15        16        17        18     9        0.000000        0.057835         1    ;  uncertainty k = 0.352436
        15        16        17        18     9      180.000000       10.518448         2    ;  uncertainty k = 0.488799
        15        16        17        18     9        0.000000        1.183753         3    ;  uncertainty k = 0.270557
        15        16        17        18     9      180.000000        1.666685         4    ;  uncertainty k = 0.151361
        15        16        17        32     9        0.000000       -0.267561         1    ;  uncertainty k = 0.302273
        15        16        17        32     9      180.000000        8.362469         2    ;  uncertainty k = 0.360389
        15        16        17        32     9        0.000000        0.708579         3    ;  uncertainty k = 0.125653
        15        16        17        32     9      180.000000        1.027638         4    ;  uncertainty k = 0.220115
        15        16        21        20     9        0.000000        0.057835         1    ;  uncertainty k = 0.352436
        15        16        21        20     9      180.000000       10.518448         2    ;  uncertainty k = 0.488799
        15        16        21        20     9        0.000000        1.183753         3    ;  uncertainty k = 0.270557
        15        16        21        20     9      180.000000        1.666685         4    ;  uncertainty k = 0.151361
        15        16        21        33     9        0.000000       -0.267561         1    ;  uncertainty k = 0.302273
        15        16        21        33     9      180.000000        8.362469         2    ;  uncertainty k = 0.360389
        15        16        21        33     9        0.000000        0.708579         3    ;  uncertainty k = 0.125653
        15        16        21        33     9      180.000000        1.027638         4    ;  uncertainty k = 0.220115
        16        15        14        30     9        0.000000        0.589700         1    ;  uncertainty k = 0.355373
        16        15        14        30     9      180.000000       -1.169354         2    ;  uncertainty k = 0.077430
        16        15        14        30     9        0.000000        0.563503         3    ;  uncertainty k = 0.045098
        16        15        14        30     9      180.000000        0.264109         4    ;  uncertainty k = 0.064676
        16        15        14        31     9        0.000000        0.589700         1    ;  uncertainty k = 0.355373
        16        15        14        31     9      180.000000       -1.169354         2    ;  uncertainty k = 0.077430
        16        15        14        31     9        0.000000        0.563503         3    ;  uncertainty k = 0.045098
        16        15        14        31     9      180.000000        0.264109         4    ;  uncertainty k = 0.064676
        16        17        18        19     9        0.000000       -0.223105         1    ;  uncertainty k = 0.289210
        16        17        18        19     9      180.000000       14.406583         2    ;  uncertainty k = 0.409403
        16        17        18        19     9        0.000000       -0.604202         3    ;  uncertainty k = 0.535758
        16        17        18        19     9      180.000000        0.893497         4    ;  uncertainty k = 0.328366
        16        17        18        37     9        0.000000        0.057363         1    ;  uncertainty k = 0.214149
        16        17        18        37     9      180.000000        8.064855         2    ;  uncertainty k = 0.246890
        16        17        18        37     9        0.000000        1.325071         3    ;  uncertainty k = 0.312922
        16        17        18        37     9      180.000000        1.764252         4    ;  uncertainty k = 0.081884
        16        21        20        19     9        0.000000       -0.223105         1    ;  uncertainty k = 0.289210
        16        21        20        19     9      180.000000       14.406583         2    ;  uncertainty k = 0.409403
        16        21        20        19     9        0.000000       -0.604202         3    ;  uncertainty k = 0.535758
        16        21        20        19     9      180.000000        0.893497         4    ;  uncertainty k = 0.328366
        16        21        20        36     9        0.000000        0.057363         1    ;  uncertainty k = 0.214149
        16        21        20        36     9      180.000000        8.064855         2    ;  uncertainty k = 0.246890
        16        21        20        36     9        0.000000        1.325071         3    ;  uncertainty k = 0.312922
        16        21        20        36     9      180.000000        1.764252         4    ;  uncertainty k = 0.081884
        17        16        21        20     9        0.000000       -0.039573         1    ;  uncertainty k = 0.153090
        17        16        21        20     9      180.000000        9.460900         2    ;  uncertainty k = 0.609414
        17        16        21        20     9        0.000000       -0.131663         3    ;  uncertainty k = 0.336756
        17        16        21        20     9      180.000000        1.130597         4    ;  uncertainty k = 0.329699
        17        16        21        33     9        0.000000        0.179762         1    ;  uncertainty k = 0.286949
        17        16        21        33     9      180.000000        6.023805         2    ;  uncertainty k = 0.631598
        17        16        21        33     9        0.000000        1.403543         3    ;  uncertainty k = 0.349590
        17        16        21        33     9      180.000000        1.548358         4    ;  uncertainty k = 0.124979
        17        18        19        20     9        0.000000        0.038683         1    ;  uncertainty k = 0.100387
        17        18        19        20     9      180.000000        9.799437         2    ;  uncertainty k = 0.611124
        17        18        19        20     9        0.000000       -0.242496         3    ;  uncertainty k = 0.351882
        17        18        19        20     9      180.000000        1.085498         4    ;  uncertainty k = 0.341587
        17        18        19        38     9        0.000000        0.114192         1    ;  uncertainty k = 0.369195
        17        18        19        38     9      180.000000       10.201293         2    ;  uncertainty k = 0.632778
        17        18        19        38     9        0.000000        1.311131         3    ;  uncertainty k = 0.312924
        17        18        19        38     9      180.000000        1.725277         4    ;  uncertainty k = 0.220194
        18        17        16        21     9        0.000000       -0.039573         1    ;  uncertainty k = 0.153090
        18        17        16        21     9      180.000000        9.460900         2    ;  uncertainty k = 0.609414
        18        17        16        21     9        0.000000       -0.131663         3    ;  uncertainty k = 0.336756
        18        17        16        21     9      180.000000        1.130597         4    ;  uncertainty k = 0.329699
        18        19        20        21     9        0.000000        0.038683         1    ;  uncertainty k = 0.100387
        18        19        20        21     9      180.000000        9.799437         2    ;  uncertainty k = 0.611124
        18        19        20        21     9        0.000000       -0.242496         3    ;  uncertainty k = 0.351882
        18        19        20        21     9      180.000000        1.085498         4    ;  uncertainty k = 0.341587
        18        19        20        36     9        0.000000        0.180395         1    ;  uncertainty k = 0.227210
        18        19        20        36     9      180.000000        6.065141         2    ;  uncertainty k = 0.734326
        18        19        20        36     9        0.000000        1.370824         3    ;  uncertainty k = 0.413581
        18        19        20        36     9      180.000000        1.500629         4    ;  uncertainty k = 0.185822
        18        19        38        42     9        0.000000        4.166041         1    ;  uncertainty k = 0.252668
        18        19        38        42     9      180.000000        4.426339         2    ;  uncertainty k = 0.112915
        18        19        38        42     9        0.000000        0.570020         3    ;  uncertainty k = 0.118207
        18        19        38        42     9      180.000000        0.191952         4    ;  uncertainty k = 0.069657
        19        18        17        32     9        0.000000        0.002146         1    ;  uncertainty k = 0.119687
        19        18        17        32     9      180.000000        8.212177         2    ;  uncertainty k = 0.222692
        19        18        17        32     9        0.000000        1.315546         3    ;  uncertainty k = 0.251015
        19        18        17        32     9      180.000000        1.752313         4    ;  uncertainty k = 0.108767
        19        20        21        33     9        0.000000        0.002146         1    ;  uncertainty k = 0.119687
        19        20        21        33     9      180.000000        8.212177         2    ;  uncertainty k = 0.222692
        19        20        21        33     9        0.000000        1.315546         3    ;  uncertainty k = 0.251015
        19        20        21        33     9      180.000000        1.752313         4    ;  uncertainty k = 0.108767
        19        38        42        41     9        0.000000        4.188451         1    ;  uncertainty k = 0.261124
        19        38        42        41     9      180.000000        4.790113         2    ;  uncertainty k = 0.080665
        19        38        42        41     9        0.000000        0.615177         3    ;  uncertainty k = 0.098026
        19        38        42        41     9      180.000000        0.183149         4    ;  uncertainty k = 0.061209
        19        38        42        43     9        0.000000        4.188451         1    ;  uncertainty k = 0.261124
        19        38        42        43     9      180.000000        4.790113         2    ;  uncertainty k = 0.080665
        19        38        42        43     9        0.000000        0.615177         3    ;  uncertainty k = 0.098025
        19        38        42        43     9      180.000000        0.183149         4    ;  uncertainty k = 0.061209
        20        19        18        37     9        0.000000        0.180395         1    ;  uncertainty k = 0.227210
        20        19        18        37     9      180.000000        6.065141         2    ;  uncertainty k = 0.734326
        20        19        18        37     9        0.000000        1.370824         3    ;  uncertainty k = 0.413581
        20        19        18        37     9      180.000000        1.500629         4    ;  uncertainty k = 0.185822
        20        19        38        42     9        0.000000        4.166041         1    ;  uncertainty k = 0.252668
        20        19        38        42     9      180.000000        4.426339         2    ;  uncertainty k = 0.112915
        20        19        38        42     9        0.000000        0.570020         3    ;  uncertainty k = 0.118207
        20        19        38        42     9      180.000000        0.191952         4    ;  uncertainty k = 0.069657
        21        16        17        32     9        0.000000        0.179762         1    ;  uncertainty k = 0.286949
        21        16        17        32     9      180.000000        6.023805         2    ;  uncertainty k = 0.631598
        21        16        17        32     9        0.000000        1.403543         3    ;  uncertainty k = 0.349590
        21        16        17        32     9      180.000000        1.548358         4    ;  uncertainty k = 0.124979
        21        20        19        38     9        0.000000        0.114192         1    ;  uncertainty k = 0.369195
        21        20        19        38     9      180.000000       10.201293         2    ;  uncertainty k = 0.632778
        21        20        19        38     9        0.000000        1.311131         3    ;  uncertainty k = 0.312924
        21        20        19        38     9      180.000000        1.725277         4    ;  uncertainty k = 0.220194
        22         6         5        34     9        0.000000        0.248356         1    ;  uncertainty k = 0.309441
        22         6         5        34     9      180.000000        6.219890         2    ;  uncertainty k = 0.560809
        22         6         5        34     9        0.000000        1.223843         3    ;  uncertainty k = 0.395076
        22         6         5        34     9      180.000000        0.794522         4    ;  uncertainty k = 0.403871
        22         6         7        23     9        0.000000        0.067635         1    ;  uncertainty k = 0.257851
        22         6         7        23     9      180.000000        7.678575         2    ;  uncertainty k = 0.249765
        22         6         7        23     9        0.000000       -0.249178         3    ;  uncertainty k = 0.224083
        22         6         7        23     9      180.000000        0.128053         4    ;  uncertainty k = 0.127116
        23         7         8        24     9        0.000000        0.024825         1    ;  uncertainty k = 0.154579
        23         7         8        24     9      180.000000        6.825470         2    ;  uncertainty k = 0.478217
        23         7         8        24     9        0.000000       -0.239724         3    ;  uncertainty k = 0.197508
        23         7         8        24     9      180.000000        0.091582         4    ;  uncertainty k = 0.138206
        24         8         9        25     9        0.000000        0.081241         1    ;  uncertainty k = 0.094303
        24         8         9        25     9      180.000000        7.822590         2    ;  uncertainty k = 0.225676
        24         8         9        25     9        0.000000       -0.195366         3    ;  uncertainty k = 0.265935
        24         8         9        25     9      180.000000        0.166865         4    ;  uncertainty k = 0.178530
        26        12        13        28     9        0.000000        0.852998         1    ;  uncertainty k = 0.162312
        26        12        13        28     9      180.000000       -0.684815         2    ;  uncertainty k = 0.290805
        26        12        13        28     9        0.000000        0.190526         3    ;  uncertainty k = 0.067767
        26        12        13        28     9      180.000000        0.009351         4    ;  uncertainty k = 0.042473
        26        12        13        29     9        0.000000        0.852998         1    ;  uncertainty k = 0.162312
        26        12        13        29     9      180.000000       -0.684815         2    ;  uncertainty k = 0.290805
        26        12        13        29     9        0.000000        0.190526         3    ;  uncertainty k = 0.067767
        26        12        13        29     9      180.000000        0.009351         4    ;  uncertainty k = 0.042473
        27        12        13        28     9        0.000000        0.852998         1    ;  uncertainty k = 0.162312
        27        12        13        28     9      180.000000       -0.684815         2    ;  uncertainty k = 0.290805
        27        12        13        28     9        0.000000        0.190526         3    ;  uncertainty k = 0.067767
        27        12        13        28     9      180.000000        0.009351         4    ;  uncertainty k = 0.042473
        27        12        13        29     9        0.000000        0.852998         1    ;  uncertainty k = 0.162312
        27        12        13        29     9      180.000000       -0.684815         2    ;  uncertainty k = 0.290805
        27        12        13        29     9        0.000000        0.190526         3    ;  uncertainty k = 0.067767
        27        12        13        29     9      180.000000        0.009351         4    ;  uncertainty k = 0.042473
        28        13        14        30     9        0.000000        0.461039         1    ;  uncertainty k = 0.142816
        28        13        14        30     9      180.000000       -0.427775         2    ;  uncertainty k = 0.141329
        28        13        14        30     9        0.000000        0.095542         3    ;  uncertainty k = 0.073246
        28        13        14        30     9      180.000000       -0.037844         4    ;  uncertainty k = 0.076606
        28        13        14        31     9        0.000000        0.461039         1    ;  uncertainty k = 0.142816
        28        13        14        31     9      180.000000       -0.427775         2    ;  uncertainty k = 0.141329
        28        13        14        31     9        0.000000        0.095542         3    ;  uncertainty k = 0.073246
        28        13        14        31     9      180.000000       -0.037844         4    ;  uncertainty k = 0.076606
        29        13        14        30     9        0.000000        0.461039         1    ;  uncertainty k = 0.142816
        29        13        14        30     9      180.000000       -0.427775         2    ;  uncertainty k = 0.141329
        29        13        14        30     9        0.000000        0.095542         3    ;  uncertainty k = 0.073246
        29        13        14        30     9      180.000000       -0.037844         4    ;  uncertainty k = 0.076606
        29        13        14        31     9        0.000000        0.461039         1    ;  uncertainty k = 0.142816
        29        13        14        31     9      180.000000       -0.427775         2    ;  uncertainty k = 0.141329
        29        13        14        31     9        0.000000        0.095542         3    ;  uncertainty k = 0.073246
        29        13        14        31     9      180.000000       -0.037844         4    ;  uncertainty k = 0.076606
        32        17        18        37     9        0.000000       -0.034263         1    ;  uncertainty k = 0.241097
        32        17        18        37     9      180.000000        7.535579         2    ;  uncertainty k = 0.413080
        32        17        18        37     9        0.000000       -0.394900         3    ;  uncertainty k = 0.246550
        32        17        18        37     9      180.000000        0.167597         4    ;  uncertainty k = 0.140398
        33        21        20        36     9        0.000000       -0.034263         1    ;  uncertainty k = 0.241097
        33        21        20        36     9      180.000000        7.535579         2    ;  uncertainty k = 0.413080
        33        21        20        36     9        0.000000       -0.394900         3    ;  uncertainty k = 0.246550
        33        21        20        36     9      180.000000        0.167597         4    ;  uncertainty k = 0.140398
        36        20        19        38     9        0.000000       -0.029151         1    ;  uncertainty k = 0.126074
        36        20        19        38     9      180.000000        8.034690         2    ;  uncertainty k = 0.191375
        36        20        19        38     9        0.000000        0.894737         3    ;  uncertainty k = 0.258926
        36        20        19        38     9      180.000000        1.132941         4    ;  uncertainty k = 0.122837
        37        18        19        38     9        0.000000       -0.029151         1    ;  uncertainty k = 0.126074
        37        18        19        38     9      180.000000        8.034690         2    ;  uncertainty k = 0.191375
        37        18        19        38     9        0.000000        0.894737         3    ;  uncertainty k = 0.258926
        37        18        19        38     9      180.000000        1.132941         4    ;  uncertainty k = 0.122837
        38        42        41        40     9        0.000000        0.019959         1    ;  uncertainty k = 0.261788
        38        42        41        40     9      180.000000       10.397257         2    ;  uncertainty k = 0.652171
        38        42        41        40     9        0.000000        1.341668         3    ;  uncertainty k = 0.245688
        38        42        41        40     9      180.000000        1.699191         4    ;  uncertainty k = 0.220269
        38        42        41        47     9        0.000000       -0.075623         1    ;  uncertainty k = 0.151840
        38        42        41        47     9      180.000000        8.183625         2    ;  uncertainty k = 0.220827
        38        42        41        47     9        0.000000        0.866209         3    ;  uncertainty k = 0.237394
        38        42        41        47     9      180.000000        1.126823         4    ;  uncertainty k = 0.106500
        38        42        43        44     9        0.000000        0.019958         1    ;  uncertainty k = 0.261789
        38        42        43        44     9      180.000000       10.397258         2    ;  uncertainty k = 0.652171
        38        42        43        44     9        0.000000        1.341668         3    ;  uncertainty k = 0.245688
        38        42        43        44     9      180.000000        1.699191         4    ;  uncertainty k = 0.220269
        38        42        43        48     9        0.000000       -0.075623         1    ;  uncertainty k = 0.151841
        38        42        43        48     9      180.000000        8.183625         2    ;  uncertainty k = 0.220827
        38        42        43        48     9        0.000000        0.866209         3    ;  uncertainty k = 0.237394
        38        42        43        48     9      180.000000        1.126823         4    ;  uncertainty k = 0.106500
        39        40        41        42     9        0.000000       -0.242949         1    ;  uncertainty k = 0.227304
        39        40        41        42     9      180.000000       14.499494         2    ;  uncertainty k = 0.228695
        39        40        41        42     9        0.000000       -0.900899         3    ;  uncertainty k = 0.560572
        39        40        41        42     9      180.000000        0.766023         4    ;  uncertainty k = 0.270412
        39        40        41        47     9        0.000000        0.154325         1    ;  uncertainty k = 0.067089
        39        40        41        47     9      180.000000        7.849610         2    ;  uncertainty k = 0.375473
        39        40        41        47     9        0.000000        1.498172         3    ;  uncertainty k = 0.297812
        39        40        41        47     9      180.000000        1.864161         4    ;  uncertainty k = 0.154581
        39        44        43        42     9        0.000000       -0.242949         1    ;  uncertainty k = 0.227304
        39        44        43        42     9      180.000000       14.499494         2    ;  uncertainty k = 0.228695
        39        44        43        42     9        0.000000       -0.900898         3    ;  uncertainty k = 0.560572
        39        44        43        42     9      180.000000        0.766023         4    ;  uncertainty k = 0.270412
        39        44        43        48     9        0.000000        0.154325         1    ;  uncertainty k = 0.067089
        39        44        43        48     9      180.000000        7.849611         2    ;  uncertainty k = 0.375473
        39        44        43        48     9        0.000000        1.498172         3    ;  uncertainty k = 0.297812
        39        44        43        48     9      180.000000        1.864160         4    ;  uncertainty k = 0.154581
        40        39        44        43     9        0.000000       -0.089363         1    ;  uncertainty k = 0.074713
        40        39        44        43     9      180.000000       15.193493         2    ;  uncertainty k = 0.336471
        40        39        44        43     9        0.000000       -1.186214         3    ;  uncertainty k = 0.539255
        40        39        44        43     9      180.000000        0.510260         4    ;  uncertainty k = 0.270202
        40        39        44        49     9        0.000000        0.049297         1    ;  uncertainty k = 0.069202
        40        39        44        49     9      180.000000        7.505023         2    ;  uncertainty k = 0.296021
        40        39        44        49     9        0.000000        1.420223         3    ;  uncertainty k = 0.316387
        40        39        44        49     9      180.000000        1.755206         4    ;  uncertainty k = 0.156827
        40        41        42        43     9        0.000000        0.013042         1    ;  uncertainty k = 0.074319
        40        41        42        43     9      180.000000        9.617341         2    ;  uncertainty k = 0.505505
        40        41        42        43     9        0.000000       -0.143134         3    ;  uncertainty k = 0.377657
        40        41        42        43     9      180.000000        1.134919         4    ;  uncertainty k = 0.323682
        41        40        39        44     9        0.000000       -0.089364         1    ;  uncertainty k = 0.074712
        41        40        39        44     9      180.000000       15.193495         2    ;  uncertainty k = 0.336471
        41        40        39        44     9        0.000000       -1.186215         3    ;  uncertainty k = 0.539255
        41        40        39        44     9      180.000000        0.510260         4    ;  uncertainty k = 0.270202
        41        40        39        45     9        0.000000        0.056498         1    ;  uncertainty k = 0.135935
        41        40        39        45     9      180.000000        7.604282         2    ;  uncertainty k = 0.334804
        41        40        39        45     9        0.000000        1.488354         3    ;  uncertainty k = 0.310970
        41        40        39        45     9      180.000000        1.826592         4    ;  uncertainty k = 0.141775
        41        42        43        44     9        0.000000        0.013042         1    ;  uncertainty k = 0.074318
        41        42        43        44     9      180.000000        9.617339         2    ;  uncertainty k = 0.505505
        41        42        43        44     9        0.000000       -0.143135         3    ;  uncertainty k = 0.377657
        41        42        43        44     9      180.000000        1.134919         4    ;  uncertainty k = 0.323682
        41        42        43        48     9        0.000000        0.233768         1    ;  uncertainty k = 0.259904
        41        42        43        48     9      180.000000        6.130238         2    ;  uncertainty k = 0.728224
        41        42        43        48     9        0.000000        1.431829         3    ;  uncertainty k = 0.391776
        41        42        43        48     9      180.000000        1.555760         4    ;  uncertainty k = 0.191906
        42        41        40        46     9        0.000000        0.016940         1    ;  uncertainty k = 0.126579
        42        41        40        46     9      180.000000        7.955597         2    ;  uncertainty k = 0.318050
        42        41        40        46     9        0.000000        1.323152         3    ;  uncertainty k = 0.204693
        42        41        40        46     9      180.000000        1.754462         4    ;  uncertainty k = 0.146343
        42        43        44        49     9        0.000000        0.016939         1    ;  uncertainty k = 0.126579
        42        43        44        49     9      180.000000        7.955597         2    ;  uncertainty k = 0.318050
        42        43        44        49     9        0.000000        1.323152         3    ;  uncertainty k = 0.204693
        42        43        44        49     9      180.000000        1.754462         4    ;  uncertainty k = 0.146343
        43        42        41        47     9        0.000000        0.233768         1    ;  uncertainty k = 0.259905
        43        42        41        47     9      180.000000        6.130238         2    ;  uncertainty k = 0.728224
        43        42        41        47     9        0.000000        1.431829         3    ;  uncertainty k = 0.391776
        43        42        41        47     9      180.000000        1.555760         4    ;  uncertainty k = 0.191906
        43        44        39        45     9        0.000000        0.056498         1    ;  uncertainty k = 0.135935
        43        44        39        45     9      180.000000        7.604282         2    ;  uncertainty k = 0.334804
        43        44        39        45     9        0.000000        1.488353         3    ;  uncertainty k = 0.310970
        43        44        39        45     9      180.000000        1.826593         4    ;  uncertainty k = 0.141775
        44        39        40        46     9        0.000000        0.049297         1    ;  uncertainty k = 0.069203
        44        39        40        46     9      180.000000        7.505023         2    ;  uncertainty k = 0.296021
        44        39        40        46     9        0.000000        1.420224         3    ;  uncertainty k = 0.316387
        44        39        40        46     9      180.000000        1.755206         4    ;  uncertainty k = 0.156827
        45        39        40        46     9        0.000000        0.014776         1    ;  uncertainty k = 0.087447
        45        39        40        46     9      180.000000        7.449208         2    ;  uncertainty k = 0.405378
        45        39        40        46     9        0.000000       -0.387864         3    ;  uncertainty k = 0.280466
        45        39        40        46     9      180.000000        0.038310         4    ;  uncertainty k = 0.151167
        45        39        44        49     9        0.000000        0.014776         1    ;  uncertainty k = 0.087447
        45        39        44        49     9      180.000000        7.449207         2    ;  uncertainty k = 0.405378
        45        39        44        49     9        0.000000       -0.387864         3    ;  uncertainty k = 0.280466
        45        39        44        49     9      180.000000        0.038310         4    ;  uncertainty k = 0.151167
        46        40        41        47     9        0.000000       -0.074682         1    ;  uncertainty k = 0.119666
        46        40        41        47     9      180.000000        7.511835         2    ;  uncertainty k = 0.362659
        46        40        41        47     9        0.000000       -0.425454         3    ;  uncertainty k = 0.271855
        46        40        41        47     9      180.000000        0.105336         4    ;  uncertainty k = 0.100529
        48        43        44        49     9        0.000000       -0.074682         1    ;  uncertainty k = 0.119666
        48        43        44        49     9      180.000000        7.511834         2    ;  uncertainty k = 0.362659
        48        43        44        49     9        0.000000       -0.425454         3    ;  uncertainty k = 0.271856
        48        43        44        49     9      180.000000        0.105336         4    ;  uncertainty k = 0.100529

[ dihedrals ] ; impropers
;       ai        aj        ak        al funct           phase               k        pn
         2         1         3         4     4      180.000000       64.265870         2    ;  uncertainty k = 0.050254
         2         3         4         1     4      180.000000       64.265870         2    ;  uncertainty k = 0.050254
         2         4         1         3     4      180.000000       64.265870         2    ;  uncertainty k = 0.050254
         4         2        11        34     4      180.000000        5.876961         2    ;  uncertainty k = 0.526652
         4        11        34         2     4      180.000000        5.876961         2    ;  uncertainty k = 0.526652
         4        34         2        11     4      180.000000        5.876961         2    ;  uncertainty k = 0.526652
         5         6        10        34     4      180.000000        1.057348         2    ;  uncertainty k = 0.904202
         5        10        34         6     4      180.000000        1.057348         2    ;  uncertainty k = 0.904202
         5        34         6        10     4      180.000000        1.057348         2    ;  uncertainty k = 0.904202
         6         5         7        22     4      180.000000        2.336037         2    ;  uncertainty k = 0.300690
         6         7        22         5     4      180.000000        2.336037         2    ;  uncertainty k = 0.300690
         6        22         5         7     4      180.000000        2.336037         2    ;  uncertainty k = 0.300690
         7         6         8        23     4      180.000000        3.761581         2    ;  uncertainty k = 0.188539
         7         8        23         6     4      180.000000        3.761581         2    ;  uncertainty k = 0.188539
         7        23         6         8     4      180.000000        3.761581         2    ;  uncertainty k = 0.188539
         8         7         9        24     4      180.000000        3.007353         2    ;  uncertainty k = 0.125347
         8         9        24         7     4      180.000000        3.007353         2    ;  uncertainty k = 0.125347
         8        24         7         9     4      180.000000        3.007353         2    ;  uncertainty k = 0.125347
         9         8        10        25     4      180.000000        4.051631         2    ;  uncertainty k = 0.159442
         9        10        25         8     4      180.000000        4.051631         2    ;  uncertainty k = 0.159442
         9        25         8        10     4      180.000000        4.051631         2    ;  uncertainty k = 0.159442
        11         4        10        12     4      180.000000        2.099178         2    ;  uncertainty k = 0.534873
        11        10        12         4     4      180.000000        2.099178         2    ;  uncertainty k = 0.534873
        11        12         4        10     4      180.000000        2.099178         2    ;  uncertainty k = 0.534873
        16        15        17        21     4      180.000000       17.965931         2    ;  uncertainty k = 0.058951
        16        17        21        15     4      180.000000       17.965931         2    ;  uncertainty k = 0.058951
        16        21        15        17     4      180.000000       17.965931         2    ;  uncertainty k = 0.058951
        17        16        18        32     4      180.000000        2.526142         2    ;  uncertainty k = 0.246969
        17        18        32        16     4      180.000000        2.526142         2    ;  uncertainty k = 0.246969
        17        32        16        18     4      180.000000        2.526142         2    ;  uncertainty k = 0.246969
        18        17        19        37     4      180.000000        3.222989         2    ;  uncertainty k = 0.076793
        18        19        37        17     4      180.000000        3.222989         2    ;  uncertainty k = 0.076793
        18        37        17        19     4      180.000000        3.222989         2    ;  uncertainty k = 0.076793
        19        18        20        38     4      180.000000       16.160529         2    ;  uncertainty k = 0.021714
        19        20        38        18     4      180.000000       16.160529         2    ;  uncertainty k = 0.021714
        19        38        18        20     4      180.000000       16.160529         2    ;  uncertainty k = 0.021714
        20        19        21        36     4      180.000000        3.222989         2    ;  uncertainty k = 0.076793
        20        21        36        19     4      180.000000        3.222989         2    ;  uncertainty k = 0.076793
        20        36        19        21     4      180.000000        3.222989         2    ;  uncertainty k = 0.076793
        21        16        20        33     4      180.000000        2.526142         2    ;  uncertainty k = 0.246969
        21        20        33        16     4      180.000000        2.526142         2    ;  uncertainty k = 0.246969
        21        33        16        20     4      180.000000        2.526142         2    ;  uncertainty k = 0.246969
        39        40        44        45     4      180.000000        3.722394         2    ;  uncertainty k = 0.149569
        39        44        45        40     4      180.000000        3.722394         2    ;  uncertainty k = 0.149569
        39        45        40        44     4      180.000000        3.722394         2    ;  uncertainty k = 0.149569
        40        39        41        46     4      180.000000        4.538696         2    ;  uncertainty k = 0.113532
        40        41        46        39     4      180.000000        4.538696         2    ;  uncertainty k = 0.113532
        40        46        39        41     4      180.000000        4.538696         2    ;  uncertainty k = 0.113532
        41        40        42        47     4      180.000000        2.820586         2    ;  uncertainty k = 0.094124
        41        42        47        40     4      180.000000        2.820586         2    ;  uncertainty k = 0.094124
        41        47        40        42     4      180.000000        2.820586         2    ;  uncertainty k = 0.094124
        42        38        41        43     4      180.000000       18.079344         2    ;  uncertainty k = 0.027116
        42        41        43        38     4      180.000000       18.079344         2    ;  uncertainty k = 0.027116
        42        43        38        41     4      180.000000       18.079344         2    ;  uncertainty k = 0.027116
        43        42        44        48     4      180.000000        2.820584         2    ;  uncertainty k = 0.094123
        43        44        48        42     4      180.000000        2.820584         2    ;  uncertainty k = 0.094123
        43        48        42        44     4      180.000000        2.820584         2    ;  uncertainty k = 0.094123
        44        39        43        49     4      180.000000        4.538696         2    ;  uncertainty k = 0.113532
        44        43        49        39     4      180.000000        4.538696         2    ;  uncertainty k = 0.113532
        44        49        39        43     4      180.000000        4.538696         2    ;  uncertainty k = 0.113532

[ pairs ]
;       ai        aj funct
         1        11     1
         1        34     1
         2         5     1
         2        10     1
         2        12     1
         2        35     1
         3        11     1
         3        34     1
         4         6     1
         4         9     1
         4        13     1
         4        26     1
         4        27     1
         5         8     1
         5        12     1
         5        23     1
         5        25     1
         6         9     1
         6        11     1
         6        24     1
         6        35     1
         7        10     1
         7        25     1
         7        34     1
         8        11     1
         8        22     1
         9        12     1
         9        23     1
         9        34     1
        10        13     1
        10        22     1
        10        24     1
        10        26     1
        10        27     1
        10        35     1
        11        14     1
        11        25     1
        11        28     1
        11        29     1
        11        35     1
        12        15     1
        12        30     1
        12        31     1
        12        34     1
        13        16     1
        14        17     1
        14        21     1
        14        26     1
        14        27     1
        15        18     1
        15        20     1
        15        28     1
        15        29     1
        15        32     1
        15        33     1
        16        19     1
        16        30     1
        16        31     1
        16        36     1
        16        37     1
        17        20     1
        17        33     1
        17        38     1
        18        21     1
        18        36     1
        18        42     1
        19        32     1
        19        33     1
        19        41     1
        19        43     1
        20        37     1
        20        42     1
        21        32     1
        21        38     1
        22        23     1
        22        34     1
        23        24     1
        24        25     1
        26        28     1
        26        29     1
        27        28     1
        27        29     1
        28        30     1
        28        31     1
        29        30     1
        29        31     1
        32        37     1
        33        36     1
        36        38     1
        37        38     1
        38        40     1
        38        44     1
        38        47     1
        38        48     1
        39        42     1
        39        47     1
        39        48     1
        40        43     1
        40        49     1
        41        44     1
        41        45     1
        41        48     1
        42        46     1
        42        49     1
        43        45     1
        43        47     1
        44        46     1
        45        46     1
        45        49     1
        46        47     1
        48        49     1
