; ITP file created by ByteFF-joint-25, 2026-02-17 09:20:34.594420

[ atomtypes ]
;name           bonded.type        at.num        mass        charge   ptype           sigma         epsilon
 o0bf                                   8      0.0000       0.00000       A     3.04807e-01     6.12065e-01    ;  uncertainty sigma = 0.000018, epsilon = 0.000616
 c1bf                                   6      0.0000       0.00000       A     3.31436e-01     4.13701e-01    ;  uncertainty sigma = 0.000034, epsilon = 0.002275
 o2bf                                   8      0.0000       0.00000       A     3.04807e-01     6.12065e-01    ;  uncertainty sigma = 0.000018, epsilon = 0.000616
 c3bf                                   6      0.0000       0.00000       A     3.31527e-01     4.12548e-01    ;  uncertainty sigma = 0.000053, epsilon = 0.002675
 c4bf                                   6      0.0000       0.00000       A     3.31556e-01     4.13605e-01    ;  uncertainty sigma = 0.000009, epsilon = 0.001072
 c5bf                                   6      0.0000       0.00000       A     3.31528e-01     4.13216e-01    ;  uncertainty sigma = 0.000006, epsilon = 0.000735
 c6bf                                   6      0.0000       0.00000       A     3.31524e-01     4.13323e-01    ;  uncertainty sigma = 0.000005, epsilon = 0.000518
 c7bf                                   6      0.0000       0.00000       A     3.31524e-01     4.13320e-01    ;  uncertainty sigma = 0.000004, epsilon = 0.000654
 c8bf                                   6      0.0000       0.00000       A     3.31525e-01     4.13140e-01    ;  uncertainty sigma = 0.000007, epsilon = 0.000627
 c9bf                                   6      0.0000       0.00000       A     3.31543e-01     4.12994e-01    ;  uncertainty sigma = 0.000008, epsilon = 0.001189
 c10bf                                  6      0.0000       0.00000       A     3.31576e-01     4.13309e-01    ;  uncertainty sigma = 0.000008, epsilon = 0.001192
 c11bf                                  6      0.0000       0.00000       A     3.39773e-01     4.50718e-01    ;  uncertainty sigma = 0.000020, epsilon = 0.000757
 c12bf                                  6      0.0000       0.00000       A     3.39755e-01     4.50595e-01    ;  uncertainty sigma = 0.000006, epsilon = 0.000956
 c13bf                                  6      0.0000       0.00000       A     3.39780e-01     4.50469e-01    ;  uncertainty sigma = 0.000008, epsilon = 0.000834
 o14bf                                  8      0.0000       0.00000       A     3.15667e-01     3.03011e-01    ;  uncertainty sigma = 0.000025, epsilon = 0.001888
 c15bf                                  6      0.0000       0.00000       A     3.31550e-01     4.13524e-01    ;  uncertainty sigma = 0.000007, epsilon = 0.000519
 c16bf                                  6      0.0000       0.00000       A     3.31525e-01     4.13210e-01    ;  uncertainty sigma = 0.000006, epsilon = 0.000593
 c17bf                                  6      0.0000       0.00000       A     3.31529e-01     4.13386e-01    ;  uncertainty sigma = 0.000002, epsilon = 0.000727
 c18bf                                  6      0.0000       0.00000       A     3.31514e-01     4.13154e-01    ;  uncertainty sigma = 0.000007, epsilon = 0.000630
 h19bf                                  1      0.0000       0.00000       A     2.62573e-01     6.69665e-02    ;  uncertainty sigma = 0.000008, epsilon = 0.000474
 h20bf                                  1      0.0000       0.00000       A     2.62567e-01     6.69871e-02    ;  uncertainty sigma = 0.000012, epsilon = 0.000553
 h21bf                                  1      0.0000       0.00000       A     2.62563e-01     6.69792e-02    ;  uncertainty sigma = 0.000011, epsilon = 0.000555
 h22bf                                  1      0.0000       0.00000       A     2.62566e-01     6.69359e-02    ;  uncertainty sigma = 0.000011, epsilon = 0.000323
 h23bf                                  1      0.0000       0.00000       A     2.60038e-01     8.64862e-02    ;  uncertainty sigma = 0.000012, epsilon = 0.000717
 h24bf                                  1      0.0000       0.00000       A     2.60038e-01     8.64862e-02    ;  uncertainty sigma = 0.000012, epsilon = 0.000717
 h25bf                                  1      0.0000       0.00000       A     2.60032e-01     8.63750e-02    ;  uncertainty sigma = 0.000011, epsilon = 0.000877
 h26bf                                  1      0.0000       0.00000       A     2.60032e-01     8.63750e-02    ;  uncertainty sigma = 0.000011, epsilon = 0.000877
 h27bf                                  1      0.0000       0.00000       A     2.42191e-01     8.69833e-02    ;  uncertainty sigma = 0.000030, epsilon = 0.000474
 h28bf                                  1      0.0000       0.00000       A     2.42191e-01     8.69833e-02    ;  uncertainty sigma = 0.000030, epsilon = 0.000474
 h29bf                                  1      0.0000       0.00000       A     2.62574e-01     6.69588e-02    ;  uncertainty sigma = 0.000012, epsilon = 0.000438
 c30bf                                  6      0.0000       0.00000       A     3.31525e-01     4.13520e-01    ;  uncertainty sigma = 0.000007, epsilon = 0.000401
 c31bf                                  6      0.0000       0.00000       A     3.31499e-01     4.13379e-01    ;  uncertainty sigma = 0.000012, epsilon = 0.000710
 c32bf                                  6      0.0000       0.00000       A     3.31518e-01     4.13093e-01    ;  uncertainty sigma = 0.000007, epsilon = 0.000322
 c33bf                                  6      0.0000       0.00000       A     3.31524e-01     4.13323e-01    ;  uncertainty sigma = 0.000003, epsilon = 0.000661
 c34bf                                  6      0.0000       0.00000       A     3.31523e-01     4.13359e-01    ;  uncertainty sigma = 0.000003, epsilon = 0.000695
 c35bf                                  6      0.0000       0.00000       A     3.31524e-01     4.13214e-01    ;  uncertainty sigma = 0.000004, epsilon = 0.000571
 h36bf                                  1      0.0000       0.00000       A     2.62548e-01     6.70306e-02    ;  uncertainty sigma = 0.000019, epsilon = 0.000384
 h37bf                                  1      0.0000       0.00000       A     2.62567e-01     6.69734e-02    ;  uncertainty sigma = 0.000010, epsilon = 0.000525
 h38bf                                  1      0.0000       0.00000       A     2.62567e-01     6.69734e-02    ;  uncertainty sigma = 0.000010, epsilon = 0.000525
 h39bf                                  1      0.0000       0.00000       A     2.62559e-01     6.70661e-02    ;  uncertainty sigma = 0.000013, epsilon = 0.000302
 h40bf                                  1      0.0000       0.00000       A     2.62585e-01     6.69640e-02    ;  uncertainty sigma = 0.000009, epsilon = 0.000463
 h41bf                                  1      0.0000       0.00000       A     2.62559e-01     6.70661e-02    ;  uncertainty sigma = 0.000013, epsilon = 0.000302
 n42bf                                  7      0.0000       0.00000       A     3.20754e-01     8.52244e-01    ;  uncertainty sigma = 0.000047, epsilon = 0.002451
 h43bf                                  1      0.0000       0.00000       A     1.10620e-01     4.09732e-02    ;  uncertainty sigma = 0.000138, epsilon = 0.001729

[ moleculetype ]
;name             nrexcl
 MOL                   3

[ atoms ]
;       nr            type      resi   res      atom      cgnr      charge          mass ; qtot
         1            o0bf         1   UNL        o0         1    -0.82702       15.9990 ; qtot   -0.827
         2            c1bf         1   UNL        c1         2     0.92126       12.0110 ; qtot    0.094
         3            o2bf         1   UNL        o2         3    -0.82702       15.9990 ; qtot   -0.733
         4            c3bf         1   UNL        c3         4    -0.10822       12.0110 ; qtot   -0.841
         5            c4bf         1   UNL        c4         5    -0.06744       12.0110 ; qtot   -0.908
         6            c5bf         1   UNL        c5         6    -0.16684       12.0110 ; qtot   -1.075
         7            c6bf         1   UNL        c6         7    -0.11194       12.0110 ; qtot   -1.187
         8            c7bf         1   UNL        c7         8    -0.15971       12.0110 ; qtot   -1.347
         9            c8bf         1   UNL        c8         9    -0.09713       12.0110 ; qtot   -1.444
        10            c9bf         1   UNL        c9        10    -0.10135       12.0110 ; qtot   -1.545
        11           c10bf         1   UNL       c10        11    -0.18594       12.0110 ; qtot   -1.731
        12           c11bf         1   UNL       c11        12    -0.00836       12.0110 ; qtot   -1.740
        13           c12bf         1   UNL       c12        13    -0.09571       12.0110 ; qtot   -1.835
        14           c13bf         1   UNL       c13        14     0.13662       12.0110 ; qtot   -1.699
        15           o14bf         1   UNL       o14        15    -0.33774       15.9990 ; qtot   -2.037
        16           c15bf         1   UNL       c15        16     0.14513       12.0110 ; qtot   -1.891
        17           c16bf         1   UNL       c16        17    -0.13575       12.0110 ; qtot   -2.027
        18           c17bf         1   UNL       c17        18    -0.09521       12.0110 ; qtot   -2.122
        19           c18bf         1   UNL       c18        19    -0.21404       12.0110 ; qtot   -2.336
        20           h19bf         1   UNL       h19        20     0.13216        1.0080 ; qtot   -2.204
        21           h20bf         1   UNL       h20        21     0.12950        1.0080 ; qtot   -2.075
        22           h21bf         1   UNL       h21        22     0.12900        1.0080 ; qtot   -1.946
        23           h22bf         1   UNL       h22        23     0.13303        1.0080 ; qtot   -1.813
        24           h23bf         1   UNL       h23        24     0.04354        1.0080 ; qtot   -1.769
        25           h24bf         1   UNL       h24        25     0.04354        1.0080 ; qtot   -1.726
        26           h25bf         1   UNL       h25        26     0.05436        1.0080 ; qtot   -1.671
        27           h26bf         1   UNL       h26        27     0.05436        1.0080 ; qtot   -1.617
        28           h27bf         1   UNL       h27        28     0.04657        1.0080 ; qtot   -1.570
        29           h28bf         1   UNL       h28        29     0.04657        1.0080 ; qtot   -1.524
        30           h29bf         1   UNL       h29        30     0.14093        1.0080 ; qtot   -1.383
        31           c30bf         1   UNL       c30        31    -0.02304       12.0110 ; qtot   -1.406
        32           c31bf         1   UNL       c31        32    -0.05635       12.0110 ; qtot   -1.462
        33           c32bf         1   UNL       c32        33    -0.10394       12.0110 ; qtot   -1.566
        34           c33bf         1   UNL       c33        34    -0.13597       12.0110 ; qtot   -1.702
        35           c34bf         1   UNL       c34        35    -0.12037       12.0110 ; qtot   -1.823
        36           c35bf         1   UNL       c35        36    -0.12275       12.0110 ; qtot   -1.945
        37           h36bf         1   UNL       h36        37     0.14397        1.0080 ; qtot   -1.801
        38           h37bf         1   UNL       h37        38     0.13455        1.0080 ; qtot   -1.667
        39           h38bf         1   UNL       h38        39     0.13276        1.0080 ; qtot   -1.534
        40           h39bf         1   UNL       h39        40     0.13307        1.0080 ; qtot   -1.401
        41           h40bf         1   UNL       h40        41     0.13604        1.0080 ; qtot   -1.265
        42           h41bf         1   UNL       h41        42     0.13458        1.0080 ; qtot   -1.130
        43           n42bf         1   UNL       n42        43    -0.18585       14.0070 ; qtot   -1.316
        44           h43bf         1   UNL       h43        44     0.31615        1.0080 ; qtot   -1.000

[ bonds ]
;       ai        aj funct               r               k
         1         2     1        0.126489   553283.027930    ;  uncertainty r = 0.000115, k = 9.491850
         2         3     1        0.126489   553283.027930    ;  uncertainty r = 0.000115, k = 9.491850
         2         4     1        0.152875   178456.869971    ;  uncertainty r = 0.000109, k = 53.157083
         4        11     1        0.138845   388969.962598    ;  uncertainty r = 0.000116, k = 35.597318
         4        43     1        0.138411   296910.956104    ;  uncertainty r = 0.000116, k = 16.653525
         5         6     1        0.139909   370024.083301    ;  uncertainty r = 0.000068, k = 3.273406
         5        10     1        0.143429   333658.830957    ;  uncertainty r = 0.000101, k = 12.925109
         5        43     1        0.137190   323439.748047    ;  uncertainty r = 0.000109, k = 15.720627
         6         7     1        0.139204   373030.439502    ;  uncertainty r = 0.000031, k = 1.532197
         6        20     1        0.108908   337826.589355    ;  uncertainty r = 0.000007, k = 0.915296
         7         8     1        0.141248   347880.881299    ;  uncertainty r = 0.000048, k = 2.727051
         7        21     1        0.108787   335143.149902    ;  uncertainty r = 0.000015, k = 1.282440
         8         9     1        0.139156   366705.382715    ;  uncertainty r = 0.000016, k = 3.013067
         8        22     1        0.108813   335291.367285    ;  uncertainty r = 0.000018, k = 0.841713
         9        10     1        0.140712   363994.363184    ;  uncertainty r = 0.000090, k = 9.392181
         9        23     1        0.108826   337192.119873    ;  uncertainty r = 0.000025, k = 2.686180
        10        11     1        0.143927   250387.756689    ;  uncertainty r = 0.000100, k = 20.205925
        11        12     1        0.150056   234448.846484    ;  uncertainty r = 0.000153, k = 11.938075
        12        13     1        0.153884   206300.069702    ;  uncertainty r = 0.000105, k = 7.073769
        12        24     1        0.109683   309037.278027    ;  uncertainty r = 0.000026, k = 1.364430
        12        25     1        0.109683   309037.278027    ;  uncertainty r = 0.000026, k = 1.364430
        13        14     1        0.152147   209964.555518    ;  uncertainty r = 0.000038, k = 3.683491
        13        26     1        0.109662   307656.256689    ;  uncertainty r = 0.000026, k = 1.423811
        13        27     1        0.109662   307656.256689    ;  uncertainty r = 0.000026, k = 1.423811
        14        15     1        0.142782   231869.547363    ;  uncertainty r = 0.000050, k = 4.849853
        14        28     1        0.109724   308279.106787    ;  uncertainty r = 0.000019, k = 1.483942
        14        29     1        0.109724   308279.106787    ;  uncertainty r = 0.000019, k = 1.483942
        15        16     1        0.136655   326316.196973    ;  uncertainty r = 0.000064, k = 10.302416
        16        19     1        0.138195   347784.427637    ;  uncertainty r = 0.000087, k = 7.943559
        16        32     1        0.142488   314726.230957    ;  uncertainty r = 0.000062, k = 8.281809
        17        18     1        0.137749   374604.751221    ;  uncertainty r = 0.000037, k = 4.265693
        17        31     1        0.142098   349009.698145    ;  uncertainty r = 0.000048, k = 5.218720
        17        42     1        0.108802   334878.074707    ;  uncertainty r = 0.000015, k = 1.345281
        18        19     1        0.141654   351742.500830    ;  uncertainty r = 0.000138, k = 8.139820
        18        41     1        0.108730   333619.069678    ;  uncertainty r = 0.000016, k = 1.862027
        19        30     1        0.108748   338790.257715    ;  uncertainty r = 0.000030, k = 1.699329
        31        32     1        0.143171   332447.248340    ;  uncertainty r = 0.000057, k = 5.746983
        31        36     1        0.142103   349376.104590    ;  uncertainty r = 0.000053, k = 3.058872
        32        33     1        0.141848   331211.865137    ;  uncertainty r = 0.000038, k = 5.635551
        33        34     1        0.138023   367791.322754    ;  uncertainty r = 0.000025, k = 2.241963
        33        37     1        0.108628   335903.057666    ;  uncertainty r = 0.000013, k = 0.678311
        34        35     1        0.141669   357736.903125    ;  uncertainty r = 0.000034, k = 2.704735
        34        38     1        0.108804   334143.984961    ;  uncertainty r = 0.000012, k = 1.469926
        35        36     1        0.137829   370848.676562    ;  uncertainty r = 0.000014, k = 2.697028
        35        39     1        0.108812   334757.871533    ;  uncertainty r = 0.000008, k = 1.170087
        36        40     1        0.108836   335130.713330    ;  uncertainty r = 0.000009, k = 0.888113
        43        44     1        0.101525   411016.174658    ;  uncertainty r = 0.000192, k = 19.532859

[ angles ]
;       ai        aj        ak funct           theta             cth
         1         2         3     1      131.490799      799.912859    ;  uncertainty theta = 0.007122, k = 0.161146
         1         2         4     1      115.643898      409.958900    ;  uncertainty theta = 0.009941, k = 0.278481
         2         4        11     1      129.691666      294.711298    ;  uncertainty theta = 0.010379, k = 0.154712
         2         4        43     1      117.855209      349.663901    ;  uncertainty theta = 0.005899, k = 0.287676
         3         2         4     1      115.643898      409.958900    ;  uncertainty theta = 0.009941, k = 0.278481
         4        11        10     1      107.813744      761.507600    ;  uncertainty theta = 0.003114, k = 0.233379
         4        11        12     1      125.834373      348.251252    ;  uncertainty theta = 0.008524, k = 0.203092
         4        43         5     1      106.686867      870.555270    ;  uncertainty theta = 0.004731, k = 0.157374
         4        43        44     1      118.324951      293.095597    ;  uncertainty theta = 0.017038, k = 0.289786
         5         6         7     1      117.288712      532.685108    ;  uncertainty theta = 0.002732, k = 0.138286
         5         6        20     1      122.416870      294.044173    ;  uncertainty theta = 0.002439, k = 0.026234
         5        10         9     1      116.726723      409.397211    ;  uncertainty theta = 0.004491, k = 0.081187
         5        10        11     1      107.622475      685.489179    ;  uncertainty theta = 0.004472, k = 0.334622
         5        43        44     1      119.518555      279.940091    ;  uncertainty theta = 0.027559, k = 0.287070
         6         5        10     1      120.341995      378.416324    ;  uncertainty theta = 0.003053, k = 0.079333
         6         5        43     1      130.070251      406.372596    ;  uncertainty theta = 0.003047, k = 0.189160
         6         7         8     1      122.110641      522.210041    ;  uncertainty theta = 0.001703, k = 0.050914
         6         7        21     1      119.408218      283.874626    ;  uncertainty theta = 0.001884, k = 0.037783
         7         6        20     1      121.416527      285.300171    ;  uncertainty theta = 0.001028, k = 0.037490
         7         8         9     1      121.942673      521.393620    ;  uncertainty theta = 0.001697, k = 0.032913
         7         8        22     1      119.651100      288.114903    ;  uncertainty theta = 0.001746, k = 0.035440
         8         7        21     1      119.801102      287.497128    ;  uncertainty theta = 0.001585, k = 0.046675
         8         9        10     1      119.165207      547.786701    ;  uncertainty theta = 0.003326, k = 0.038562
         8         9        23     1      120.508347      285.672566    ;  uncertainty theta = 0.001453, k = 0.031601
         9         8        22     1      119.815613      287.517590    ;  uncertainty theta = 0.001890, k = 0.024499
         9        10        11     1      132.186111      358.431813    ;  uncertainty theta = 0.003911, k = 0.091946
        10         5        43     1      107.610229      677.054783    ;  uncertainty theta = 0.004088, k = 0.326769
        10         9        23     1      121.598999      289.048093    ;  uncertainty theta = 0.003949, k = 0.074173
        10        11        12     1      125.270729      364.592289    ;  uncertainty theta = 0.008077, k = 0.215292
        11         4        43     1      110.824791      694.108082    ;  uncertainty theta = 0.003478, k = 0.245195
        11        12        13     1      111.534096      545.895232    ;  uncertainty theta = 0.004625, k = 0.050598
        11        12        24     1      107.023758      409.119878    ;  uncertainty theta = 0.002156, k = 0.076181
        11        12        25     1      107.023758      409.119878    ;  uncertainty theta = 0.002156, k = 0.076181
        12        13        14     1      109.849899      549.938905    ;  uncertainty theta = 0.002560, k = 0.057310
        12        13        26     1      107.785934      395.429530    ;  uncertainty theta = 0.002675, k = 0.060816
        12        13        27     1      107.785934      395.429530    ;  uncertainty theta = 0.002675, k = 0.060816
        13        12        24     1      106.921707      401.082871    ;  uncertainty theta = 0.002502, k = 0.097007
        13        12        25     1      106.921707      401.082871    ;  uncertainty theta = 0.002502, k = 0.097007
        13        14        15     1      109.030472      594.555619    ;  uncertainty theta = 0.001696, k = 0.045001
        13        14        28     1      109.925400      407.172610    ;  uncertainty theta = 0.001735, k = 0.045223
        13        14        29     1      109.925400      407.172610    ;  uncertainty theta = 0.001735, k = 0.045223
        14        13        26     1      106.724709      398.206180    ;  uncertainty theta = 0.001391, k = 0.023130
        14        13        27     1      106.724709      398.206180    ;  uncertainty theta = 0.001391, k = 0.023130
        14        15        16     1      110.885666      496.686754    ;  uncertainty theta = 0.001424, k = 0.095319
        15        14        28     1      106.960228      431.689001    ;  uncertainty theta = 0.001451, k = 0.023371
        15        14        29     1      106.960228      431.689001    ;  uncertainty theta = 0.001451, k = 0.023371
        15        16        19     1      120.880371      437.394087    ;  uncertainty theta = 0.002970, k = 0.200699
        15        16        32     1      116.489357      458.690472    ;  uncertainty theta = 0.005226, k = 0.228959
        16        19        18     1      120.722633      518.175976    ;  uncertainty theta = 0.002195, k = 0.141477
        16        19        30     1      118.073547      268.457585    ;  uncertainty theta = 0.004557, k = 0.050618
        16        32        31     1      117.886742      446.079992    ;  uncertainty theta = 0.004650, k = 0.148889
        16        32        33     1      121.055542      434.027434    ;  uncertainty theta = 0.002581, k = 0.247580
        17        18        19     1      120.807838      514.806929    ;  uncertainty theta = 0.001881, k = 0.085063
        17        18        41     1      119.944679      287.263017    ;  uncertainty theta = 0.001380, k = 0.039752
        17        31        32     1      119.359840      455.161627    ;  uncertainty theta = 0.004738, k = 0.151465
        17        31        36     1      123.340538      467.533813    ;  uncertainty theta = 0.002575, k = 0.078913
        18        17        31     1      119.297020      530.734680    ;  uncertainty theta = 0.001581, k = 0.054548
        18        17        42     1      121.059166      288.732869    ;  uncertainty theta = 0.001304, k = 0.052632
        18        19        30     1      120.640701      288.788317    ;  uncertainty theta = 0.002480, k = 0.056035
        19        16        32     1      123.092026      415.535439    ;  uncertainty theta = 0.003571, k = 0.180852
        19        18        41     1      119.891098      282.551420    ;  uncertainty theta = 0.001723, k = 0.073948
        24        12        25     1      104.532631      313.868120    ;  uncertainty theta = 0.003533, k = 0.064476
        26        13        27     1      105.098839      317.589452    ;  uncertainty theta = 0.002581, k = 0.027066
        28        14        29     1      107.557716      332.505071    ;  uncertainty theta = 0.001738, k = 0.040091
        31        17        42     1      119.503296      276.877490    ;  uncertainty theta = 0.002196, k = 0.043077
        31        32        33     1      119.544373      455.792042    ;  uncertainty theta = 0.003353, k = 0.075921
        31        36        35     1      120.307373      540.568191    ;  uncertainty theta = 0.001705, k = 0.049107
        31        36        40     1      119.335144      278.316857    ;  uncertainty theta = 0.002520, k = 0.045302
        32        31        36     1      118.325851      453.057433    ;  uncertainty theta = 0.003579, k = 0.122749
        32        33        34     1      120.765099      522.187984    ;  uncertainty theta = 0.000878, k = 0.092445
        32        33        37     1      118.487877      261.075956    ;  uncertainty theta = 0.001939, k = 0.118010
        33        34        35     1      120.327049      530.332311    ;  uncertainty theta = 0.001259, k = 0.030035
        33        34        38     1      119.709885      291.029485    ;  uncertainty theta = 0.000552, k = 0.039936
        34        33        37     1      120.799538      286.723609    ;  uncertainty theta = 0.001427, k = 0.049122
        34        35        36     1      119.492630      527.209378    ;  uncertainty theta = 0.001081, k = 0.017886
        34        35        39     1      120.342430      288.088696    ;  uncertainty theta = 0.001400, k = 0.008231
        35        34        38     1      120.521278      289.271128    ;  uncertainty theta = 0.001411, k = 0.008024
        35        36        40     1      120.925461      287.525826    ;  uncertainty theta = 0.001171, k = 0.023440
        36        35        39     1      119.773743      289.592799    ;  uncertainty theta = 0.001086, k = 0.026821

[ dihedrals ] ; propers for gromacs 4.5 or higher, use funct 9
;       ai        aj        ak        al funct           phase               k        pn
         1         2         4        11     9        0.000000       -1.372021         1    ;  uncertainty k = 1.492730
         1         2         4        11     9      180.000000        2.371115         2    ;  uncertainty k = 0.300482
         1         2         4        11     9        0.000000        0.292116         3    ;  uncertainty k = 0.252771
         1         2         4        11     9      180.000000        0.155159         4    ;  uncertainty k = 0.093475
         1         2         4        43     9        0.000000        1.707823         1    ;  uncertainty k = 0.704832
         1         2         4        43     9      180.000000        3.884647         2    ;  uncertainty k = 0.565808
         1         2         4        43     9        0.000000        0.749129         3    ;  uncertainty k = 0.264976
         1         2         4        43     9      180.000000        0.174104         4    ;  uncertainty k = 0.159693
         2         4        11        10     9        0.000000        0.658377         1    ;  uncertainty k = 1.317360
         2         4        11        10     9      180.000000       11.269219         2    ;  uncertainty k = 0.349150
         2         4        11        10     9        0.000000        2.080317         3    ;  uncertainty k = 0.240036
         2         4        11        10     9      180.000000        0.676709         4    ;  uncertainty k = 0.169861
         2         4        11        12     9        0.000000        0.204708         1    ;  uncertainty k = 0.747460
         2         4        11        12     9      180.000000        9.233953         2    ;  uncertainty k = 0.447590
         2         4        11        12     9        0.000000        1.675443         3    ;  uncertainty k = 0.293006
         2         4        11        12     9      180.000000        0.426607         4    ;  uncertainty k = 0.323880
         2         4        43         5     9        0.000000       -0.464998         1    ;  uncertainty k = 2.171907
         2         4        43         5     9      180.000000        6.451220         2    ;  uncertainty k = 1.089854
         2         4        43         5     9        0.000000        1.609707         3    ;  uncertainty k = 0.687909
         2         4        43         5     9      180.000000        0.292935         4    ;  uncertainty k = 0.259665
         2         4        43        44     9        0.000000        1.253701         1    ;  uncertainty k = 2.041217
         2         4        43        44     9      180.000000        2.479089         2    ;  uncertainty k = 1.021447
         2         4        43        44     9        0.000000        1.291813         3    ;  uncertainty k = 0.578698
         2         4        43        44     9      180.000000       -0.030601         4    ;  uncertainty k = 0.146306
         3         2         4        11     9        0.000000       -1.372021         1    ;  uncertainty k = 1.492730
         3         2         4        11     9      180.000000        2.371115         2    ;  uncertainty k = 0.300482
         3         2         4        11     9        0.000000        0.292116         3    ;  uncertainty k = 0.252771
         3         2         4        11     9      180.000000        0.155159         4    ;  uncertainty k = 0.093475
         3         2         4        43     9        0.000000        1.707823         1    ;  uncertainty k = 0.704832
         3         2         4        43     9      180.000000        3.884647         2    ;  uncertainty k = 0.565808
         3         2         4        43     9        0.000000        0.749129         3    ;  uncertainty k = 0.264976
         3         2         4        43     9      180.000000        0.174104         4    ;  uncertainty k = 0.159693
         4        11        10         5     9        0.000000        0.171220         1    ;  uncertainty k = 0.432161
         4        11        10         5     9      180.000000       11.967638         2    ;  uncertainty k = 1.294698
         4        11        10         5     9        0.000000       -9.909327         3    ;  uncertainty k = 1.605977
         4        11        10         5     9      180.000000        2.102653         4    ;  uncertainty k = 0.733398
         4        11        10         9     9        0.000000        0.079803         1    ;  uncertainty k = 1.313243
         4        11        10         9     9      180.000000        5.721978         2    ;  uncertainty k = 0.321426
         4        11        10         9     9        0.000000        0.431775         3    ;  uncertainty k = 0.611745
         4        11        10         9     9      180.000000        0.952472         4    ;  uncertainty k = 0.149862
         4        11        12        13     9        0.000000       -0.352782         1    ;  uncertainty k = 1.057807
         4        11        12        13     9      180.000000        1.468732         2    ;  uncertainty k = 0.380793
         4        11        12        13     9        0.000000        0.215303         3    ;  uncertainty k = 0.481299
         4        11        12        13     9      180.000000        0.121756         4    ;  uncertainty k = 0.162172
         4        11        12        24     9        0.000000        1.439359         1    ;  uncertainty k = 0.397283
         4        11        12        24     9      180.000000        2.614207         2    ;  uncertainty k = 0.334496
         4        11        12        24     9        0.000000        0.055715         3    ;  uncertainty k = 0.092065
         4        11        12        24     9      180.000000        0.180012         4    ;  uncertainty k = 0.123046
         4        11        12        25     9        0.000000        1.439359         1    ;  uncertainty k = 0.397283
         4        11        12        25     9      180.000000        2.614207         2    ;  uncertainty k = 0.334496
         4        11        12        25     9        0.000000        0.055715         3    ;  uncertainty k = 0.092065
         4        11        12        25     9      180.000000        0.180012         4    ;  uncertainty k = 0.123046
         4        43         5         6     9        0.000000        0.779094         1    ;  uncertainty k = 1.611142
         4        43         5         6     9      180.000000        6.072861         2    ;  uncertainty k = 1.235288
         4        43         5         6     9        0.000000        0.738725         3    ;  uncertainty k = 0.606503
         4        43         5         6     9      180.000000        0.313530         4    ;  uncertainty k = 0.310389
         4        43         5        10     9        0.000000       -0.304471         1    ;  uncertainty k = 0.989395
         4        43         5        10     9      180.000000       15.047901         2    ;  uncertainty k = 1.046721
         4        43         5        10     9        0.000000       -8.395770         3    ;  uncertainty k = 1.919282
         4        43         5        10     9      180.000000        0.648752         4    ;  uncertainty k = 0.607428
         5         6         7         8     9        0.000000       -0.007204         1    ;  uncertainty k = 0.352017
         5         6         7         8     9      180.000000       16.955015         2    ;  uncertainty k = 0.265826
         5         6         7         8     9        0.000000       -0.377243         3    ;  uncertainty k = 0.370601
         5         6         7         8     9      180.000000        0.608270         4    ;  uncertainty k = 0.292320
         5         6         7        21     9        0.000000        0.031156         1    ;  uncertainty k = 0.336940
         5         6         7        21     9      180.000000       10.941246         2    ;  uncertainty k = 0.419077
         5         6         7        21     9        0.000000        1.421256         3    ;  uncertainty k = 0.272944
         5         6         7        21     9      180.000000        1.557433         4    ;  uncertainty k = 0.258138
         5        10         9         8     9        0.000000        0.010948         1    ;  uncertainty k = 0.402869
         5        10         9         8     9      180.000000       13.710034         2    ;  uncertainty k = 0.163194
         5        10         9         8     9        0.000000       -1.521568         3    ;  uncertainty k = 0.300487
         5        10         9         8     9      180.000000        0.694567         4    ;  uncertainty k = 0.283041
         5        10         9        23     9        0.000000        0.253366         1    ;  uncertainty k = 0.171030
         5        10         9        23     9      180.000000        7.059567         2    ;  uncertainty k = 0.776058
         5        10         9        23     9        0.000000        1.466229         3    ;  uncertainty k = 0.353750
         5        10         9        23     9      180.000000        1.230009         4    ;  uncertainty k = 0.397540
         5        10        11        12     9        0.000000        1.338495         1    ;  uncertainty k = 1.087086
         5        10        11        12     9      180.000000       10.551108         2    ;  uncertainty k = 0.351316
         5        10        11        12     9        0.000000        1.801678         3    ;  uncertainty k = 0.392566
         5        10        11        12     9      180.000000        0.257171         4    ;  uncertainty k = 0.352643
         5        43         4        11     9        0.000000       -0.469081         1    ;  uncertainty k = 0.858054
         5        43         4        11     9      180.000000       14.635346         2    ;  uncertainty k = 0.621844
         5        43         4        11     9        0.000000       -5.847696         3    ;  uncertainty k = 1.154312
         5        43         4        11     9      180.000000        0.763949         4    ;  uncertainty k = 0.332867
         6         5        10         9     9        0.000000       -0.557459         1    ;  uncertainty k = 0.504536
         6         5        10         9     9      180.000000        7.175498         2    ;  uncertainty k = 0.762478
         6         5        10         9     9        0.000000        0.165063         3    ;  uncertainty k = 0.420578
         6         5        10         9     9      180.000000        0.902459         4    ;  uncertainty k = 0.405275
         6         5        10        11     9        0.000000       -0.095996         1    ;  uncertainty k = 0.579182
         6         5        10        11     9      180.000000        7.141608         2    ;  uncertainty k = 0.626861
         6         5        10        11     9        0.000000        0.190982         3    ;  uncertainty k = 0.555203
         6         5        10        11     9      180.000000        1.106105         4    ;  uncertainty k = 0.382286
         6         5        43        44     9        0.000000        1.556211         1    ;  uncertainty k = 0.864779
         6         5        43        44     9      180.000000        1.456879         2    ;  uncertainty k = 0.823313
         6         5        43        44     9        0.000000        1.223414         3    ;  uncertainty k = 0.515923
         6         5        43        44     9      180.000000        0.185999         4    ;  uncertainty k = 0.197024
         6         7         8         9     9        0.000000       -0.216392         1    ;  uncertainty k = 0.203221
         6         7         8         9     9      180.000000       12.688314         2    ;  uncertainty k = 0.287114
         6         7         8         9     9        0.000000       -0.841327         3    ;  uncertainty k = 0.664749
         6         7         8         9     9      180.000000        0.649352         4    ;  uncertainty k = 0.206451
         6         7         8        22     9        0.000000        0.020527         1    ;  uncertainty k = 0.059042
         6         7         8        22     9      180.000000        6.989280         2    ;  uncertainty k = 0.437421
         6         7         8        22     9        0.000000        1.365009         3    ;  uncertainty k = 0.283914
         6         7         8        22     9      180.000000        1.623914         4    ;  uncertainty k = 0.216596
         7         6         5        10     9        0.000000       -0.061762         1    ;  uncertainty k = 0.380516
         7         6         5        10     9      180.000000       12.578005         2    ;  uncertainty k = 0.240233
         7         6         5        10     9        0.000000       -1.274716         3    ;  uncertainty k = 0.208709
         7         6         5        10     9      180.000000        0.774303         4    ;  uncertainty k = 0.287170
         7         6         5        43     9        0.000000       -0.040937         1    ;  uncertainty k = 0.255560
         7         6         5        43     9      180.000000       11.252463         2    ;  uncertainty k = 0.580598
         7         6         5        43     9        0.000000        0.539336         3    ;  uncertainty k = 0.344721
         7         6         5        43     9      180.000000        1.022385         4    ;  uncertainty k = 0.303790
         7         8         9        10     9        0.000000        0.019920         1    ;  uncertainty k = 0.483038
         7         8         9        10     9      180.000000       16.879730         2    ;  uncertainty k = 0.325142
         7         8         9        10     9        0.000000       -0.454716         3    ;  uncertainty k = 0.474507
         7         8         9        10     9      180.000000        0.578125         4    ;  uncertainty k = 0.391909
         7         8         9        23     9        0.000000        0.168636         1    ;  uncertainty k = 0.193240
         7         8         9        23     9      180.000000        8.751745         2    ;  uncertainty k = 0.517235
         7         8         9        23     9        0.000000        1.537662         3    ;  uncertainty k = 0.246200
         7         8         9        23     9      180.000000        1.882842         4    ;  uncertainty k = 0.288260
         8         7         6        20     9        0.000000        0.165182         1    ;  uncertainty k = 0.216912
         8         7         6        20     9      180.000000        8.873569         2    ;  uncertainty k = 0.614610
         8         7         6        20     9        0.000000        1.622975         3    ;  uncertainty k = 0.261540
         8         7         6        20     9      180.000000        1.905453         4    ;  uncertainty k = 0.326822
         8         9        10        11     9        0.000000        0.249753         1    ;  uncertainty k = 0.103663
         8         9        10        11     9      180.000000        9.179070         2    ;  uncertainty k = 0.411370
         8         9        10        11     9        0.000000        0.517062         3    ;  uncertainty k = 0.430347
         8         9        10        11     9      180.000000        1.153234         4    ;  uncertainty k = 0.143424
         9         8         7        21     9        0.000000       -0.030439         1    ;  uncertainty k = 0.102038
         9         8         7        21     9      180.000000        6.901165         2    ;  uncertainty k = 0.417183
         9         8         7        21     9        0.000000        1.354655         3    ;  uncertainty k = 0.214825
         9         8         7        21     9      180.000000        1.587525         4    ;  uncertainty k = 0.176781
         9        10         5        43     9        0.000000       -0.032223         1    ;  uncertainty k = 0.572800
         9        10         5        43     9      180.000000        8.643799         2    ;  uncertainty k = 0.269496
         9        10         5        43     9        0.000000       -0.453955         3    ;  uncertainty k = 0.641368
         9        10         5        43     9      180.000000        1.174833         4    ;  uncertainty k = 0.384480
         9        10        11        12     9        0.000000        0.238961         1    ;  uncertainty k = 1.397644
         9        10        11        12     9      180.000000        5.787109         2    ;  uncertainty k = 0.469515
         9        10        11        12     9        0.000000        1.699642         3    ;  uncertainty k = 0.321923
         9        10        11        12     9      180.000000        0.173483         4    ;  uncertainty k = 0.188688
        10         5         6        20     9        0.000000        0.319122         1    ;  uncertainty k = 0.490757
        10         5         6        20     9      180.000000        6.345798         2    ;  uncertainty k = 0.822340
        10         5         6        20     9        0.000000        1.324954         3    ;  uncertainty k = 0.253224
        10         5         6        20     9      180.000000        1.101595         4    ;  uncertainty k = 0.359631
        10         5        43        44     9        0.000000        6.104771         1    ;  uncertainty k = 2.118850
        10         5        43        44     9      180.000000        4.638186         2    ;  uncertainty k = 1.440061
        10         5        43        44     9        0.000000        1.257718         3    ;  uncertainty k = 0.462506
        10         5        43        44     9      180.000000        0.319293         4    ;  uncertainty k = 0.097073
        10         9         8        22     9        0.000000        0.118303         1    ;  uncertainty k = 0.391732
        10         9         8        22     9      180.000000       10.979734         2    ;  uncertainty k = 0.363860
        10         9         8        22     9        0.000000        1.498292         3    ;  uncertainty k = 0.324461
        10         9         8        22     9      180.000000        1.658169         4    ;  uncertainty k = 0.294311
        10        11         4        43     9        0.000000       -0.343459         1    ;  uncertainty k = 0.628998
        10        11         4        43     9      180.000000       19.851697         2    ;  uncertainty k = 0.337386
        10        11         4        43     9        0.000000       -6.038290         3    ;  uncertainty k = 1.696783
        10        11         4        43     9      180.000000        1.027795         4    ;  uncertainty k = 0.436841
        10        11        12        13     9        0.000000       -0.215056         1    ;  uncertainty k = 1.011600
        10        11        12        13     9      180.000000        1.085286         2    ;  uncertainty k = 0.670424
        10        11        12        13     9        0.000000        0.695380         3    ;  uncertainty k = 0.269264
        10        11        12        13     9      180.000000        0.164007         4    ;  uncertainty k = 0.059982
        10        11        12        24     9        0.000000       -0.686921         1    ;  uncertainty k = 0.448582
        10        11        12        24     9      180.000000        2.071241         2    ;  uncertainty k = 0.415243
        10        11        12        24     9        0.000000        0.779274         3    ;  uncertainty k = 0.145606
        10        11        12        24     9      180.000000        0.211883         4    ;  uncertainty k = 0.077331
        10        11        12        25     9        0.000000       -0.686921         1    ;  uncertainty k = 0.448582
        10        11        12        25     9      180.000000        2.071241         2    ;  uncertainty k = 0.415243
        10        11        12        25     9        0.000000        0.779274         3    ;  uncertainty k = 0.145606
        10        11        12        25     9      180.000000        0.211883         4    ;  uncertainty k = 0.077331
        11         4        43        44     9        0.000000        3.994326         1    ;  uncertainty k = 2.809201
        11         4        43        44     9      180.000000        7.262693         2    ;  uncertainty k = 0.379220
        11         4        43        44     9        0.000000        1.858365         3    ;  uncertainty k = 0.686233
        11         4        43        44     9      180.000000       -0.114664         4    ;  uncertainty k = 0.351651
        11        10         5        43     9        0.000000       -0.200093         1    ;  uncertainty k = 0.424326
        11        10         5        43     9      180.000000       12.998296         2    ;  uncertainty k = 0.637101
        11        10         5        43     9        0.000000       -4.487286         3    ;  uncertainty k = 1.787354
        11        10         5        43     9      180.000000        1.376048         4    ;  uncertainty k = 0.852459
        11        10         9        23     9        0.000000        0.623609         1    ;  uncertainty k = 0.818827
        11        10         9        23     9      180.000000        5.597100         2    ;  uncertainty k = 0.476519
        11        10         9        23     9        0.000000        1.146276         3    ;  uncertainty k = 0.356005
        11        10         9        23     9      180.000000        0.780142         4    ;  uncertainty k = 0.277118
        11        12        13        14     9        0.000000       -2.750303         1    ;  uncertainty k = 1.011764
        11        12        13        14     9      180.000000       -0.439243         2    ;  uncertainty k = 0.373582
        11        12        13        14     9        0.000000        1.343735         3    ;  uncertainty k = 0.115819
        11        12        13        14     9      180.000000       -0.318209         4    ;  uncertainty k = 0.109176
        11        12        13        26     9        0.000000        0.430745         1    ;  uncertainty k = 0.618884
        11        12        13        26     9      180.000000       -0.329477         2    ;  uncertainty k = 0.354781
        11        12        13        26     9        0.000000        1.116976         3    ;  uncertainty k = 0.164374
        11        12        13        26     9      180.000000        0.005127         4    ;  uncertainty k = 0.054044
        11        12        13        27     9        0.000000        0.430745         1    ;  uncertainty k = 0.618884
        11        12        13        27     9      180.000000       -0.329477         2    ;  uncertainty k = 0.354781
        11        12        13        27     9        0.000000        1.116976         3    ;  uncertainty k = 0.164374
        11        12        13        27     9      180.000000        0.005127         4    ;  uncertainty k = 0.054044
        12        11         4        43     9        0.000000        0.421908         1    ;  uncertainty k = 0.686279
        12        11         4        43     9      180.000000       16.338015         2    ;  uncertainty k = 0.475382
        12        11         4        43     9        0.000000        1.239769         3    ;  uncertainty k = 0.508643
        12        11         4        43     9      180.000000        0.759832         4    ;  uncertainty k = 0.322483
        12        13        14        15     9        0.000000       -4.136143         1    ;  uncertainty k = 0.872320
        12        13        14        15     9      180.000000       -2.504256         2    ;  uncertainty k = 0.564160
        12        13        14        15     9        0.000000        2.155799         3    ;  uncertainty k = 0.304995
        12        13        14        15     9      180.000000       -0.454736         4    ;  uncertainty k = 0.161740
        12        13        14        28     9        0.000000       -1.899861         1    ;  uncertainty k = 0.488472
        12        13        14        28     9      180.000000        0.089774         2    ;  uncertainty k = 0.231777
        12        13        14        28     9        0.000000        0.915069         3    ;  uncertainty k = 0.064801
        12        13        14        28     9      180.000000       -0.364094         4    ;  uncertainty k = 0.109888
        12        13        14        29     9        0.000000       -1.899861         1    ;  uncertainty k = 0.488472
        12        13        14        29     9      180.000000        0.089774         2    ;  uncertainty k = 0.231777
        12        13        14        29     9        0.000000        0.915069         3    ;  uncertainty k = 0.064801
        12        13        14        29     9      180.000000       -0.364094         4    ;  uncertainty k = 0.109888
        13        14        15        16     9        0.000000       -0.855765         1    ;  uncertainty k = 0.958385
        13        14        15        16     9      180.000000       -0.362870         2    ;  uncertainty k = 0.288851
        13        14        15        16     9        0.000000        0.709124         3    ;  uncertainty k = 0.059714
        13        14        15        16     9      180.000000        0.510241         4    ;  uncertainty k = 0.046965
        14        13        12        24     9        0.000000       -1.674876         1    ;  uncertainty k = 0.369723
        14        13        12        24     9      180.000000       -0.612462         2    ;  uncertainty k = 0.298627
        14        13        12        24     9        0.000000        0.951504         3    ;  uncertainty k = 0.129669
        14        13        12        24     9      180.000000       -0.350545         4    ;  uncertainty k = 0.060141
        14        13        12        25     9        0.000000       -1.674876         1    ;  uncertainty k = 0.369723
        14        13        12        25     9      180.000000       -0.612462         2    ;  uncertainty k = 0.298627
        14        13        12        25     9        0.000000        0.951504         3    ;  uncertainty k = 0.129669
        14        13        12        25     9      180.000000       -0.350545         4    ;  uncertainty k = 0.060141
        14        15        16        19     9        0.000000        2.771474         1    ;  uncertainty k = 0.664062
        14        15        16        19     9      180.000000        7.058893         2    ;  uncertainty k = 0.050153
        14        15        16        19     9        0.000000        0.255364         3    ;  uncertainty k = 0.197562
        14        15        16        19     9      180.000000        0.108218         4    ;  uncertainty k = 0.093440
        14        15        16        32     9        0.000000        0.355527         1    ;  uncertainty k = 0.512071
        14        15        16        32     9      180.000000        6.877661         2    ;  uncertainty k = 0.167219
        14        15        16        32     9        0.000000        0.288506         3    ;  uncertainty k = 0.286217
        14        15        16        32     9      180.000000        0.282278         4    ;  uncertainty k = 0.092117
        15        14        13        26     9        0.000000        0.331853         1    ;  uncertainty k = 0.516652
        15        14        13        26     9      180.000000       -2.264471         2    ;  uncertainty k = 0.330961
        15        14        13        26     9        0.000000        1.406522         3    ;  uncertainty k = 0.115868
        15        14        13        26     9      180.000000        0.033184         4    ;  uncertainty k = 0.059062
        15        14        13        27     9        0.000000        0.331853         1    ;  uncertainty k = 0.516652
        15        14        13        27     9      180.000000       -2.264471         2    ;  uncertainty k = 0.330961
        15        14        13        27     9        0.000000        1.406522         3    ;  uncertainty k = 0.115868
        15        14        13        27     9      180.000000        0.033184         4    ;  uncertainty k = 0.059062
        15        16        19        18     9        0.000000        0.075865         1    ;  uncertainty k = 0.261988
        15        16        19        18     9      180.000000       13.527382         2    ;  uncertainty k = 0.350832
        15        16        19        18     9        0.000000        1.302846         3    ;  uncertainty k = 0.248461
        15        16        19        18     9      180.000000        1.573148         4    ;  uncertainty k = 0.228848
        15        16        19        30     9        0.000000       -0.183857         1    ;  uncertainty k = 0.238167
        15        16        19        30     9      180.000000       10.497921         2    ;  uncertainty k = 0.651178
        15        16        19        30     9        0.000000        0.910160         3    ;  uncertainty k = 0.112595
        15        16        19        30     9      180.000000        1.240318         4    ;  uncertainty k = 0.494985
        15        16        32        31     9        0.000000        0.137852         1    ;  uncertainty k = 0.298693
        15        16        32        31     9      180.000000        9.678080         2    ;  uncertainty k = 0.190325
        15        16        32        31     9        0.000000        1.155274         3    ;  uncertainty k = 0.179630
        15        16        32        31     9      180.000000        1.490570         4    ;  uncertainty k = 0.231045
        15        16        32        33     9        0.000000        0.181835         1    ;  uncertainty k = 0.443366
        15        16        32        33     9      180.000000        9.773729         2    ;  uncertainty k = 0.205658
        15        16        32        33     9        0.000000        1.079929         3    ;  uncertainty k = 0.299362
        15        16        32        33     9      180.000000        1.468690         4    ;  uncertainty k = 0.362095
        16        15        14        28     9        0.000000        0.906562         1    ;  uncertainty k = 0.666674
        16        15        14        28     9      180.000000       -1.280776         2    ;  uncertainty k = 0.127342
        16        15        14        28     9        0.000000        0.652214         3    ;  uncertainty k = 0.091067
        16        15        14        28     9      180.000000        0.249136         4    ;  uncertainty k = 0.049478
        16        15        14        29     9        0.000000        0.906562         1    ;  uncertainty k = 0.666674
        16        15        14        29     9      180.000000       -1.280776         2    ;  uncertainty k = 0.127342
        16        15        14        29     9        0.000000        0.652214         3    ;  uncertainty k = 0.091067
        16        15        14        29     9      180.000000        0.249136         4    ;  uncertainty k = 0.049478
        16        19        18        17     9        0.000000       -0.223631         1    ;  uncertainty k = 0.257927
        16        19        18        17     9      180.000000       11.307064         2    ;  uncertainty k = 0.442432
        16        19        18        17     9        0.000000       -0.668154         3    ;  uncertainty k = 0.466698
        16        19        18        17     9      180.000000        0.877377         4    ;  uncertainty k = 0.187087
        16        19        18        41     9        0.000000       -0.081235         1    ;  uncertainty k = 0.183357
        16        19        18        41     9      180.000000        6.743736         2    ;  uncertainty k = 0.496825
        16        19        18        41     9        0.000000        1.288673         3    ;  uncertainty k = 0.275167
        16        19        18        41     9      180.000000        1.502547         4    ;  uncertainty k = 0.163671
        16        32        31        17     9        0.000000       -0.354612         1    ;  uncertainty k = 0.441142
        16        32        31        17     9      180.000000        6.627677         2    ;  uncertainty k = 0.497580
        16        32        31        17     9        0.000000        0.570882         3    ;  uncertainty k = 0.281132
        16        32        31        17     9      180.000000        1.486656         4    ;  uncertainty k = 0.229164
        16        32        31        36     9        0.000000       -0.333444         1    ;  uncertainty k = 0.417730
        16        32        31        36     9      180.000000        6.674444         2    ;  uncertainty k = 0.525750
        16        32        31        36     9        0.000000        0.560817         3    ;  uncertainty k = 0.275597
        16        32        31        36     9      180.000000        1.487407         4    ;  uncertainty k = 0.230347
        16        32        33        34     9        0.000000       -0.090356         1    ;  uncertainty k = 0.314127
        16        32        33        34     9      180.000000        9.233646         2    ;  uncertainty k = 0.235240
        16        32        33        34     9        0.000000        0.518618         3    ;  uncertainty k = 0.351538
        16        32        33        34     9      180.000000        1.357479         4    ;  uncertainty k = 0.109332
        16        32        33        37     9        0.000000       -0.151722         1    ;  uncertainty k = 0.278712
        16        32        33        37     9      180.000000        7.373250         2    ;  uncertainty k = 0.245707
        16        32        33        37     9        0.000000        1.290525         3    ;  uncertainty k = 0.176006
        16        32        33        37     9      180.000000        1.073830         4    ;  uncertainty k = 0.224703
        17        18        19        30     9        0.000000        0.180055         1    ;  uncertainty k = 0.478738
        17        18        19        30     9      180.000000        6.645621         2    ;  uncertainty k = 0.498611
        17        18        19        30     9        0.000000        1.364349         3    ;  uncertainty k = 0.345748
        17        18        19        30     9      180.000000        1.577532         4    ;  uncertainty k = 0.120519
        17        31        32        33     9        0.000000       -0.140075         1    ;  uncertainty k = 0.210171
        17        31        32        33     9      180.000000        6.924781         2    ;  uncertainty k = 0.423549
        17        31        32        33     9        0.000000        0.489571         3    ;  uncertainty k = 0.287980
        17        31        32        33     9      180.000000        1.460854         4    ;  uncertainty k = 0.218107
        17        31        36        35     9        0.000000       -0.176860         1    ;  uncertainty k = 0.439986
        17        31        36        35     9      180.000000        9.129413         2    ;  uncertainty k = 0.290007
        17        31        36        35     9        0.000000        0.364802         3    ;  uncertainty k = 0.321107
        17        31        36        35     9      180.000000        1.403096         4    ;  uncertainty k = 0.121695
        17        31        36        40     9        0.000000       -0.143798         1    ;  uncertainty k = 0.191240
        17        31        36        40     9      180.000000        6.459295         2    ;  uncertainty k = 0.452160
        17        31        36        40     9        0.000000        1.216640         3    ;  uncertainty k = 0.236253
        17        31        36        40     9      180.000000        1.159689         4    ;  uncertainty k = 0.126546
        18        17        31        32     9        0.000000       -0.094439         1    ;  uncertainty k = 0.389134
        18        17        31        32     9      180.000000       10.589317         2    ;  uncertainty k = 0.414391
        18        17        31        32     9        0.000000       -0.430098         3    ;  uncertainty k = 0.276932
        18        17        31        32     9      180.000000        1.070594         4    ;  uncertainty k = 0.171418
        18        17        31        36     9        0.000000       -0.276027         1    ;  uncertainty k = 0.565350
        18        17        31        36     9      180.000000        9.588580         2    ;  uncertainty k = 0.246595
        18        17        31        36     9        0.000000        0.308300         3    ;  uncertainty k = 0.228403
        18        17        31        36     9      180.000000        1.362272         4    ;  uncertainty k = 0.116932
        18        19        16        32     9        0.000000        0.083265         1    ;  uncertainty k = 0.257142
        18        19        16        32     9      180.000000       10.592162         2    ;  uncertainty k = 0.402398
        18        19        16        32     9        0.000000        0.424007         3    ;  uncertainty k = 0.354510
        18        19        16        32     9      180.000000        1.276310         4    ;  uncertainty k = 0.185277
        19        16        32        31     9        0.000000        0.341386         1    ;  uncertainty k = 0.588410
        19        16        32        31     9      180.000000        6.653230         2    ;  uncertainty k = 1.041475
        19        16        32        31     9        0.000000        0.291478         3    ;  uncertainty k = 0.164533
        19        16        32        31     9      180.000000        1.295455         4    ;  uncertainty k = 0.299561
        19        16        32        33     9        0.000000        0.182474         1    ;  uncertainty k = 0.489549
        19        16        32        33     9      180.000000        5.891528         2    ;  uncertainty k = 0.554824
        19        16        32        33     9        0.000000        0.582085         3    ;  uncertainty k = 0.517845
        19        16        32        33     9      180.000000        1.413616         4    ;  uncertainty k = 0.214656
        19        18        17        31     9        0.000000       -0.003248         1    ;  uncertainty k = 0.352724
        19        18        17        31     9      180.000000       16.271674         2    ;  uncertainty k = 0.152542
        19        18        17        31     9        0.000000       -0.538125         3    ;  uncertainty k = 0.324107
        19        18        17        31     9      180.000000        0.816524         4    ;  uncertainty k = 0.225103
        19        18        17        42     9        0.000000        0.270961         1    ;  uncertainty k = 0.164485
        19        18        17        42     9      180.000000        9.525204         2    ;  uncertainty k = 0.455421
        19        18        17        42     9        0.000000        1.463322         3    ;  uncertainty k = 0.357621
        19        18        17        42     9      180.000000        1.921881         4    ;  uncertainty k = 0.253112
        20         6         5        43     9        0.000000        0.248356         1    ;  uncertainty k = 0.309441
        20         6         5        43     9      180.000000        6.219890         2    ;  uncertainty k = 0.560809
        20         6         5        43     9        0.000000        1.223843         3    ;  uncertainty k = 0.395076
        20         6         5        43     9      180.000000        0.794522         4    ;  uncertainty k = 0.403871
        20         6         7        21     9        0.000000        0.067635         1    ;  uncertainty k = 0.257851
        20         6         7        21     9      180.000000        7.678575         2    ;  uncertainty k = 0.249765
        20         6         7        21     9        0.000000       -0.249178         3    ;  uncertainty k = 0.224083
        20         6         7        21     9      180.000000        0.128053         4    ;  uncertainty k = 0.127116
        21         7         8        22     9        0.000000        0.024825         1    ;  uncertainty k = 0.154579
        21         7         8        22     9      180.000000        6.825470         2    ;  uncertainty k = 0.478217
        21         7         8        22     9        0.000000       -0.239724         3    ;  uncertainty k = 0.197508
        21         7         8        22     9      180.000000        0.091582         4    ;  uncertainty k = 0.138206
        22         8         9        23     9        0.000000        0.081241         1    ;  uncertainty k = 0.094303
        22         8         9        23     9      180.000000        7.822590         2    ;  uncertainty k = 0.225676
        22         8         9        23     9        0.000000       -0.195366         3    ;  uncertainty k = 0.265935
        22         8         9        23     9      180.000000        0.166865         4    ;  uncertainty k = 0.178530
        24        12        13        26     9        0.000000        0.854395         1    ;  uncertainty k = 0.155276
        24        12        13        26     9      180.000000       -0.685440         2    ;  uncertainty k = 0.292030
        24        12        13        26     9        0.000000        0.190992         3    ;  uncertainty k = 0.067388
        24        12        13        26     9      180.000000        0.009063         4    ;  uncertainty k = 0.043003
        24        12        13        27     9        0.000000        0.854395         1    ;  uncertainty k = 0.155276
        24        12        13        27     9      180.000000       -0.685440         2    ;  uncertainty k = 0.292030
        24        12        13        27     9        0.000000        0.190992         3    ;  uncertainty k = 0.067388
        24        12        13        27     9      180.000000        0.009063         4    ;  uncertainty k = 0.043003
        25        12        13        26     9        0.000000        0.854395         1    ;  uncertainty k = 0.155276
        25        12        13        26     9      180.000000       -0.685440         2    ;  uncertainty k = 0.292030
        25        12        13        26     9        0.000000        0.190992         3    ;  uncertainty k = 0.067388
        25        12        13        26     9      180.000000        0.009063         4    ;  uncertainty k = 0.043003
        25        12        13        27     9        0.000000        0.854395         1    ;  uncertainty k = 0.155276
        25        12        13        27     9      180.000000       -0.685440         2    ;  uncertainty k = 0.292030
        25        12        13        27     9        0.000000        0.190992         3    ;  uncertainty k = 0.067388
        25        12        13        27     9      180.000000        0.009063         4    ;  uncertainty k = 0.043003
        26        13        14        28     9        0.000000        0.449444         1    ;  uncertainty k = 0.139280
        26        13        14        28     9      180.000000       -0.425396         2    ;  uncertainty k = 0.148300
        26        13        14        28     9        0.000000        0.104575         3    ;  uncertainty k = 0.086099
        26        13        14        28     9      180.000000       -0.040944         4    ;  uncertainty k = 0.070354
        26        13        14        29     9        0.000000        0.449444         1    ;  uncertainty k = 0.139280
        26        13        14        29     9      180.000000       -0.425396         2    ;  uncertainty k = 0.148300
        26        13        14        29     9        0.000000        0.104575         3    ;  uncertainty k = 0.086099
        26        13        14        29     9      180.000000       -0.040944         4    ;  uncertainty k = 0.070354
        27        13        14        28     9        0.000000        0.449444         1    ;  uncertainty k = 0.139280
        27        13        14        28     9      180.000000       -0.425396         2    ;  uncertainty k = 0.148300
        27        13        14        28     9        0.000000        0.104575         3    ;  uncertainty k = 0.086099
        27        13        14        28     9      180.000000       -0.040944         4    ;  uncertainty k = 0.070354
        27        13        14        29     9        0.000000        0.449444         1    ;  uncertainty k = 0.139280
        27        13        14        29     9      180.000000       -0.425396         2    ;  uncertainty k = 0.148300
        27        13        14        29     9        0.000000        0.104575         3    ;  uncertainty k = 0.086099
        27        13        14        29     9      180.000000       -0.040944         4    ;  uncertainty k = 0.070354
        30        19        16        32     9        0.000000        0.247996         1    ;  uncertainty k = 0.252535
        30        19        16        32     9      180.000000        7.598394         2    ;  uncertainty k = 0.197360
        30        19        16        32     9        0.000000        1.587497         3    ;  uncertainty k = 0.472589
        30        19        16        32     9      180.000000        1.697153         4    ;  uncertainty k = 0.034873
        30        19        18        41     9        0.000000       -0.202491         1    ;  uncertainty k = 0.263152
        30        19        18        41     9      180.000000        6.607604         2    ;  uncertainty k = 0.535020
        30        19        18        41     9        0.000000       -0.212382         3    ;  uncertainty k = 0.280609
        30        19        18        41     9      180.000000        0.205404         4    ;  uncertainty k = 0.183562
        31        17        18        41     9        0.000000        0.219114         1    ;  uncertainty k = 0.262413
        31        17        18        41     9      180.000000        9.995547         2    ;  uncertainty k = 0.249834
        31        17        18        41     9        0.000000        1.549278         3    ;  uncertainty k = 0.333763
        31        17        18        41     9      180.000000        1.762117         4    ;  uncertainty k = 0.255251
        31        32        33        34     9        0.000000        0.017421         1    ;  uncertainty k = 0.354577
        31        32        33        34     9      180.000000       10.401125         2    ;  uncertainty k = 0.239738
        31        32        33        34     9        0.000000       -0.337474         3    ;  uncertainty k = 0.324755
        31        32        33        34     9      180.000000        1.001848         4    ;  uncertainty k = 0.234457
        31        32        33        37     9        0.000000       -0.119247         1    ;  uncertainty k = 0.467483
        31        32        33        37     9      180.000000        6.774582         2    ;  uncertainty k = 0.660619
        31        32        33        37     9        0.000000        1.318225         3    ;  uncertainty k = 0.239736
        31        32        33        37     9      180.000000        1.274600         4    ;  uncertainty k = 0.138275
        31        36        35        34     9        0.000000       -0.041156         1    ;  uncertainty k = 0.464722
        31        36        35        34     9      180.000000       16.646176         2    ;  uncertainty k = 0.236707
        31        36        35        34     9        0.000000       -0.451885         3    ;  uncertainty k = 0.331121
        31        36        35        34     9      180.000000        0.706936         4    ;  uncertainty k = 0.236868
        31        36        35        39     9        0.000000        0.212063         1    ;  uncertainty k = 0.206454
        31        36        35        39     9      180.000000       10.208086         2    ;  uncertainty k = 0.270697
        31        36        35        39     9        0.000000        1.619069         3    ;  uncertainty k = 0.303973
        31        36        35        39     9      180.000000        1.801727         4    ;  uncertainty k = 0.231078
        32        31        17        42     9        0.000000       -0.047226         1    ;  uncertainty k = 0.304892
        32        31        17        42     9      180.000000        6.147641         2    ;  uncertainty k = 0.655637
        32        31        17        42     9        0.000000        1.285026         3    ;  uncertainty k = 0.284886
        32        31        17        42     9      180.000000        1.285042         4    ;  uncertainty k = 0.099160
        32        31        36        35     9        0.000000        0.030027         1    ;  uncertainty k = 0.266894
        32        31        36        35     9      180.000000       10.240496         2    ;  uncertainty k = 0.364716
        32        31        36        35     9        0.000000       -0.375420         3    ;  uncertainty k = 0.254391
        32        31        36        35     9      180.000000        1.067516         4    ;  uncertainty k = 0.160127
        32        31        36        40     9        0.000000       -0.118336         1    ;  uncertainty k = 0.388301
        32        31        36        40     9      180.000000        6.096992         2    ;  uncertainty k = 0.671236
        32        31        36        40     9        0.000000        1.281084         3    ;  uncertainty k = 0.264897
        32        31        36        40     9      180.000000        1.285825         4    ;  uncertainty k = 0.112008
        32        33        34        35     9        0.000000       -0.046811         1    ;  uncertainty k = 0.562746
        32        33        34        35     9      180.000000       16.009862         2    ;  uncertainty k = 0.260043
        32        33        34        35     9        0.000000       -0.590240         3    ;  uncertainty k = 0.329068
        32        33        34        35     9      180.000000        0.800415         4    ;  uncertainty k = 0.311631
        32        33        34        38     9        0.000000        0.182303         1    ;  uncertainty k = 0.221575
        32        33        34        38     9      180.000000        9.897201         2    ;  uncertainty k = 0.196454
        32        33        34        38     9        0.000000        1.581225         3    ;  uncertainty k = 0.374994
        32        33        34        38     9      180.000000        1.839612         4    ;  uncertainty k = 0.190327
        33        32        31        36     9        0.000000       -0.137549         1    ;  uncertainty k = 0.185615
        33        32        31        36     9      180.000000        6.976041         2    ;  uncertainty k = 0.423269
        33        32        31        36     9        0.000000        0.501177         3    ;  uncertainty k = 0.289879
        33        32        31        36     9      180.000000        1.464276         4    ;  uncertainty k = 0.222078
        33        34        35        36     9        0.000000       -0.135675         1    ;  uncertainty k = 0.161364
        33        34        35        36     9      180.000000       11.686206         2    ;  uncertainty k = 0.423927
        33        34        35        36     9        0.000000       -0.816607         3    ;  uncertainty k = 0.653290
        33        34        35        36     9      180.000000        0.673547         4    ;  uncertainty k = 0.221863
        33        34        35        39     9        0.000000        0.060593         1    ;  uncertainty k = 0.308481
        33        34        35        39     9      180.000000        6.622008         2    ;  uncertainty k = 0.491297
        33        34        35        39     9        0.000000        1.374178         3    ;  uncertainty k = 0.252327
        33        34        35        39     9      180.000000        1.537427         4    ;  uncertainty k = 0.113576
        34        35        36        40     9        0.000000        0.116326         1    ;  uncertainty k = 0.107801
        34        35        36        40     9      180.000000        9.705393         2    ;  uncertainty k = 0.412681
        34        35        36        40     9        0.000000        1.421035         3    ;  uncertainty k = 0.333095
        34        35        36        40     9      180.000000        1.914352         4    ;  uncertainty k = 0.277012
        35        34        33        37     9        0.000000        0.157504         1    ;  uncertainty k = 0.067139
        35        34        33        37     9      180.000000        9.460099         2    ;  uncertainty k = 0.284065
        35        34        33        37     9        0.000000        1.418796         3    ;  uncertainty k = 0.326926
        35        34        33        37     9      180.000000        1.936608         4    ;  uncertainty k = 0.277272
        36        31        17        42     9        0.000000       -0.147492         1    ;  uncertainty k = 0.133406
        36        31        17        42     9      180.000000        6.640371         2    ;  uncertainty k = 0.536224
        36        31        17        42     9        0.000000        1.200128         3    ;  uncertainty k = 0.261787
        36        31        17        42     9      180.000000        1.130046         4    ;  uncertainty k = 0.124856
        36        35        34        38     9        0.000000        0.013599         1    ;  uncertainty k = 0.388906
        36        35        34        38     9      180.000000        6.642468         2    ;  uncertainty k = 0.612274
        36        35        34        38     9        0.000000        1.342414         3    ;  uncertainty k = 0.269419
        36        35        34        38     9      180.000000        1.503843         4    ;  uncertainty k = 0.131189
        37        33        34        38     9        0.000000       -0.053072         1    ;  uncertainty k = 0.319564
        37        33        34        38     9      180.000000        8.718889         2    ;  uncertainty k = 0.426647
        37        33        34        38     9        0.000000       -0.292985         3    ;  uncertainty k = 0.284574
        37        33        34        38     9      180.000000        0.193140         4    ;  uncertainty k = 0.203840
        38        34        35        39     9        0.000000       -0.085302         1    ;  uncertainty k = 0.203880
        38        34        35        39     9      180.000000        6.764740         2    ;  uncertainty k = 0.514631
        38        34        35        39     9        0.000000       -0.229634         3    ;  uncertainty k = 0.303232
        38        34        35        39     9      180.000000        0.117028         4    ;  uncertainty k = 0.134173
        39        35        36        40     9        0.000000        0.042031         1    ;  uncertainty k = 0.219139
        39        35        36        40     9      180.000000        8.809241         2    ;  uncertainty k = 0.369501
        39        35        36        40     9        0.000000       -0.271928         3    ;  uncertainty k = 0.243967
        39        35        36        40     9      180.000000        0.194961         4    ;  uncertainty k = 0.209800
        41        18        17        42     9        0.000000        0.109781         1    ;  uncertainty k = 0.202624
        41        18        17        42     9      180.000000        8.516003         2    ;  uncertainty k = 0.380811
        41        18        17        42     9        0.000000       -0.263391         3    ;  uncertainty k = 0.284889
        41        18        17        42     9      180.000000        0.180740         4    ;  uncertainty k = 0.204186

[ dihedrals ] ; impropers
;       ai        aj        ak        al funct           phase               k        pn
         2         1         3         4     4      180.000000       64.265870         2    ;  uncertainty k = 0.050254
         2         3         4         1     4      180.000000       64.265870         2    ;  uncertainty k = 0.050254
         2         4         1         3     4      180.000000       64.265870         2    ;  uncertainty k = 0.050254
         4         2        11        43     4      180.000000        5.876961         2    ;  uncertainty k = 0.526652
         4        11        43         2     4      180.000000        5.876961         2    ;  uncertainty k = 0.526652
         4        43         2        11     4      180.000000        5.876961         2    ;  uncertainty k = 0.526652
         5         6        10        43     4      180.000000        1.057348         2    ;  uncertainty k = 0.904202
         5        10        43         6     4      180.000000        1.057348         2    ;  uncertainty k = 0.904202
         5        43         6        10     4      180.000000        1.057348         2    ;  uncertainty k = 0.904202
         6         5         7        20     4      180.000000        2.336037         2    ;  uncertainty k = 0.300690
         6         7        20         5     4      180.000000        2.336037         2    ;  uncertainty k = 0.300690
         6        20         5         7     4      180.000000        2.336037         2    ;  uncertainty k = 0.300690
         7         6         8        21     4      180.000000        3.761581         2    ;  uncertainty k = 0.188539
         7         8        21         6     4      180.000000        3.761581         2    ;  uncertainty k = 0.188539
         7        21         6         8     4      180.000000        3.761581         2    ;  uncertainty k = 0.188539
         8         7         9        22     4      180.000000        3.007353         2    ;  uncertainty k = 0.125347
         8         9        22         7     4      180.000000        3.007353         2    ;  uncertainty k = 0.125347
         8        22         7         9     4      180.000000        3.007353         2    ;  uncertainty k = 0.125347
         9         8        10        23     4      180.000000        4.051631         2    ;  uncertainty k = 0.159442
         9        10        23         8     4      180.000000        4.051631         2    ;  uncertainty k = 0.159442
         9        23         8        10     4      180.000000        4.051631         2    ;  uncertainty k = 0.159442
        11         4        10        12     4      180.000000        2.099178         2    ;  uncertainty k = 0.534873
        11        10        12         4     4      180.000000        2.099178         2    ;  uncertainty k = 0.534873
        11        12         4        10     4      180.000000        2.099178         2    ;  uncertainty k = 0.534873
        16        15        19        32     4      180.000000       18.386572         2    ;  uncertainty k = 0.037406
        16        19        32        15     4      180.000000       18.386572         2    ;  uncertainty k = 0.037406
        16        32        15        19     4      180.000000       18.386572         2    ;  uncertainty k = 0.037406
        17        18        31        42     4      180.000000        3.202598         2    ;  uncertainty k = 0.111123
        17        31        42        18     4      180.000000        3.202598         2    ;  uncertainty k = 0.111123
        17        42        18        31     4      180.000000        3.202598         2    ;  uncertainty k = 0.111123
        18        17        19        41     4      180.000000        4.517470         2    ;  uncertainty k = 0.112932
        18        19        41        17     4      180.000000        4.517470         2    ;  uncertainty k = 0.112932
        18        41        17        19     4      180.000000        4.517470         2    ;  uncertainty k = 0.112932
        19        16        18        30     4      180.000000        2.124675         2    ;  uncertainty k = 0.359781
        19        18        30        16     4      180.000000        2.124675         2    ;  uncertainty k = 0.359781
        19        30        16        18     4      180.000000        2.124675         2    ;  uncertainty k = 0.359781
        31        17        32        36     4      180.000000        8.794758         2    ;  uncertainty k = 0.135372
        31        32        36        17     4      180.000000        8.794758         2    ;  uncertainty k = 0.135372
        31        36        17        32     4      180.000000        8.794758         2    ;  uncertainty k = 0.135372
        32        16        31        33     4      180.000000        6.447873         2    ;  uncertainty k = 0.208436
        32        31        33        16     4      180.000000        6.447873         2    ;  uncertainty k = 0.208436
        32        33        16        31     4      180.000000        6.447873         2    ;  uncertainty k = 0.208436
        33        32        34        37     4      180.000000        4.159024         2    ;  uncertainty k = 0.064669
        33        34        37        32     4      180.000000        4.159024         2    ;  uncertainty k = 0.064669
        33        37        32        34     4      180.000000        4.159024         2    ;  uncertainty k = 0.064669
        34        33        35        38     4      180.000000        4.123012         2    ;  uncertainty k = 0.085110
        34        35        38        33     4      180.000000        4.123012         2    ;  uncertainty k = 0.085110
        34        38        33        35     4      180.000000        4.123012         2    ;  uncertainty k = 0.085110
        35        34        36        39     4      180.000000        4.525513         2    ;  uncertainty k = 0.072531
        35        36        39        34     4      180.000000        4.525513         2    ;  uncertainty k = 0.072531
        35        39        34        36     4      180.000000        4.525513         2    ;  uncertainty k = 0.072531
        36        31        35        40     4      180.000000        4.079318         2    ;  uncertainty k = 0.082584
        36        35        40        31     4      180.000000        4.079318         2    ;  uncertainty k = 0.082584
        36        40        31        35     4      180.000000        4.079318         2    ;  uncertainty k = 0.082584

[ pairs ]
;       ai        aj funct
         1        11     1
         1        43     1
         2         5     1
         2        10     1
         2        12     1
         2        44     1
         3        11     1
         3        43     1
         4         6     1
         4         9     1
         4        13     1
         4        24     1
         4        25     1
         5         8     1
         5        12     1
         5        21     1
         5        23     1
         6         9     1
         6        11     1
         6        22     1
         6        44     1
         7        10     1
         7        23     1
         7        43     1
         8        11     1
         8        20     1
         9        12     1
         9        21     1
         9        43     1
        10        13     1
        10        20     1
        10        22     1
        10        24     1
        10        25     1
        10        44     1
        11        14     1
        11        23     1
        11        26     1
        11        27     1
        11        44     1
        12        15     1
        12        28     1
        12        29     1
        12        43     1
        13        16     1
        14        19     1
        14        24     1
        14        25     1
        14        32     1
        15        18     1
        15        26     1
        15        27     1
        15        30     1
        15        31     1
        15        33     1
        16        17     1
        16        28     1
        16        29     1
        16        34     1
        16        36     1
        16        37     1
        16        41     1
        17        30     1
        17        33     1
        17        35     1
        17        40     1
        18        32     1
        18        36     1
        19        31     1
        19        33     1
        19        42     1
        20        21     1
        20        43     1
        21        22     1
        22        23     1
        24        26     1
        24        27     1
        25        26     1
        25        27     1
        26        28     1
        26        29     1
        27        28     1
        27        29     1
        30        32     1
        30        41     1
        31        34     1
        31        37     1
        31        39     1
        31        41     1
        32        35     1
        32        38     1
        32        40     1
        32        42     1
        33        36     1
        33        39     1
        34        40     1
        35        37     1
        36        38     1
        36        42     1
        37        38     1
        38        39     1
        39        40     1
        41        42     1
