; ITP file created by ByteFF-joint-25, 2026-02-17 09:22:00.197362

[ atomtypes ]
;name           bonded.type        at.num        mass        charge   ptype           sigma         epsilon
 o0bf                                   8      0.0000       0.00000       A     3.04807e-01     6.12065e-01    ;  uncertainty sigma = 0.000018, epsilon = 0.000616
 c1bf                                   6      0.0000       0.00000       A     3.31436e-01     4.13701e-01    ;  uncertainty sigma = 0.000034, epsilon = 0.002275
 o2bf                                   8      0.0000       0.00000       A     3.04807e-01     6.12065e-01    ;  uncertainty sigma = 0.000018, epsilon = 0.000616
 c3bf                                   6      0.0000       0.00000       A     3.31527e-01     4.12548e-01    ;  uncertainty sigma = 0.000053, epsilon = 0.002675
 c4bf                                   6      0.0000       0.00000       A     3.31556e-01     4.13605e-01    ;  uncertainty sigma = 0.000009, epsilon = 0.001072
 c5bf                                   6      0.0000       0.00000       A     3.31528e-01     4.13216e-01    ;  uncertainty sigma = 0.000006, epsilon = 0.000735
 c6bf                                   6      0.0000       0.00000       A     3.31524e-01     4.13323e-01    ;  uncertainty sigma = 0.000005, epsilon = 0.000518
 c7bf                                   6      0.0000       0.00000       A     3.31524e-01     4.13320e-01    ;  uncertainty sigma = 0.000004, epsilon = 0.000654
 c8bf                                   6      0.0000       0.00000       A     3.31525e-01     4.13140e-01    ;  uncertainty sigma = 0.000007, epsilon = 0.000627
 c9bf                                   6      0.0000       0.00000       A     3.31543e-01     4.12994e-01    ;  uncertainty sigma = 0.000008, epsilon = 0.001189
 c10bf                                  6      0.0000       0.00000       A     3.31576e-01     4.13309e-01    ;  uncertainty sigma = 0.000008, epsilon = 0.001192
 c11bf                                  6      0.0000       0.00000       A     3.39773e-01     4.50718e-01    ;  uncertainty sigma = 0.000020, epsilon = 0.000757
 c12bf                                  6      0.0000       0.00000       A     3.39755e-01     4.50608e-01    ;  uncertainty sigma = 0.000006, epsilon = 0.000953
 c13bf                                  6      0.0000       0.00000       A     3.39779e-01     4.50519e-01    ;  uncertainty sigma = 0.000006, epsilon = 0.000788
 o14bf                                  8      0.0000       0.00000       A     3.15603e-01     3.03349e-01    ;  uncertainty sigma = 0.000015, epsilon = 0.000457
 c15bf                                  6      0.0000       0.00000       A     3.31514e-01     4.13259e-01    ;  uncertainty sigma = 0.000008, epsilon = 0.000824
 c16bf                                  6      0.0000       0.00000       A     3.31529e-01     4.13225e-01    ;  uncertainty sigma = 0.000005, epsilon = 0.000406
 c17bf                                  6      0.0000       0.00000       A     3.31519e-01     4.13388e-01    ;  uncertainty sigma = 0.000003, epsilon = 0.000583
 h18bf                                  1      0.0000       0.00000       A     2.62573e-01     6.69665e-02    ;  uncertainty sigma = 0.000008, epsilon = 0.000474
 h19bf                                  1      0.0000       0.00000       A     2.62567e-01     6.69871e-02    ;  uncertainty sigma = 0.000012, epsilon = 0.000553
 h20bf                                  1      0.0000       0.00000       A     2.62563e-01     6.69792e-02    ;  uncertainty sigma = 0.000011, epsilon = 0.000555
 h21bf                                  1      0.0000       0.00000       A     2.62566e-01     6.69359e-02    ;  uncertainty sigma = 0.000011, epsilon = 0.000323
 h22bf                                  1      0.0000       0.00000       A     2.60038e-01     8.64862e-02    ;  uncertainty sigma = 0.000012, epsilon = 0.000717
 h23bf                                  1      0.0000       0.00000       A     2.60038e-01     8.64862e-02    ;  uncertainty sigma = 0.000012, epsilon = 0.000717
 h24bf                                  1      0.0000       0.00000       A     2.60032e-01     8.63750e-02    ;  uncertainty sigma = 0.000011, epsilon = 0.000877
 h25bf                                  1      0.0000       0.00000       A     2.60032e-01     8.63750e-02    ;  uncertainty sigma = 0.000011, epsilon = 0.000877
 h26bf                                  1      0.0000       0.00000       A     2.42190e-01     8.69771e-02    ;  uncertainty sigma = 0.000031, epsilon = 0.000462
 h27bf                                  1      0.0000       0.00000       A     2.42190e-01     8.69771e-02    ;  uncertainty sigma = 0.000031, epsilon = 0.000462
 h28bf                                  1      0.0000       0.00000       A     2.62563e-01     6.70719e-02    ;  uncertainty sigma = 0.000007, epsilon = 0.000511
 c29bf                                  6      0.0000       0.00000       A     3.31540e-01     4.13310e-01    ;  uncertainty sigma = 0.000003, epsilon = 0.001059
 h30bf                                  1      0.0000       0.00000       A     2.62558e-01     6.70186e-02    ;  uncertainty sigma = 0.000010, epsilon = 0.000442
 c31bf                                  6      0.0000       0.00000       A     3.31516e-01     4.13289e-01    ;  uncertainty sigma = 0.000005, epsilon = 0.000793
 c32bf                                  6      0.0000       0.00000       A     3.31531e-01     4.13528e-01    ;  uncertainty sigma = 0.000006, epsilon = 0.000942
 c33bf                                  6      0.0000       0.00000       A     3.31523e-01     4.13207e-01    ;  uncertainty sigma = 0.000004, epsilon = 0.000466
 c34bf                                  6      0.0000       0.00000       A     3.31523e-01     4.13359e-01    ;  uncertainty sigma = 0.000003, epsilon = 0.000695
 c35bf                                  6      0.0000       0.00000       A     3.31523e-01     4.13359e-01    ;  uncertainty sigma = 0.000003, epsilon = 0.000695
 c36bf                                  6      0.0000       0.00000       A     3.31522e-01     4.13212e-01    ;  uncertainty sigma = 0.000005, epsilon = 0.000488
 h37bf                                  1      0.0000       0.00000       A     2.62559e-01     6.70660e-02    ;  uncertainty sigma = 0.000013, epsilon = 0.000302
 h38bf                                  1      0.0000       0.00000       A     2.62567e-01     6.69734e-02    ;  uncertainty sigma = 0.000010, epsilon = 0.000525
 h39bf                                  1      0.0000       0.00000       A     2.62567e-01     6.69734e-02    ;  uncertainty sigma = 0.000010, epsilon = 0.000525
 h40bf                                  1      0.0000       0.00000       A     2.62559e-01     6.70661e-02    ;  uncertainty sigma = 0.000013, epsilon = 0.000302
 h41bf                                  1      0.0000       0.00000       A     2.62549e-01     6.72424e-02    ;  uncertainty sigma = 0.000009, epsilon = 0.000658
 n42bf                                  7      0.0000       0.00000       A     3.20754e-01     8.52244e-01    ;  uncertainty sigma = 0.000047, epsilon = 0.002451
 h43bf                                  1      0.0000       0.00000       A     1.10620e-01     4.09732e-02    ;  uncertainty sigma = 0.000138, epsilon = 0.001729

[ moleculetype ]
;name             nrexcl
 MOL                   3

[ atoms ]
;       nr            type      resi   res      atom      cgnr      charge          mass ; qtot
         1            o0bf         1   UNL        o0         1    -0.82702       15.9990 ; qtot   -0.827
         2            c1bf         1   UNL        c1         2     0.92126       12.0110 ; qtot    0.094
         3            o2bf         1   UNL        o2         3    -0.82702       15.9990 ; qtot   -0.733
         4            c3bf         1   UNL        c3         4    -0.10822       12.0110 ; qtot   -0.841
         5            c4bf         1   UNL        c4         5    -0.06744       12.0110 ; qtot   -0.908
         6            c5bf         1   UNL        c5         6    -0.16684       12.0110 ; qtot   -1.075
         7            c6bf         1   UNL        c6         7    -0.11194       12.0110 ; qtot   -1.187
         8            c7bf         1   UNL        c7         8    -0.15971       12.0110 ; qtot   -1.347
         9            c8bf         1   UNL        c8         9    -0.09713       12.0110 ; qtot   -1.444
        10            c9bf         1   UNL        c9        10    -0.10135       12.0110 ; qtot   -1.545
        11           c10bf         1   UNL       c10        11    -0.18594       12.0110 ; qtot   -1.731
        12           c11bf         1   UNL       c11        12    -0.00834       12.0110 ; qtot   -1.740
        13           c12bf         1   UNL       c12        13    -0.09597       12.0110 ; qtot   -1.836
        14           c13bf         1   UNL       c13        14     0.13845       12.0110 ; qtot   -1.697
        15           o14bf         1   UNL       o14        15    -0.33355       15.9990 ; qtot   -2.031
        16           c15bf         1   UNL       c15        16     0.13701       12.0110 ; qtot   -1.894
        17           c16bf         1   UNL       c16        17    -0.08946       12.0110 ; qtot   -1.983
        18           c17bf         1   UNL       c17        18    -0.17159       12.0110 ; qtot   -2.155
        19           h18bf         1   UNL       h18        19     0.13216        1.0080 ; qtot   -2.023
        20           h19bf         1   UNL       h19        20     0.12950        1.0080 ; qtot   -1.893
        21           h20bf         1   UNL       h20        21     0.12900        1.0080 ; qtot   -1.764
        22           h21bf         1   UNL       h21        22     0.13303        1.0080 ; qtot   -1.631
        23           h22bf         1   UNL       h22        23     0.04354        1.0080 ; qtot   -1.588
        24           h23bf         1   UNL       h23        24     0.04354        1.0080 ; qtot   -1.544
        25           h24bf         1   UNL       h24        25     0.05420        1.0080 ; qtot   -1.490
        26           h25bf         1   UNL       h25        26     0.05420        1.0080 ; qtot   -1.436
        27           h26bf         1   UNL       h26        27     0.04488        1.0080 ; qtot   -1.391
        28           h27bf         1   UNL       h27        28     0.04488        1.0080 ; qtot   -1.346
        29           h28bf         1   UNL       h28        29     0.14384        1.0080 ; qtot   -1.202
        30           c29bf         1   UNL       c29        30    -0.18193       12.0110 ; qtot   -1.384
        31           h30bf         1   UNL       h30        31     0.13475        1.0080 ; qtot   -1.249
        32           c31bf         1   UNL       c31        32    -0.00898       12.0110 ; qtot   -1.258
        33           c32bf         1   UNL       c32        33    -0.05708       12.0110 ; qtot   -1.315
        34           c33bf         1   UNL       c33        34    -0.11393       12.0110 ; qtot   -1.429
        35           c34bf         1   UNL       c34        35    -0.12646       12.0110 ; qtot   -1.556
        36           c35bf         1   UNL       c35        36    -0.12187       12.0110 ; qtot   -1.678
        37           c36bf         1   UNL       c36        37    -0.12427       12.0110 ; qtot   -1.802
        38           h37bf         1   UNL       h37        38     0.13198        1.0080 ; qtot   -1.670
        39           h38bf         1   UNL       h38        39     0.13276        1.0080 ; qtot   -1.537
        40           h39bf         1   UNL       h39        40     0.13276        1.0080 ; qtot   -1.404
        41           h40bf         1   UNL       h40        41     0.13205        1.0080 ; qtot   -1.272
        42           h41bf         1   UNL       h41        42     0.14192        1.0080 ; qtot   -1.130
        43           n42bf         1   UNL       n42        43    -0.18585       14.0070 ; qtot   -1.316
        44           h43bf         1   UNL       h43        44     0.31618        1.0080 ; qtot   -1.000

[ bonds ]
;       ai        aj funct               r               k
         1         2     1        0.126489   553283.027930    ;  uncertainty r = 0.000115, k = 9.491850
         2         3     1        0.126489   553283.027930    ;  uncertainty r = 0.000115, k = 9.491850
         2         4     1        0.152875   178456.869971    ;  uncertainty r = 0.000109, k = 53.157083
         4        11     1        0.138845   388969.962598    ;  uncertainty r = 0.000116, k = 35.597318
         4        43     1        0.138411   296910.956104    ;  uncertainty r = 0.000116, k = 16.653525
         5         6     1        0.139909   370024.083301    ;  uncertainty r = 0.000068, k = 3.273406
         5        10     1        0.143429   333658.830957    ;  uncertainty r = 0.000101, k = 12.925109
         5        43     1        0.137190   323439.748047    ;  uncertainty r = 0.000109, k = 15.720627
         6         7     1        0.139204   373030.439502    ;  uncertainty r = 0.000031, k = 1.532197
         6        19     1        0.108908   337826.589355    ;  uncertainty r = 0.000007, k = 0.915296
         7         8     1        0.141248   347880.881299    ;  uncertainty r = 0.000048, k = 2.727051
         7        20     1        0.108787   335143.149902    ;  uncertainty r = 0.000015, k = 1.282440
         8         9     1        0.139156   366705.382715    ;  uncertainty r = 0.000016, k = 3.013067
         8        21     1        0.108813   335291.367285    ;  uncertainty r = 0.000018, k = 0.841713
         9        10     1        0.140712   363994.363184    ;  uncertainty r = 0.000090, k = 9.392181
         9        22     1        0.108826   337192.119873    ;  uncertainty r = 0.000025, k = 2.686180
        10        11     1        0.143927   250387.756689    ;  uncertainty r = 0.000100, k = 20.205925
        11        12     1        0.150056   234448.846484    ;  uncertainty r = 0.000153, k = 11.938075
        12        13     1        0.153885   206360.273438    ;  uncertainty r = 0.000103, k = 7.147654
        12        23     1        0.109683   309037.278027    ;  uncertainty r = 0.000026, k = 1.364430
        12        24     1        0.109683   309037.278027    ;  uncertainty r = 0.000026, k = 1.364430
        13        14     1        0.152188   210122.336548    ;  uncertainty r = 0.000034, k = 2.063386
        13        25     1        0.109664   307643.385986    ;  uncertainty r = 0.000028, k = 1.424205
        13        26     1        0.109664   307643.385986    ;  uncertainty r = 0.000028, k = 1.424205
        14        15     1        0.142440   234189.185156    ;  uncertainty r = 0.000042, k = 6.653288
        14        27     1        0.109771   308109.285010    ;  uncertainty r = 0.000022, k = 1.255575
        14        28     1        0.109771   308109.285010    ;  uncertainty r = 0.000022, k = 1.255575
        15        16     1        0.136642   319865.778516    ;  uncertainty r = 0.000052, k = 3.399911
        16        18     1        0.142065   347338.677393    ;  uncertainty r = 0.000104, k = 6.280655
        16        30     1        0.138049   357735.549658    ;  uncertainty r = 0.000055, k = 6.193289
        17        18     1        0.137649   368310.747559    ;  uncertainty r = 0.000065, k = 2.244571
        17        31     1        0.108795   334528.216309    ;  uncertainty r = 0.000016, k = 0.856630
        17        33     1        0.142075   354153.740234    ;  uncertainty r = 0.000043, k = 2.952820
        18        29     1        0.108805   338047.051221    ;  uncertainty r = 0.000037, k = 1.164181
        30        32     1        0.141902   347049.571777    ;  uncertainty r = 0.000044, k = 3.561570
        30        42     1        0.108813   337067.626465    ;  uncertainty r = 0.000036, k = 0.663398
        32        33     1        0.143216   332690.463770    ;  uncertainty r = 0.000043, k = 3.618034
        32        37     1        0.142147   346444.648730    ;  uncertainty r = 0.000027, k = 2.356207
        33        34     1        0.142038   348699.703174    ;  uncertainty r = 0.000026, k = 3.264593
        34        35     1        0.137919   369376.436670    ;  uncertainty r = 0.000021, k = 1.391314
        34        38     1        0.108847   335347.063721    ;  uncertainty r = 0.000014, k = 0.566768
        35        36     1        0.141907   352908.601855    ;  uncertainty r = 0.000035, k = 3.203645
        35        39     1        0.108812   334757.871533    ;  uncertainty r = 0.000008, k = 1.170090
        36        37     1        0.137983   370403.513672    ;  uncertainty r = 0.000019, k = 1.289117
        36        40     1        0.108812   334757.871533    ;  uncertainty r = 0.000008, k = 1.170087
        37        41     1        0.108850   335379.112793    ;  uncertainty r = 0.000020, k = 0.649739
        43        44     1        0.101525   411016.174658    ;  uncertainty r = 0.000192, k = 19.532859

[ angles ]
;       ai        aj        ak funct           theta             cth
         1         2         3     1      131.490799      799.912859    ;  uncertainty theta = 0.007122, k = 0.161146
         1         2         4     1      115.643898      409.958900    ;  uncertainty theta = 0.009941, k = 0.278481
         2         4        11     1      129.691666      294.711298    ;  uncertainty theta = 0.010379, k = 0.154712
         2         4        43     1      117.855209      349.663901    ;  uncertainty theta = 0.005899, k = 0.287676
         3         2         4     1      115.643898      409.958900    ;  uncertainty theta = 0.009941, k = 0.278481
         4        11        10     1      107.813744      761.507600    ;  uncertainty theta = 0.003114, k = 0.233379
         4        11        12     1      125.834373      348.251252    ;  uncertainty theta = 0.008524, k = 0.203092
         4        43         5     1      106.686867      870.555270    ;  uncertainty theta = 0.004731, k = 0.157374
         4        43        44     1      118.324951      293.095597    ;  uncertainty theta = 0.017038, k = 0.289786
         5         6         7     1      117.288712      532.685108    ;  uncertainty theta = 0.002732, k = 0.138286
         5         6        19     1      122.416870      294.044173    ;  uncertainty theta = 0.002439, k = 0.026234
         5        10         9     1      116.726723      409.397211    ;  uncertainty theta = 0.004491, k = 0.081187
         5        10        11     1      107.622475      685.489179    ;  uncertainty theta = 0.004472, k = 0.334622
         5        43        44     1      119.518555      279.940091    ;  uncertainty theta = 0.027559, k = 0.287070
         6         5        10     1      120.341995      378.416324    ;  uncertainty theta = 0.003053, k = 0.079333
         6         5        43     1      130.070251      406.372596    ;  uncertainty theta = 0.003047, k = 0.189160
         6         7         8     1      122.110641      522.210041    ;  uncertainty theta = 0.001703, k = 0.050914
         6         7        20     1      119.408218      283.874626    ;  uncertainty theta = 0.001884, k = 0.037783
         7         6        19     1      121.416527      285.300171    ;  uncertainty theta = 0.001028, k = 0.037490
         7         8         9     1      121.942673      521.393620    ;  uncertainty theta = 0.001697, k = 0.032913
         7         8        21     1      119.651100      288.114903    ;  uncertainty theta = 0.001746, k = 0.035440
         8         7        20     1      119.801102      287.497128    ;  uncertainty theta = 0.001585, k = 0.046675
         8         9        10     1      119.165207      547.786701    ;  uncertainty theta = 0.003326, k = 0.038562
         8         9        22     1      120.508347      285.672566    ;  uncertainty theta = 0.001453, k = 0.031601
         9         8        21     1      119.815613      287.517590    ;  uncertainty theta = 0.001890, k = 0.024499
         9        10        11     1      132.186111      358.431813    ;  uncertainty theta = 0.003911, k = 0.091946
        10         5        43     1      107.610229      677.054783    ;  uncertainty theta = 0.004088, k = 0.326769
        10         9        22     1      121.598999      289.048093    ;  uncertainty theta = 0.003949, k = 0.074173
        10        11        12     1      125.270729      364.592289    ;  uncertainty theta = 0.008077, k = 0.215292
        11         4        43     1      110.824791      694.108082    ;  uncertainty theta = 0.003478, k = 0.245195
        11        12        13     1      111.535912      545.701979    ;  uncertainty theta = 0.004629, k = 0.049601
        11        12        23     1      107.023758      409.119878    ;  uncertainty theta = 0.002156, k = 0.076181
        11        12        24     1      107.023758      409.119878    ;  uncertainty theta = 0.002156, k = 0.076181
        12        13        14     1      109.885742      550.121049    ;  uncertainty theta = 0.002834, k = 0.051764
        12        13        25     1      107.780540      395.334819    ;  uncertainty theta = 0.002719, k = 0.061247
        12        13        26     1      107.780540      395.334819    ;  uncertainty theta = 0.002719, k = 0.061247
        13        12        23     1      106.925919      401.105057    ;  uncertainty theta = 0.002530, k = 0.096026
        13        12        24     1      106.925919      401.105057    ;  uncertainty theta = 0.002530, k = 0.096026
        13        14        15     1      109.193741      593.514471    ;  uncertainty theta = 0.001651, k = 0.053050
        13        14        27     1      109.845093      407.621744    ;  uncertainty theta = 0.001563, k = 0.041629
        13        14        28     1      109.845093      407.621744    ;  uncertainty theta = 0.001563, k = 0.041629
        14        13        25     1      106.752258      398.606123    ;  uncertainty theta = 0.001618, k = 0.026063
        14        13        26     1      106.752258      398.606123    ;  uncertainty theta = 0.001618, k = 0.026063
        14        15        16     1      110.194382      510.724663    ;  uncertainty theta = 0.001139, k = 0.047144
        15        14        27     1      106.829674      432.072824    ;  uncertainty theta = 0.001590, k = 0.029100
        15        14        28     1      106.829674      432.072824    ;  uncertainty theta = 0.001590, k = 0.029100
        15        16        18     1      119.340919      427.084660    ;  uncertainty theta = 0.004599, k = 0.038401
        15        16        30     1      120.078636      431.261095    ;  uncertainty theta = 0.003219, k = 0.148222
        16        18        17     1      119.761879      529.597512    ;  uncertainty theta = 0.001017, k = 0.090600
        16        18        29     1      119.548935      275.524885    ;  uncertainty theta = 0.001688, k = 0.061055
        16        30        32     1      119.594543      523.758771    ;  uncertainty theta = 0.000858, k = 0.134530
        16        30        42     1      119.880936      270.635741    ;  uncertainty theta = 0.001322, k = 0.101600
        17        18        29     1      120.298607      289.860365    ;  uncertainty theta = 0.001117, k = 0.065727
        17        33        32     1      117.658585      455.349324    ;  uncertainty theta = 0.003211, k = 0.111042
        17        33        34     1      123.501083      456.566391    ;  uncertainty theta = 0.004285, k = 0.043428
        18        16        30     1      121.657448      387.060412    ;  uncertainty theta = 0.002866, k = 0.113292
        18        17        31     1      120.195541      280.929974    ;  uncertainty theta = 0.002524, k = 0.039548
        18        17        33     1      121.532822      544.421613    ;  uncertainty theta = 0.002572, k = 0.150442
        23        12        24     1      104.532631      313.868120    ;  uncertainty theta = 0.003533, k = 0.064476
        25        13        26     1      105.092697      317.561425    ;  uncertainty theta = 0.002566, k = 0.027591
        27        14        28     1      107.458420      332.067141    ;  uncertainty theta = 0.001923, k = 0.040214
        30        32        33     1      118.945984      454.023565    ;  uncertainty theta = 0.003922, k = 0.103778
        30        32        37     1      123.563034      473.580937    ;  uncertainty theta = 0.004410, k = 0.112517
        31        17        33     1      119.934654      278.949411    ;  uncertainty theta = 0.002354, k = 0.091421
        32        30        42     1      120.354614      280.490799    ;  uncertainty theta = 0.001711, k = 0.098195
        32        33        34     1      118.431053      462.430924    ;  uncertainty theta = 0.003187, k = 0.068975
        32        37        36     1      120.031250      544.371368    ;  uncertainty theta = 0.001586, k = 0.092023
        32        37        41     1      119.661781      279.420858    ;  uncertainty theta = 0.002511, k = 0.080903
        33        32        37     1      118.040321      455.724720    ;  uncertainty theta = 0.003276, k = 0.083745
        33        34        35     1      120.455368      542.220250    ;  uncertainty theta = 0.001874, k = 0.056787
        33        34        38     1      119.712723      276.435283    ;  uncertainty theta = 0.001508, k = 0.063403
        34        35        36     1      120.110641      528.188630    ;  uncertainty theta = 0.001472, k = 0.015603
        34        35        39     1      119.749954      289.371457    ;  uncertainty theta = 0.001063, k = 0.025201
        35        34        38     1      120.799782      287.371135    ;  uncertainty theta = 0.001240, k = 0.026677
        35        36        37     1      120.296753      528.572389    ;  uncertainty theta = 0.001493, k = 0.017093
        35        36        40     1      120.394188      288.947956    ;  uncertainty theta = 0.001245, k = 0.007308
        36        35        39     1      120.394188      288.947956    ;  uncertainty theta = 0.001245, k = 0.007308
        36        37        41     1      120.823853      287.411196    ;  uncertainty theta = 0.000988, k = 0.021867
        37        36        40     1      119.701637      289.983677    ;  uncertainty theta = 0.000931, k = 0.021020

[ dihedrals ] ; propers for gromacs 4.5 or higher, use funct 9
;       ai        aj        ak        al funct           phase               k        pn
         1         2         4        11     9        0.000000       -1.372021         1    ;  uncertainty k = 1.492730
         1         2         4        11     9      180.000000        2.371115         2    ;  uncertainty k = 0.300482
         1         2         4        11     9        0.000000        0.292116         3    ;  uncertainty k = 0.252771
         1         2         4        11     9      180.000000        0.155159         4    ;  uncertainty k = 0.093475
         1         2         4        43     9        0.000000        1.707823         1    ;  uncertainty k = 0.704832
         1         2         4        43     9      180.000000        3.884647         2    ;  uncertainty k = 0.565808
         1         2         4        43     9        0.000000        0.749129         3    ;  uncertainty k = 0.264976
         1         2         4        43     9      180.000000        0.174104         4    ;  uncertainty k = 0.159693
         2         4        11        10     9        0.000000        0.658377         1    ;  uncertainty k = 1.317360
         2         4        11        10     9      180.000000       11.269219         2    ;  uncertainty k = 0.349150
         2         4        11        10     9        0.000000        2.080317         3    ;  uncertainty k = 0.240036
         2         4        11        10     9      180.000000        0.676709         4    ;  uncertainty k = 0.169861
         2         4        11        12     9        0.000000        0.204708         1    ;  uncertainty k = 0.747460
         2         4        11        12     9      180.000000        9.233953         2    ;  uncertainty k = 0.447590
         2         4        11        12     9        0.000000        1.675443         3    ;  uncertainty k = 0.293006
         2         4        11        12     9      180.000000        0.426607         4    ;  uncertainty k = 0.323880
         2         4        43         5     9        0.000000       -0.464998         1    ;  uncertainty k = 2.171907
         2         4        43         5     9      180.000000        6.451220         2    ;  uncertainty k = 1.089854
         2         4        43         5     9        0.000000        1.609707         3    ;  uncertainty k = 0.687909
         2         4        43         5     9      180.000000        0.292935         4    ;  uncertainty k = 0.259665
         2         4        43        44     9        0.000000        1.253701         1    ;  uncertainty k = 2.041217
         2         4        43        44     9      180.000000        2.479089         2    ;  uncertainty k = 1.021447
         2         4        43        44     9        0.000000        1.291813         3    ;  uncertainty k = 0.578698
         2         4        43        44     9      180.000000       -0.030601         4    ;  uncertainty k = 0.146306
         3         2         4        11     9        0.000000       -1.372021         1    ;  uncertainty k = 1.492730
         3         2         4        11     9      180.000000        2.371115         2    ;  uncertainty k = 0.300482
         3         2         4        11     9        0.000000        0.292116         3    ;  uncertainty k = 0.252771
         3         2         4        11     9      180.000000        0.155159         4    ;  uncertainty k = 0.093475
         3         2         4        43     9        0.000000        1.707823         1    ;  uncertainty k = 0.704832
         3         2         4        43     9      180.000000        3.884647         2    ;  uncertainty k = 0.565808
         3         2         4        43     9        0.000000        0.749129         3    ;  uncertainty k = 0.264976
         3         2         4        43     9      180.000000        0.174104         4    ;  uncertainty k = 0.159693
         4        11        10         5     9        0.000000        0.171220         1    ;  uncertainty k = 0.432161
         4        11        10         5     9      180.000000       11.967638         2    ;  uncertainty k = 1.294698
         4        11        10         5     9        0.000000       -9.909327         3    ;  uncertainty k = 1.605977
         4        11        10         5     9      180.000000        2.102653         4    ;  uncertainty k = 0.733398
         4        11        10         9     9        0.000000        0.079803         1    ;  uncertainty k = 1.313243
         4        11        10         9     9      180.000000        5.721978         2    ;  uncertainty k = 0.321426
         4        11        10         9     9        0.000000        0.431775         3    ;  uncertainty k = 0.611745
         4        11        10         9     9      180.000000        0.952472         4    ;  uncertainty k = 0.149862
         4        11        12        13     9        0.000000       -0.349976         1    ;  uncertainty k = 1.059919
         4        11        12        13     9      180.000000        1.470982         2    ;  uncertainty k = 0.379967
         4        11        12        13     9        0.000000        0.213574         3    ;  uncertainty k = 0.480671
         4        11        12        13     9      180.000000        0.121645         4    ;  uncertainty k = 0.162937
         4        11        12        23     9        0.000000        1.439359         1    ;  uncertainty k = 0.397283
         4        11        12        23     9      180.000000        2.614207         2    ;  uncertainty k = 0.334496
         4        11        12        23     9        0.000000        0.055715         3    ;  uncertainty k = 0.092065
         4        11        12        23     9      180.000000        0.180012         4    ;  uncertainty k = 0.123046
         4        11        12        24     9        0.000000        1.439359         1    ;  uncertainty k = 0.397283
         4        11        12        24     9      180.000000        2.614207         2    ;  uncertainty k = 0.334496
         4        11        12        24     9        0.000000        0.055715         3    ;  uncertainty k = 0.092065
         4        11        12        24     9      180.000000        0.180012         4    ;  uncertainty k = 0.123046
         4        43         5         6     9        0.000000        0.779094         1    ;  uncertainty k = 1.611142
         4        43         5         6     9      180.000000        6.072861         2    ;  uncertainty k = 1.235288
         4        43         5         6     9        0.000000        0.738725         3    ;  uncertainty k = 0.606503
         4        43         5         6     9      180.000000        0.313530         4    ;  uncertainty k = 0.310389
         4        43         5        10     9        0.000000       -0.304471         1    ;  uncertainty k = 0.989395
         4        43         5        10     9      180.000000       15.047901         2    ;  uncertainty k = 1.046721
         4        43         5        10     9        0.000000       -8.395770         3    ;  uncertainty k = 1.919282
         4        43         5        10     9      180.000000        0.648752         4    ;  uncertainty k = 0.607428
         5         6         7         8     9        0.000000       -0.007204         1    ;  uncertainty k = 0.352017
         5         6         7         8     9      180.000000       16.955015         2    ;  uncertainty k = 0.265826
         5         6         7         8     9        0.000000       -0.377243         3    ;  uncertainty k = 0.370601
         5         6         7         8     9      180.000000        0.608270         4    ;  uncertainty k = 0.292320
         5         6         7        20     9        0.000000        0.031156         1    ;  uncertainty k = 0.336940
         5         6         7        20     9      180.000000       10.941246         2    ;  uncertainty k = 0.419077
         5         6         7        20     9        0.000000        1.421256         3    ;  uncertainty k = 0.272944
         5         6         7        20     9      180.000000        1.557433         4    ;  uncertainty k = 0.258138
         5        10         9         8     9        0.000000        0.010948         1    ;  uncertainty k = 0.402869
         5        10         9         8     9      180.000000       13.710034         2    ;  uncertainty k = 0.163194
         5        10         9         8     9        0.000000       -1.521568         3    ;  uncertainty k = 0.300487
         5        10         9         8     9      180.000000        0.694567         4    ;  uncertainty k = 0.283041
         5        10         9        22     9        0.000000        0.253366         1    ;  uncertainty k = 0.171030
         5        10         9        22     9      180.000000        7.059567         2    ;  uncertainty k = 0.776058
         5        10         9        22     9        0.000000        1.466229         3    ;  uncertainty k = 0.353750
         5        10         9        22     9      180.000000        1.230009         4    ;  uncertainty k = 0.397540
         5        10        11        12     9        0.000000        1.338495         1    ;  uncertainty k = 1.087086
         5        10        11        12     9      180.000000       10.551108         2    ;  uncertainty k = 0.351316
         5        10        11        12     9        0.000000        1.801678         3    ;  uncertainty k = 0.392566
         5        10        11        12     9      180.000000        0.257171         4    ;  uncertainty k = 0.352643
         5        43         4        11     9        0.000000       -0.469081         1    ;  uncertainty k = 0.858054
         5        43         4        11     9      180.000000       14.635346         2    ;  uncertainty k = 0.621844
         5        43         4        11     9        0.000000       -5.847696         3    ;  uncertainty k = 1.154312
         5        43         4        11     9      180.000000        0.763949         4    ;  uncertainty k = 0.332867
         6         5        10         9     9        0.000000       -0.557459         1    ;  uncertainty k = 0.504536
         6         5        10         9     9      180.000000        7.175498         2    ;  uncertainty k = 0.762478
         6         5        10         9     9        0.000000        0.165063         3    ;  uncertainty k = 0.420578
         6         5        10         9     9      180.000000        0.902459         4    ;  uncertainty k = 0.405275
         6         5        10        11     9        0.000000       -0.095996         1    ;  uncertainty k = 0.579182
         6         5        10        11     9      180.000000        7.141608         2    ;  uncertainty k = 0.626861
         6         5        10        11     9        0.000000        0.190982         3    ;  uncertainty k = 0.555203
         6         5        10        11     9      180.000000        1.106105         4    ;  uncertainty k = 0.382286
         6         5        43        44     9        0.000000        1.556211         1    ;  uncertainty k = 0.864779
         6         5        43        44     9      180.000000        1.456879         2    ;  uncertainty k = 0.823313
         6         5        43        44     9        0.000000        1.223414         3    ;  uncertainty k = 0.515923
         6         5        43        44     9      180.000000        0.185999         4    ;  uncertainty k = 0.197024
         6         7         8         9     9        0.000000       -0.216392         1    ;  uncertainty k = 0.203221
         6         7         8         9     9      180.000000       12.688314         2    ;  uncertainty k = 0.287114
         6         7         8         9     9        0.000000       -0.841327         3    ;  uncertainty k = 0.664749
         6         7         8         9     9      180.000000        0.649352         4    ;  uncertainty k = 0.206451
         6         7         8        21     9        0.000000        0.020527         1    ;  uncertainty k = 0.059042
         6         7         8        21     9      180.000000        6.989280         2    ;  uncertainty k = 0.437421
         6         7         8        21     9        0.000000        1.365009         3    ;  uncertainty k = 0.283914
         6         7         8        21     9      180.000000        1.623914         4    ;  uncertainty k = 0.216596
         7         6         5        10     9        0.000000       -0.061762         1    ;  uncertainty k = 0.380516
         7         6         5        10     9      180.000000       12.578005         2    ;  uncertainty k = 0.240233
         7         6         5        10     9        0.000000       -1.274716         3    ;  uncertainty k = 0.208709
         7         6         5        10     9      180.000000        0.774303         4    ;  uncertainty k = 0.287170
         7         6         5        43     9        0.000000       -0.040937         1    ;  uncertainty k = 0.255560
         7         6         5        43     9      180.000000       11.252463         2    ;  uncertainty k = 0.580598
         7         6         5        43     9        0.000000        0.539336         3    ;  uncertainty k = 0.344721
         7         6         5        43     9      180.000000        1.022385         4    ;  uncertainty k = 0.303790
         7         8         9        10     9        0.000000        0.019920         1    ;  uncertainty k = 0.483038
         7         8         9        10     9      180.000000       16.879730         2    ;  uncertainty k = 0.325142
         7         8         9        10     9        0.000000       -0.454716         3    ;  uncertainty k = 0.474507
         7         8         9        10     9      180.000000        0.578125         4    ;  uncertainty k = 0.391909
         7         8         9        22     9        0.000000        0.168636         1    ;  uncertainty k = 0.193240
         7         8         9        22     9      180.000000        8.751745         2    ;  uncertainty k = 0.517235
         7         8         9        22     9        0.000000        1.537662         3    ;  uncertainty k = 0.246200
         7         8         9        22     9      180.000000        1.882842         4    ;  uncertainty k = 0.288260
         8         7         6        19     9        0.000000        0.165182         1    ;  uncertainty k = 0.216912
         8         7         6        19     9      180.000000        8.873569         2    ;  uncertainty k = 0.614610
         8         7         6        19     9        0.000000        1.622975         3    ;  uncertainty k = 0.261540
         8         7         6        19     9      180.000000        1.905453         4    ;  uncertainty k = 0.326822
         8         9        10        11     9        0.000000        0.249753         1    ;  uncertainty k = 0.103663
         8         9        10        11     9      180.000000        9.179070         2    ;  uncertainty k = 0.411370
         8         9        10        11     9        0.000000        0.517062         3    ;  uncertainty k = 0.430347
         8         9        10        11     9      180.000000        1.153234         4    ;  uncertainty k = 0.143424
         9         8         7        20     9        0.000000       -0.030439         1    ;  uncertainty k = 0.102038
         9         8         7        20     9      180.000000        6.901165         2    ;  uncertainty k = 0.417183
         9         8         7        20     9        0.000000        1.354655         3    ;  uncertainty k = 0.214825
         9         8         7        20     9      180.000000        1.587525         4    ;  uncertainty k = 0.176781
         9        10         5        43     9        0.000000       -0.032223         1    ;  uncertainty k = 0.572800
         9        10         5        43     9      180.000000        8.643799         2    ;  uncertainty k = 0.269496
         9        10         5        43     9        0.000000       -0.453955         3    ;  uncertainty k = 0.641368
         9        10         5        43     9      180.000000        1.174833         4    ;  uncertainty k = 0.384480
         9        10        11        12     9        0.000000        0.238961         1    ;  uncertainty k = 1.397644
         9        10        11        12     9      180.000000        5.787109         2    ;  uncertainty k = 0.469515
         9        10        11        12     9        0.000000        1.699642         3    ;  uncertainty k = 0.321923
         9        10        11        12     9      180.000000        0.173483         4    ;  uncertainty k = 0.188688
        10         5         6        19     9        0.000000        0.319122         1    ;  uncertainty k = 0.490757
        10         5         6        19     9      180.000000        6.345798         2    ;  uncertainty k = 0.822340
        10         5         6        19     9        0.000000        1.324954         3    ;  uncertainty k = 0.253224
        10         5         6        19     9      180.000000        1.101595         4    ;  uncertainty k = 0.359631
        10         5        43        44     9        0.000000        6.104771         1    ;  uncertainty k = 2.118850
        10         5        43        44     9      180.000000        4.638186         2    ;  uncertainty k = 1.440061
        10         5        43        44     9        0.000000        1.257718         3    ;  uncertainty k = 0.462506
        10         5        43        44     9      180.000000        0.319293         4    ;  uncertainty k = 0.097073
        10         9         8        21     9        0.000000        0.118303         1    ;  uncertainty k = 0.391732
        10         9         8        21     9      180.000000       10.979734         2    ;  uncertainty k = 0.363860
        10         9         8        21     9        0.000000        1.498292         3    ;  uncertainty k = 0.324461
        10         9         8        21     9      180.000000        1.658169         4    ;  uncertainty k = 0.294311
        10        11         4        43     9        0.000000       -0.343459         1    ;  uncertainty k = 0.628998
        10        11         4        43     9      180.000000       19.851697         2    ;  uncertainty k = 0.337386
        10        11         4        43     9        0.000000       -6.038290         3    ;  uncertainty k = 1.696783
        10        11         4        43     9      180.000000        1.027795         4    ;  uncertainty k = 0.436841
        10        11        12        13     9        0.000000       -0.219350         1    ;  uncertainty k = 1.004792
        10        11        12        13     9      180.000000        1.088397         2    ;  uncertainty k = 0.671793
        10        11        12        13     9        0.000000        0.696652         3    ;  uncertainty k = 0.268337
        10        11        12        13     9      180.000000        0.164044         4    ;  uncertainty k = 0.059900
        10        11        12        23     9        0.000000       -0.686921         1    ;  uncertainty k = 0.448582
        10        11        12        23     9      180.000000        2.071241         2    ;  uncertainty k = 0.415243
        10        11        12        23     9        0.000000        0.779274         3    ;  uncertainty k = 0.145606
        10        11        12        23     9      180.000000        0.211883         4    ;  uncertainty k = 0.077331
        10        11        12        24     9        0.000000       -0.686921         1    ;  uncertainty k = 0.448582
        10        11        12        24     9      180.000000        2.071241         2    ;  uncertainty k = 0.415243
        10        11        12        24     9        0.000000        0.779274         3    ;  uncertainty k = 0.145606
        10        11        12        24     9      180.000000        0.211883         4    ;  uncertainty k = 0.077331
        11         4        43        44     9        0.000000        3.994326         1    ;  uncertainty k = 2.809201
        11         4        43        44     9      180.000000        7.262693         2    ;  uncertainty k = 0.379220
        11         4        43        44     9        0.000000        1.858365         3    ;  uncertainty k = 0.686233
        11         4        43        44     9      180.000000       -0.114664         4    ;  uncertainty k = 0.351651
        11        10         5        43     9        0.000000       -0.200093         1    ;  uncertainty k = 0.424326
        11        10         5        43     9      180.000000       12.998296         2    ;  uncertainty k = 0.637101
        11        10         5        43     9        0.000000       -4.487286         3    ;  uncertainty k = 1.787354
        11        10         5        43     9      180.000000        1.376048         4    ;  uncertainty k = 0.852459
        11        10         9        22     9        0.000000        0.623609         1    ;  uncertainty k = 0.818827
        11        10         9        22     9      180.000000        5.597100         2    ;  uncertainty k = 0.476519
        11        10         9        22     9        0.000000        1.146276         3    ;  uncertainty k = 0.356005
        11        10         9        22     9      180.000000        0.780142         4    ;  uncertainty k = 0.277118
        11        12        13        14     9        0.000000       -2.801316         1    ;  uncertainty k = 1.004069
        11        12        13        14     9      180.000000       -0.438589         2    ;  uncertainty k = 0.389402
        11        12        13        14     9        0.000000        1.347280         3    ;  uncertainty k = 0.125819
        11        12        13        14     9      180.000000       -0.311705         4    ;  uncertainty k = 0.110454
        11        12        13        25     9        0.000000        0.428587         1    ;  uncertainty k = 0.616136
        11        12        13        25     9      180.000000       -0.329644         2    ;  uncertainty k = 0.354693
        11        12        13        25     9        0.000000        1.117197         3    ;  uncertainty k = 0.164143
        11        12        13        25     9      180.000000        0.004866         4    ;  uncertainty k = 0.054513
        11        12        13        26     9        0.000000        0.428587         1    ;  uncertainty k = 0.616136
        11        12        13        26     9      180.000000       -0.329644         2    ;  uncertainty k = 0.354693
        11        12        13        26     9        0.000000        1.117197         3    ;  uncertainty k = 0.164143
        11        12        13        26     9      180.000000        0.004866         4    ;  uncertainty k = 0.054513
        12        11         4        43     9        0.000000        0.421908         1    ;  uncertainty k = 0.686279
        12        11         4        43     9      180.000000       16.338015         2    ;  uncertainty k = 0.475382
        12        11         4        43     9        0.000000        1.239769         3    ;  uncertainty k = 0.508643
        12        11         4        43     9      180.000000        0.759832         4    ;  uncertainty k = 0.322483
        12        13        14        15     9        0.000000       -3.925304         1    ;  uncertainty k = 1.235010
        12        13        14        15     9      180.000000       -2.470612         2    ;  uncertainty k = 0.458853
        12        13        14        15     9        0.000000        2.177976         3    ;  uncertainty k = 0.265227
        12        13        14        15     9      180.000000       -0.470335         4    ;  uncertainty k = 0.157336
        12        13        14        27     9        0.000000       -1.871137         1    ;  uncertainty k = 0.468510
        12        13        14        27     9      180.000000        0.095219         2    ;  uncertainty k = 0.232744
        12        13        14        27     9        0.000000        0.932549         3    ;  uncertainty k = 0.065165
        12        13        14        27     9      180.000000       -0.360169         4    ;  uncertainty k = 0.102632
        12        13        14        28     9        0.000000       -1.871137         1    ;  uncertainty k = 0.468510
        12        13        14        28     9      180.000000        0.095219         2    ;  uncertainty k = 0.232744
        12        13        14        28     9        0.000000        0.932549         3    ;  uncertainty k = 0.065165
        12        13        14        28     9      180.000000       -0.360169         4    ;  uncertainty k = 0.102632
        13        14        15        16     9        0.000000       -1.255330         1    ;  uncertainty k = 0.499188
        13        14        15        16     9      180.000000       -0.186328         2    ;  uncertainty k = 0.235544
        13        14        15        16     9        0.000000        0.761402         3    ;  uncertainty k = 0.092164
        13        14        15        16     9      180.000000        0.494681         4    ;  uncertainty k = 0.073816
        14        13        12        23     9        0.000000       -1.678232         1    ;  uncertainty k = 0.372685
        14        13        12        23     9      180.000000       -0.600433         2    ;  uncertainty k = 0.296124
        14        13        12        23     9        0.000000        0.946218         3    ;  uncertainty k = 0.127818
        14        13        12        23     9      180.000000       -0.352632         4    ;  uncertainty k = 0.063041
        14        13        12        24     9        0.000000       -1.678232         1    ;  uncertainty k = 0.372685
        14        13        12        24     9      180.000000       -0.600433         2    ;  uncertainty k = 0.296124
        14        13        12        24     9        0.000000        0.946218         3    ;  uncertainty k = 0.127818
        14        13        12        24     9      180.000000       -0.352632         4    ;  uncertainty k = 0.063041
        14        15        16        18     9        0.000000        1.254264         1    ;  uncertainty k = 0.596527
        14        15        16        18     9      180.000000        7.114522         2    ;  uncertainty k = 0.167289
        14        15        16        18     9        0.000000        1.029630         3    ;  uncertainty k = 0.079913
        14        15        16        18     9      180.000000        0.186772         4    ;  uncertainty k = 0.051309
        14        15        16        30     9        0.000000       -0.153666         1    ;  uncertainty k = 0.663378
        14        15        16        30     9      180.000000        7.018006         2    ;  uncertainty k = 0.092835
        14        15        16        30     9        0.000000        0.263564         3    ;  uncertainty k = 0.131409
        14        15        16        30     9      180.000000        0.195938         4    ;  uncertainty k = 0.058669
        15        14        13        25     9        0.000000        0.241708         1    ;  uncertainty k = 0.521415
        15        14        13        25     9      180.000000       -2.139064         2    ;  uncertainty k = 0.276483
        15        14        13        25     9        0.000000        1.416970         3    ;  uncertainty k = 0.091085
        15        14        13        25     9      180.000000        0.040632         4    ;  uncertainty k = 0.071523
        15        14        13        26     9        0.000000        0.241708         1    ;  uncertainty k = 0.521415
        15        14        13        26     9      180.000000       -2.139064         2    ;  uncertainty k = 0.276483
        15        14        13        26     9        0.000000        1.416970         3    ;  uncertainty k = 0.091085
        15        14        13        26     9      180.000000        0.040632         4    ;  uncertainty k = 0.071523
        15        16        18        17     9        0.000000        0.229603         1    ;  uncertainty k = 0.304759
        15        16        18        17     9      180.000000        9.437953         2    ;  uncertainty k = 0.543404
        15        16        18        17     9        0.000000        1.125294         3    ;  uncertainty k = 0.255493
        15        16        18        17     9      180.000000        1.491314         4    ;  uncertainty k = 0.239536
        15        16        18        29     9        0.000000       -0.146645         1    ;  uncertainty k = 0.239569
        15        16        18        29     9      180.000000        8.015440         2    ;  uncertainty k = 0.310943
        15        16        18        29     9        0.000000        0.675786         3    ;  uncertainty k = 0.132667
        15        16        18        29     9      180.000000        0.956072         4    ;  uncertainty k = 0.195764
        15        16        30        32     9        0.000000       -0.100830         1    ;  uncertainty k = 0.364734
        15        16        30        32     9      180.000000       13.253977         2    ;  uncertainty k = 0.235666
        15        16        30        32     9        0.000000        1.231053         3    ;  uncertainty k = 0.186411
        15        16        30        32     9      180.000000        1.513243         4    ;  uncertainty k = 0.161279
        15        16        30        42     9        0.000000       -0.089901         1    ;  uncertainty k = 0.219681
        15        16        30        42     9      180.000000        9.814916         2    ;  uncertainty k = 0.379558
        15        16        30        42     9        0.000000        0.844099         3    ;  uncertainty k = 0.096394
        15        16        30        42     9      180.000000        1.139386         4    ;  uncertainty k = 0.263982
        16        15        14        27     9        0.000000        0.535430         1    ;  uncertainty k = 0.332471
        16        15        14        27     9      180.000000       -1.178675         2    ;  uncertainty k = 0.122503
        16        15        14        27     9        0.000000        0.568594         3    ;  uncertainty k = 0.049308
        16        15        14        27     9      180.000000        0.270843         4    ;  uncertainty k = 0.055921
        16        15        14        28     9        0.000000        0.535430         1    ;  uncertainty k = 0.332471
        16        15        14        28     9      180.000000       -1.178675         2    ;  uncertainty k = 0.122503
        16        15        14        28     9        0.000000        0.568594         3    ;  uncertainty k = 0.049308
        16        15        14        28     9      180.000000        0.270843         4    ;  uncertainty k = 0.055921
        16        18        17        31     9        0.000000       -0.066647         1    ;  uncertainty k = 0.166011
        16        18        17        31     9      180.000000        9.783434         2    ;  uncertainty k = 0.492803
        16        18        17        31     9        0.000000        1.319185         3    ;  uncertainty k = 0.438025
        16        18        17        31     9      180.000000        1.850935         4    ;  uncertainty k = 0.270605
        16        18        17        33     9        0.000000       -0.248072         1    ;  uncertainty k = 0.251017
        16        18        17        33     9      180.000000       15.947638         2    ;  uncertainty k = 0.298770
        16        18        17        33     9        0.000000       -0.415720         3    ;  uncertainty k = 0.438852
        16        18        17        33     9      180.000000        0.893099         4    ;  uncertainty k = 0.267985
        16        30        32        33     9        0.000000       -0.282775         1    ;  uncertainty k = 0.450884
        16        30        32        33     9      180.000000       10.606846         2    ;  uncertainty k = 0.516051
        16        30        32        33     9        0.000000       -0.084166         3    ;  uncertainty k = 0.260571
        16        30        32        33     9      180.000000        1.099289         4    ;  uncertainty k = 0.205439
        16        30        32        37     9        0.000000       -0.044972         1    ;  uncertainty k = 0.362153
        16        30        32        37     9      180.000000        9.302892         2    ;  uncertainty k = 0.231891
        16        30        32        37     9        0.000000        0.709350         3    ;  uncertainty k = 0.344808
        16        30        32        37     9      180.000000        1.419233         4    ;  uncertainty k = 0.075160
        17        18        16        30     9        0.000000       -0.050212         1    ;  uncertainty k = 0.512919
        17        18        16        30     9      180.000000        7.014545         2    ;  uncertainty k = 0.860711
        17        18        16        30     9        0.000000        0.188970         3    ;  uncertainty k = 0.360382
        17        18        16        30     9      180.000000        1.205778         4    ;  uncertainty k = 0.260618
        17        33        32        30     9        0.000000       -0.237274         1    ;  uncertainty k = 0.176237
        17        33        32        30     9      180.000000        7.364018         2    ;  uncertainty k = 0.597130
        17        33        32        30     9        0.000000        0.331823         3    ;  uncertainty k = 0.303899
        17        33        32        30     9      180.000000        1.485514         4    ;  uncertainty k = 0.303821
        17        33        32        37     9        0.000000       -0.245183         1    ;  uncertainty k = 0.209425
        17        33        32        37     9      180.000000        7.171218         2    ;  uncertainty k = 0.634888
        17        33        32        37     9        0.000000        0.308800         3    ;  uncertainty k = 0.221946
        17        33        32        37     9      180.000000        1.482717         4    ;  uncertainty k = 0.311492
        17        33        34        35     9        0.000000       -0.058794         1    ;  uncertainty k = 0.414801
        17        33        34        35     9      180.000000        9.213405         2    ;  uncertainty k = 0.295376
        17        33        34        35     9        0.000000        0.379706         3    ;  uncertainty k = 0.262512
        17        33        34        35     9      180.000000        1.418768         4    ;  uncertainty k = 0.108771
        17        33        34        38     9        0.000000       -0.134192         1    ;  uncertainty k = 0.139100
        17        33        34        38     9      180.000000        6.512772         2    ;  uncertainty k = 0.474788
        17        33        34        38     9        0.000000        1.185781         3    ;  uncertainty k = 0.236933
        17        33        34        38     9      180.000000        1.111365         4    ;  uncertainty k = 0.144467
        18        16        30        32     9        0.000000        0.082349         1    ;  uncertainty k = 0.436043
        18        16        30        32     9      180.000000       10.504995         2    ;  uncertainty k = 0.532245
        18        16        30        32     9        0.000000        0.476661         3    ;  uncertainty k = 0.380014
        18        16        30        32     9      180.000000        1.346097         4    ;  uncertainty k = 0.336725
        18        16        30        42     9        0.000000        0.421832         1    ;  uncertainty k = 0.312528
        18        16        30        42     9      180.000000        7.263754         2    ;  uncertainty k = 0.402997
        18        16        30        42     9        0.000000        1.593106         3    ;  uncertainty k = 0.369897
        18        16        30        42     9      180.000000        1.693818         4    ;  uncertainty k = 0.130444
        18        17        33        32     9        0.000000        0.090974         1    ;  uncertainty k = 0.323196
        18        17        33        32     9      180.000000       10.562583         2    ;  uncertainty k = 0.334993
        18        17        33        32     9        0.000000       -0.464873         3    ;  uncertainty k = 0.349045
        18        17        33        32     9      180.000000        1.050265         4    ;  uncertainty k = 0.190866
        18        17        33        34     9        0.000000       -0.122702         1    ;  uncertainty k = 0.568517
        18        17        33        34     9      180.000000        9.129560         2    ;  uncertainty k = 0.347500
        18        17        33        34     9        0.000000        0.362634         3    ;  uncertainty k = 0.328212
        18        17        33        34     9      180.000000        1.440224         4    ;  uncertainty k = 0.086074
        19         6         5        43     9        0.000000        0.248356         1    ;  uncertainty k = 0.309441
        19         6         5        43     9      180.000000        6.219890         2    ;  uncertainty k = 0.560809
        19         6         5        43     9        0.000000        1.223843         3    ;  uncertainty k = 0.395076
        19         6         5        43     9      180.000000        0.794522         4    ;  uncertainty k = 0.403871
        19         6         7        20     9        0.000000        0.067635         1    ;  uncertainty k = 0.257851
        19         6         7        20     9      180.000000        7.678575         2    ;  uncertainty k = 0.249765
        19         6         7        20     9        0.000000       -0.249178         3    ;  uncertainty k = 0.224083
        19         6         7        20     9      180.000000        0.128053         4    ;  uncertainty k = 0.127116
        20         7         8        21     9        0.000000        0.024825         1    ;  uncertainty k = 0.154579
        20         7         8        21     9      180.000000        6.825470         2    ;  uncertainty k = 0.478217
        20         7         8        21     9        0.000000       -0.239724         3    ;  uncertainty k = 0.197508
        20         7         8        21     9      180.000000        0.091582         4    ;  uncertainty k = 0.138206
        21         8         9        22     9        0.000000        0.081241         1    ;  uncertainty k = 0.094303
        21         8         9        22     9      180.000000        7.822590         2    ;  uncertainty k = 0.225676
        21         8         9        22     9        0.000000       -0.195366         3    ;  uncertainty k = 0.265935
        21         8         9        22     9      180.000000        0.166865         4    ;  uncertainty k = 0.178530
        23        12        13        25     9        0.000000        0.852998         1    ;  uncertainty k = 0.162312
        23        12        13        25     9      180.000000       -0.684815         2    ;  uncertainty k = 0.290805
        23        12        13        25     9        0.000000        0.190526         3    ;  uncertainty k = 0.067767
        23        12        13        25     9      180.000000        0.009351         4    ;  uncertainty k = 0.042473
        23        12        13        26     9        0.000000        0.852998         1    ;  uncertainty k = 0.162312
        23        12        13        26     9      180.000000       -0.684815         2    ;  uncertainty k = 0.290805
        23        12        13        26     9        0.000000        0.190526         3    ;  uncertainty k = 0.067767
        23        12        13        26     9      180.000000        0.009351         4    ;  uncertainty k = 0.042473
        24        12        13        25     9        0.000000        0.852998         1    ;  uncertainty k = 0.162312
        24        12        13        25     9      180.000000       -0.684815         2    ;  uncertainty k = 0.290805
        24        12        13        25     9        0.000000        0.190526         3    ;  uncertainty k = 0.067767
        24        12        13        25     9      180.000000        0.009351         4    ;  uncertainty k = 0.042473
        24        12        13        26     9        0.000000        0.852998         1    ;  uncertainty k = 0.162312
        24        12        13        26     9      180.000000       -0.684815         2    ;  uncertainty k = 0.290805
        24        12        13        26     9        0.000000        0.190526         3    ;  uncertainty k = 0.067767
        24        12        13        26     9      180.000000        0.009351         4    ;  uncertainty k = 0.042473
        25        13        14        27     9        0.000000        0.460521         1    ;  uncertainty k = 0.143277
        25        13        14        27     9      180.000000       -0.427398         2    ;  uncertainty k = 0.142610
        25        13        14        27     9        0.000000        0.096106         3    ;  uncertainty k = 0.072629
        25        13        14        27     9      180.000000       -0.037865         4    ;  uncertainty k = 0.076001
        25        13        14        28     9        0.000000        0.460521         1    ;  uncertainty k = 0.143277
        25        13        14        28     9      180.000000       -0.427398         2    ;  uncertainty k = 0.142610
        25        13        14        28     9        0.000000        0.096106         3    ;  uncertainty k = 0.072629
        25        13        14        28     9      180.000000       -0.037865         4    ;  uncertainty k = 0.076001
        26        13        14        27     9        0.000000        0.460521         1    ;  uncertainty k = 0.143277
        26        13        14        27     9      180.000000       -0.427398         2    ;  uncertainty k = 0.142610
        26        13        14        27     9        0.000000        0.096106         3    ;  uncertainty k = 0.072629
        26        13        14        27     9      180.000000       -0.037865         4    ;  uncertainty k = 0.076001
        26        13        14        28     9        0.000000        0.460521         1    ;  uncertainty k = 0.143277
        26        13        14        28     9      180.000000       -0.427398         2    ;  uncertainty k = 0.142610
        26        13        14        28     9        0.000000        0.096106         3    ;  uncertainty k = 0.072629
        26        13        14        28     9      180.000000       -0.037865         4    ;  uncertainty k = 0.076001
        29        18        16        30     9        0.000000        0.173575         1    ;  uncertainty k = 0.324291
        29        18        16        30     9      180.000000        5.460575         2    ;  uncertainty k = 0.688494
        29        18        16        30     9        0.000000        1.248061         3    ;  uncertainty k = 0.207050
        29        18        16        30     9      180.000000        1.404625         4    ;  uncertainty k = 0.102901
        29        18        17        31     9        0.000000        0.007111         1    ;  uncertainty k = 0.263403
        29        18        17        31     9      180.000000        8.555072         2    ;  uncertainty k = 0.439590
        29        18        17        31     9        0.000000       -0.249683         3    ;  uncertainty k = 0.282703
        29        18        17        31     9      180.000000        0.241715         4    ;  uncertainty k = 0.206713
        29        18        17        33     9        0.000000        0.109666         1    ;  uncertainty k = 0.149970
        29        18        17        33     9      180.000000       10.328187         2    ;  uncertainty k = 0.263531
        29        18        17        33     9        0.000000        1.626250         3    ;  uncertainty k = 0.290153
        29        18        17        33     9      180.000000        1.841126         4    ;  uncertainty k = 0.211419
        30        32        33        34     9        0.000000       -0.201650         1    ;  uncertainty k = 0.122153
        30        32        33        34     9      180.000000        7.328604         2    ;  uncertainty k = 0.572390
        30        32        33        34     9        0.000000        0.339138         3    ;  uncertainty k = 0.302855
        30        32        33        34     9      180.000000        1.459894         4    ;  uncertainty k = 0.290651
        30        32        37        36     9        0.000000       -0.095070         1    ;  uncertainty k = 0.441338
        30        32        37        36     9      180.000000        9.549265         2    ;  uncertainty k = 0.145176
        30        32        37        36     9        0.000000        0.332919         3    ;  uncertainty k = 0.278823
        30        32        37        36     9      180.000000        1.390154         4    ;  uncertainty k = 0.164657
        30        32        37        41     9        0.000000       -0.027698         1    ;  uncertainty k = 0.382215
        30        32        37        41     9      180.000000        6.662779         2    ;  uncertainty k = 0.326615
        30        32        37        41     9        0.000000        1.201293         3    ;  uncertainty k = 0.231967
        30        32        37        41     9      180.000000        1.178550         4    ;  uncertainty k = 0.151494
        31        17        33        32     9        0.000000       -0.158419         1    ;  uncertainty k = 0.622893
        31        17        33        32     9      180.000000        6.378329         2    ;  uncertainty k = 0.497115
        31        17        33        32     9        0.000000        1.227692         3    ;  uncertainty k = 0.230471
        31        17        33        32     9      180.000000        1.173116         4    ;  uncertainty k = 0.101116
        31        17        33        34     9        0.000000       -0.289595         1    ;  uncertainty k = 0.181635
        31        17        33        34     9      180.000000        6.460416         2    ;  uncertainty k = 0.430756
        31        17        33        34     9        0.000000        1.134560         3    ;  uncertainty k = 0.240582
        31        17        33        34     9      180.000000        1.069943         4    ;  uncertainty k = 0.144612
        32        33        34        35     9        0.000000        0.042061         1    ;  uncertainty k = 0.320938
        32        33        34        35     9      180.000000       10.802937         2    ;  uncertainty k = 0.254007
        32        33        34        35     9        0.000000       -0.450682         3    ;  uncertainty k = 0.375229
        32        33        34        35     9      180.000000        1.025266         4    ;  uncertainty k = 0.196594
        32        33        34        38     9        0.000000       -0.029226         1    ;  uncertainty k = 0.511746
        32        33        34        38     9      180.000000        6.419451         2    ;  uncertainty k = 0.432459
        32        33        34        38     9        0.000000        1.305725         3    ;  uncertainty k = 0.246735
        32        33        34        38     9      180.000000        1.225376         4    ;  uncertainty k = 0.101779
        32        37        36        35     9        0.000000       -0.016710         1    ;  uncertainty k = 0.476675
        32        37        36        35     9      180.000000       16.646834         2    ;  uncertainty k = 0.270264
        32        37        36        35     9        0.000000       -0.508974         3    ;  uncertainty k = 0.389043
        32        37        36        35     9      180.000000        0.689254         4    ;  uncertainty k = 0.312632
        32        37        36        40     9        0.000000        0.158209         1    ;  uncertainty k = 0.213138
        32        37        36        40     9      180.000000       10.175907         2    ;  uncertainty k = 0.240103
        32        37        36        40     9        0.000000        1.612165         3    ;  uncertainty k = 0.341122
        32        37        36        40     9      180.000000        1.792769         4    ;  uncertainty k = 0.213560
        33        32        30        42     9        0.000000        0.016266         1    ;  uncertainty k = 0.498098
        33        32        30        42     9      180.000000        6.690721         2    ;  uncertainty k = 0.452396
        33        32        30        42     9        0.000000        1.436181         3    ;  uncertainty k = 0.222643
        33        32        30        42     9      180.000000        1.257778         4    ;  uncertainty k = 0.244982
        33        32        37        36     9        0.000000        0.034981         1    ;  uncertainty k = 0.254020
        33        32        37        36     9      180.000000       10.696340         2    ;  uncertainty k = 0.296000
        33        32        37        36     9        0.000000       -0.443189         3    ;  uncertainty k = 0.301342
        33        32        37        36     9      180.000000        1.044787         4    ;  uncertainty k = 0.211239
        33        32        37        41     9        0.000000       -0.049668         1    ;  uncertainty k = 0.446619
        33        32        37        41     9      180.000000        6.423005         2    ;  uncertainty k = 0.370270
        33        32        37        41     9        0.000000        1.357169         3    ;  uncertainty k = 0.273652
        33        32        37        41     9      180.000000        1.254861         4    ;  uncertainty k = 0.099560
        33        34        35        36     9        0.000000       -0.055027         1    ;  uncertainty k = 0.459897
        33        34        35        36     9      180.000000       16.368096         2    ;  uncertainty k = 0.286901
        33        34        35        36     9        0.000000       -0.513258         3    ;  uncertainty k = 0.401691
        33        34        35        36     9      180.000000        0.722675         4    ;  uncertainty k = 0.293432
        33        34        35        39     9        0.000000        0.172323         1    ;  uncertainty k = 0.184420
        33        34        35        39     9      180.000000       10.165190         2    ;  uncertainty k = 0.245768
        33        34        35        39     9        0.000000        1.628681         3    ;  uncertainty k = 0.296536
        33        34        35        39     9      180.000000        1.796140         4    ;  uncertainty k = 0.195965
        34        33        32        37     9        0.000000       -0.213806         1    ;  uncertainty k = 0.189810
        34        33        32        37     9      180.000000        7.140756         2    ;  uncertainty k = 0.597009
        34        33        32        37     9        0.000000        0.339324         3    ;  uncertainty k = 0.226003
        34        33        32        37     9      180.000000        1.465735         4    ;  uncertainty k = 0.290402
        34        35        36        37     9        0.000000       -0.113012         1    ;  uncertainty k = 0.140504
        34        35        36        37     9      180.000000       11.386545         2    ;  uncertainty k = 0.377507
        34        35        36        37     9        0.000000       -0.792970         3    ;  uncertainty k = 0.632145
        34        35        36        37     9      180.000000        0.714532         4    ;  uncertainty k = 0.238487
        34        35        36        40     9        0.000000        0.030097         1    ;  uncertainty k = 0.356227
        34        35        36        40     9      180.000000        6.599526         2    ;  uncertainty k = 0.610540
        34        35        36        40     9        0.000000        1.355787         3    ;  uncertainty k = 0.277233
        34        35        36        40     9      180.000000        1.495612         4    ;  uncertainty k = 0.120581
        35        36        37        41     9        0.000000        0.141572         1    ;  uncertainty k = 0.102571
        35        36        37        41     9      180.000000        9.611600         2    ;  uncertainty k = 0.359561
        35        36        37        41     9        0.000000        1.441247         3    ;  uncertainty k = 0.306728
        35        36        37        41     9      180.000000        1.934187         4    ;  uncertainty k = 0.277765
        36        35        34        38     9        0.000000        0.146495         1    ;  uncertainty k = 0.104036
        36        35        34        38     9      180.000000        9.624936         2    ;  uncertainty k = 0.392983
        36        35        34        38     9        0.000000        1.438971         3    ;  uncertainty k = 0.324296
        36        35        34        38     9      180.000000        1.926856         4    ;  uncertainty k = 0.279876
        37        32        30        42     9        0.000000        0.069516         1    ;  uncertainty k = 0.231821
        37        32        30        42     9      180.000000        6.794613         2    ;  uncertainty k = 0.614449
        37        32        30        42     9        0.000000        1.183838         3    ;  uncertainty k = 0.216928
        37        32        30        42     9      180.000000        1.148671         4    ;  uncertainty k = 0.172126
        37        36        35        39     9        0.000000        0.060100         1    ;  uncertainty k = 0.362448
        37        36        35        39     9      180.000000        6.585345         2    ;  uncertainty k = 0.606576
        37        36        35        39     9        0.000000        1.363802         3    ;  uncertainty k = 0.283031
        37        36        35        39     9      180.000000        1.500599         4    ;  uncertainty k = 0.116178
        38        34        35        39     9        0.000000        0.036821         1    ;  uncertainty k = 0.245351
        38        34        35        39     9      180.000000        8.718124         2    ;  uncertainty k = 0.362112
        38        34        35        39     9        0.000000       -0.277733         3    ;  uncertainty k = 0.247461
        38        34        35        39     9      180.000000        0.193274         4    ;  uncertainty k = 0.199432
        39        35        36        40     9        0.000000       -0.068324         1    ;  uncertainty k = 0.227982
        39        35        36        40     9      180.000000        6.630714         2    ;  uncertainty k = 0.507768
        39        35        36        40     9        0.000000       -0.214779         3    ;  uncertainty k = 0.300775
        39        35        36        40     9      180.000000        0.131126         4    ;  uncertainty k = 0.122866
        40        36        37        41     9        0.000000        0.002859         1    ;  uncertainty k = 0.241564
        40        36        37        41     9      180.000000        8.703024         2    ;  uncertainty k = 0.374613
        40        36        37        41     9        0.000000       -0.274608         3    ;  uncertainty k = 0.249423
        40        36        37        41     9      180.000000        0.187676         4    ;  uncertainty k = 0.201426

[ dihedrals ] ; impropers
;       ai        aj        ak        al funct           phase               k        pn
         2         1         3         4     4      180.000000       64.265870         2    ;  uncertainty k = 0.050254
         2         3         4         1     4      180.000000       64.265870         2    ;  uncertainty k = 0.050254
         2         4         1         3     4      180.000000       64.265870         2    ;  uncertainty k = 0.050254
         4         2        11        43     4      180.000000        5.876961         2    ;  uncertainty k = 0.526652
         4        11        43         2     4      180.000000        5.876961         2    ;  uncertainty k = 0.526652
         4        43         2        11     4      180.000000        5.876961         2    ;  uncertainty k = 0.526652
         5         6        10        43     4      180.000000        1.057348         2    ;  uncertainty k = 0.904202
         5        10        43         6     4      180.000000        1.057348         2    ;  uncertainty k = 0.904202
         5        43         6        10     4      180.000000        1.057348         2    ;  uncertainty k = 0.904202
         6         5         7        19     4      180.000000        2.336037         2    ;  uncertainty k = 0.300690
         6         7        19         5     4      180.000000        2.336037         2    ;  uncertainty k = 0.300690
         6        19         5         7     4      180.000000        2.336037         2    ;  uncertainty k = 0.300690
         7         6         8        20     4      180.000000        3.761581         2    ;  uncertainty k = 0.188539
         7         8        20         6     4      180.000000        3.761581         2    ;  uncertainty k = 0.188539
         7        20         6         8     4      180.000000        3.761581         2    ;  uncertainty k = 0.188539
         8         7         9        21     4      180.000000        3.007353         2    ;  uncertainty k = 0.125347
         8         9        21         7     4      180.000000        3.007353         2    ;  uncertainty k = 0.125347
         8        21         7         9     4      180.000000        3.007353         2    ;  uncertainty k = 0.125347
         9         8        10        22     4      180.000000        4.051631         2    ;  uncertainty k = 0.159442
         9        10        22         8     4      180.000000        4.051631         2    ;  uncertainty k = 0.159442
         9        22         8        10     4      180.000000        4.051631         2    ;  uncertainty k = 0.159442
        11         4        10        12     4      180.000000        2.099178         2    ;  uncertainty k = 0.534873
        11        10        12         4     4      180.000000        2.099178         2    ;  uncertainty k = 0.534873
        11        12         4        10     4      180.000000        2.099178         2    ;  uncertainty k = 0.534873
        16        15        18        30     4      180.000000       19.592475         2    ;  uncertainty k = 0.072961
        16        18        30        15     4      180.000000       19.592475         2    ;  uncertainty k = 0.072961
        16        30        15        18     4      180.000000       19.592475         2    ;  uncertainty k = 0.072961
        17        18        31        33     4      180.000000        4.441791         2    ;  uncertainty k = 0.100880
        17        31        33        18     4      180.000000        4.441791         2    ;  uncertainty k = 0.100880
        17        33        18        31     4      180.000000        4.441791         2    ;  uncertainty k = 0.100880
        18        16        17        29     4      180.000000        2.532452         2    ;  uncertainty k = 0.160414
        18        17        29        16     4      180.000000        2.532452         2    ;  uncertainty k = 0.160414
        18        29        16        17     4      180.000000        2.532452         2    ;  uncertainty k = 0.160414
        30        16        32        42     4      180.000000        2.584651         2    ;  uncertainty k = 0.295026
        30        32        42        16     4      180.000000        2.584651         2    ;  uncertainty k = 0.295026
        30        42        16        32     4      180.000000        2.584651         2    ;  uncertainty k = 0.295026
        32        30        33        37     4      180.000000        9.542775         2    ;  uncertainty k = 0.158309
        32        33        37        30     4      180.000000        9.542775         2    ;  uncertainty k = 0.158309
        32        37        30        33     4      180.000000        9.542775         2    ;  uncertainty k = 0.158309
        33        17        32        34     4      180.000000        7.746143         2    ;  uncertainty k = 0.216642
        33        32        34        17     4      180.000000        7.746143         2    ;  uncertainty k = 0.216642
        33        34        17        32     4      180.000000        7.746143         2    ;  uncertainty k = 0.216642
        34        33        35        38     4      180.000000        4.137668         2    ;  uncertainty k = 0.112452
        34        35        38        33     4      180.000000        4.137668         2    ;  uncertainty k = 0.112452
        34        38        33        35     4      180.000000        4.137668         2    ;  uncertainty k = 0.112452
        35        34        36        39     4      180.000000        4.430867         2    ;  uncertainty k = 0.061720
        35        36        39        34     4      180.000000        4.430867         2    ;  uncertainty k = 0.061720
        35        39        34        36     4      180.000000        4.430867         2    ;  uncertainty k = 0.061720
        36        35        37        40     4      180.000000        4.494034         2    ;  uncertainty k = 0.070664
        36        37        40        35     4      180.000000        4.494034         2    ;  uncertainty k = 0.070664
        36        40        35        37     4      180.000000        4.494034         2    ;  uncertainty k = 0.070664
        37        32        36        41     4      180.000000        3.875780         2    ;  uncertainty k = 0.112284
        37        36        41        32     4      180.000000        3.875780         2    ;  uncertainty k = 0.112284
        37        41        32        36     4      180.000000        3.875780         2    ;  uncertainty k = 0.112284

[ pairs ]
;       ai        aj funct
         1        11     1
         1        43     1
         2         5     1
         2        10     1
         2        12     1
         2        44     1
         3        11     1
         3        43     1
         4         6     1
         4         9     1
         4        13     1
         4        23     1
         4        24     1
         5         8     1
         5        12     1
         5        20     1
         5        22     1
         6         9     1
         6        11     1
         6        21     1
         6        44     1
         7        10     1
         7        22     1
         7        43     1
         8        11     1
         8        19     1
         9        12     1
         9        20     1
         9        43     1
        10        13     1
        10        19     1
        10        21     1
        10        23     1
        10        24     1
        10        44     1
        11        14     1
        11        22     1
        11        25     1
        11        26     1
        11        44     1
        12        15     1
        12        27     1
        12        28     1
        12        43     1
        13        16     1
        14        18     1
        14        23     1
        14        24     1
        14        30     1
        15        17     1
        15        25     1
        15        26     1
        15        29     1
        15        32     1
        15        42     1
        16        27     1
        16        28     1
        16        31     1
        16        33     1
        16        37     1
        17        30     1
        17        35     1
        17        37     1
        17        38     1
        18        32     1
        18        34     1
        18        42     1
        19        20     1
        19        43     1
        20        21     1
        21        22     1
        23        25     1
        23        26     1
        24        25     1
        24        26     1
        25        27     1
        25        28     1
        26        27     1
        26        28     1
        29        30     1
        29        31     1
        29        33     1
        30        34     1
        30        36     1
        30        41     1
        31        32     1
        31        34     1
        32        35     1
        32        38     1
        32        40     1
        33        36     1
        33        39     1
        33        41     1
        33        42     1
        34        37     1
        34        40     1
        35        41     1
        36        38     1
        37        39     1
        37        42     1
        38        39     1
        39        40     1
        40        41     1
