; ITP file created by ByteFF-joint-25, 2026-02-17 09:18:13.400022

[ atomtypes ]
;name           bonded.type        at.num        mass        charge   ptype           sigma         epsilon
 o0bf                                   8      0.0000       0.00000       A     3.04807e-01     6.12065e-01    ;  uncertainty sigma = 0.000018, epsilon = 0.000616
 c1bf                                   6      0.0000       0.00000       A     3.31436e-01     4.13701e-01    ;  uncertainty sigma = 0.000034, epsilon = 0.002275
 o2bf                                   8      0.0000       0.00000       A     3.04807e-01     6.12065e-01    ;  uncertainty sigma = 0.000018, epsilon = 0.000616
 c3bf                                   6      0.0000       0.00000       A     3.31527e-01     4.12548e-01    ;  uncertainty sigma = 0.000053, epsilon = 0.002675
 c4bf                                   6      0.0000       0.00000       A     3.31556e-01     4.13605e-01    ;  uncertainty sigma = 0.000009, epsilon = 0.001072
 c5bf                                   6      0.0000       0.00000       A     3.31528e-01     4.13216e-01    ;  uncertainty sigma = 0.000006, epsilon = 0.000735
 c6bf                                   6      0.0000       0.00000       A     3.31524e-01     4.13323e-01    ;  uncertainty sigma = 0.000005, epsilon = 0.000518
 c7bf                                   6      0.0000       0.00000       A     3.31524e-01     4.13320e-01    ;  uncertainty sigma = 0.000004, epsilon = 0.000654
 c8bf                                   6      0.0000       0.00000       A     3.31525e-01     4.13140e-01    ;  uncertainty sigma = 0.000007, epsilon = 0.000627
 c9bf                                   6      0.0000       0.00000       A     3.31543e-01     4.12994e-01    ;  uncertainty sigma = 0.000008, epsilon = 0.001189
 c10bf                                  6      0.0000       0.00000       A     3.31576e-01     4.13309e-01    ;  uncertainty sigma = 0.000008, epsilon = 0.001192
 c11bf                                  6      0.0000       0.00000       A     3.39773e-01     4.50718e-01    ;  uncertainty sigma = 0.000020, epsilon = 0.000757
 c12bf                                  6      0.0000       0.00000       A     3.39755e-01     4.50595e-01    ;  uncertainty sigma = 0.000006, epsilon = 0.000956
 c13bf                                  6      0.0000       0.00000       A     3.39777e-01     4.50536e-01    ;  uncertainty sigma = 0.000007, epsilon = 0.000867
 o14bf                                  8      0.0000       0.00000       A     3.15611e-01     3.02317e-01    ;  uncertainty sigma = 0.000018, epsilon = 0.002054
 c15bf                                  6      0.0000       0.00000       A     3.31530e-01     4.13236e-01    ;  uncertainty sigma = 0.000011, epsilon = 0.000784
 c16bf                                  6      0.0000       0.00000       A     3.31520e-01     4.13393e-01    ;  uncertainty sigma = 0.000006, epsilon = 0.000512
 c17bf                                  6      0.0000       0.00000       A     3.31531e-01     4.13313e-01    ;  uncertainty sigma = 0.000004, epsilon = 0.000592
 c18bf                                  6      0.0000       0.00000       A     3.31501e-01     4.13236e-01    ;  uncertainty sigma = 0.000004, epsilon = 0.000637
 h19bf                                  1      0.0000       0.00000       A     2.62573e-01     6.69665e-02    ;  uncertainty sigma = 0.000008, epsilon = 0.000474
 h20bf                                  1      0.0000       0.00000       A     2.62567e-01     6.69871e-02    ;  uncertainty sigma = 0.000012, epsilon = 0.000553
 h21bf                                  1      0.0000       0.00000       A     2.62563e-01     6.69792e-02    ;  uncertainty sigma = 0.000011, epsilon = 0.000555
 h22bf                                  1      0.0000       0.00000       A     2.62566e-01     6.69359e-02    ;  uncertainty sigma = 0.000011, epsilon = 0.000323
 h23bf                                  1      0.0000       0.00000       A     2.60038e-01     8.64862e-02    ;  uncertainty sigma = 0.000012, epsilon = 0.000717
 h24bf                                  1      0.0000       0.00000       A     2.60038e-01     8.64862e-02    ;  uncertainty sigma = 0.000012, epsilon = 0.000717
 h25bf                                  1      0.0000       0.00000       A     2.60032e-01     8.63750e-02    ;  uncertainty sigma = 0.000011, epsilon = 0.000877
 h26bf                                  1      0.0000       0.00000       A     2.60032e-01     8.63750e-02    ;  uncertainty sigma = 0.000011, epsilon = 0.000877
 h27bf                                  1      0.0000       0.00000       A     2.42191e-01     8.69833e-02    ;  uncertainty sigma = 0.000030, epsilon = 0.000474
 h28bf                                  1      0.0000       0.00000       A     2.42191e-01     8.69833e-02    ;  uncertainty sigma = 0.000030, epsilon = 0.000474
 h29bf                                  1      0.0000       0.00000       A     2.62568e-01     6.70334e-02    ;  uncertainty sigma = 0.000008, epsilon = 0.000346
 c30bf                                  6      0.0000       0.00000       A     3.31502e-01     4.13129e-01    ;  uncertainty sigma = 0.000005, epsilon = 0.000937
 c31bf                                  6      0.0000       0.00000       A     3.31528e-01     4.13143e-01    ;  uncertainty sigma = 0.000009, epsilon = 0.000772
 c32bf                                  6      0.0000       0.00000       A     3.39797e-01     4.50845e-01    ;  uncertainty sigma = 0.000012, epsilon = 0.000740
 c33bf                                  6      0.0000       0.00000       A     3.39769e-01     4.50774e-01    ;  uncertainty sigma = 0.000004, epsilon = 0.000506
 c34bf                                  6      0.0000       0.00000       A     3.39770e-01     4.50781e-01    ;  uncertainty sigma = 0.000005, epsilon = 0.000514
 c35bf                                  6      0.0000       0.00000       A     3.39796e-01     4.50880e-01    ;  uncertainty sigma = 0.000010, epsilon = 0.000724
 h36bf                                  1      0.0000       0.00000       A     2.62572e-01     6.69620e-02    ;  uncertainty sigma = 0.000008, epsilon = 0.000492
 h37bf                                  1      0.0000       0.00000       A     2.62566e-01     6.71079e-02    ;  uncertainty sigma = 0.000007, epsilon = 0.000469
 h38bf                                  1      0.0000       0.00000       A     2.60032e-01     8.66239e-02    ;  uncertainty sigma = 0.000012, epsilon = 0.000726
 h39bf                                  1      0.0000       0.00000       A     2.60032e-01     8.66239e-02    ;  uncertainty sigma = 0.000012, epsilon = 0.000726
 h40bf                                  1      0.0000       0.00000       A     2.60031e-01     8.67724e-02    ;  uncertainty sigma = 0.000012, epsilon = 0.000439
 h41bf                                  1      0.0000       0.00000       A     2.60031e-01     8.67724e-02    ;  uncertainty sigma = 0.000012, epsilon = 0.000439
 h42bf                                  1      0.0000       0.00000       A     2.60031e-01     8.67724e-02    ;  uncertainty sigma = 0.000012, epsilon = 0.000439
 h43bf                                  1      0.0000       0.00000       A     2.60031e-01     8.67724e-02    ;  uncertainty sigma = 0.000012, epsilon = 0.000439
 h44bf                                  1      0.0000       0.00000       A     2.60023e-01     8.67285e-02    ;  uncertainty sigma = 0.000010, epsilon = 0.000793
 h45bf                                  1      0.0000       0.00000       A     2.60023e-01     8.67285e-02    ;  uncertainty sigma = 0.000010, epsilon = 0.000793
 n46bf                                  7      0.0000       0.00000       A     3.20754e-01     8.52244e-01    ;  uncertainty sigma = 0.000047, epsilon = 0.002451
 h47bf                                  1      0.0000       0.00000       A     1.10620e-01     4.09732e-02    ;  uncertainty sigma = 0.000138, epsilon = 0.001729

[ moleculetype ]
;name             nrexcl
 MOL                   3

[ atoms ]
;       nr            type      resi   res      atom      cgnr      charge          mass ; qtot
         1            o0bf         1   UNL        o0         1    -0.82702       15.9990 ; qtot   -0.827
         2            c1bf         1   UNL        c1         2     0.92126       12.0110 ; qtot    0.094
         3            o2bf         1   UNL        o2         3    -0.82702       15.9990 ; qtot   -0.733
         4            c3bf         1   UNL        c3         4    -0.10822       12.0110 ; qtot   -0.841
         5            c4bf         1   UNL        c4         5    -0.06744       12.0110 ; qtot   -0.908
         6            c5bf         1   UNL        c5         6    -0.16684       12.0110 ; qtot   -1.075
         7            c6bf         1   UNL        c6         7    -0.11194       12.0110 ; qtot   -1.187
         8            c7bf         1   UNL        c7         8    -0.15971       12.0110 ; qtot   -1.347
         9            c8bf         1   UNL        c8         9    -0.09713       12.0110 ; qtot   -1.444
        10            c9bf         1   UNL        c9        10    -0.10135       12.0110 ; qtot   -1.545
        11           c10bf         1   UNL       c10        11    -0.18594       12.0110 ; qtot   -1.731
        12           c11bf         1   UNL       c11        12    -0.00836       12.0110 ; qtot   -1.740
        13           c12bf         1   UNL       c12        13    -0.09583       12.0110 ; qtot   -1.836
        14           c13bf         1   UNL       c13        14     0.13718       12.0110 ; qtot   -1.698
        15           o14bf         1   UNL       o14        15    -0.34427       15.9990 ; qtot   -2.043
        16           c15bf         1   UNL       c15        16     0.13067       12.0110 ; qtot   -1.912
        17           c16bf         1   UNL       c16        17    -0.14703       12.0110 ; qtot   -2.059
        18           c17bf         1   UNL       c17        18    -0.10072       12.0110 ; qtot   -2.160
        19           c18bf         1   UNL       c18        19    -0.20106       12.0110 ; qtot   -2.361
        20           h19bf         1   UNL       h19        20     0.13216        1.0080 ; qtot   -2.229
        21           h20bf         1   UNL       h20        21     0.12950        1.0080 ; qtot   -2.099
        22           h21bf         1   UNL       h21        22     0.12900        1.0080 ; qtot   -1.970
        23           h22bf         1   UNL       h22        23     0.13303        1.0080 ; qtot   -1.837
        24           h23bf         1   UNL       h23        24     0.04354        1.0080 ; qtot   -1.794
        25           h24bf         1   UNL       h24        25     0.04354        1.0080 ; qtot   -1.750
        26           h25bf         1   UNL       h25        26     0.05436        1.0080 ; qtot   -1.696
        27           h26bf         1   UNL       h26        27     0.05436        1.0080 ; qtot   -1.641
        28           h27bf         1   UNL       h27        28     0.04624        1.0080 ; qtot   -1.595
        29           h28bf         1   UNL       h28        29     0.04624        1.0080 ; qtot   -1.549
        30           h29bf         1   UNL       h29        30     0.14211        1.0080 ; qtot   -1.407
        31           c30bf         1   UNL       c30        31    -0.05264       12.0110 ; qtot   -1.459
        32           c31bf         1   UNL       c31        32    -0.09433       12.0110 ; qtot   -1.554
        33           c32bf         1   UNL       c32        33    -0.02762       12.0110 ; qtot   -1.581
        34           c33bf         1   UNL       c33        34    -0.07548       12.0110 ; qtot   -1.657
        35           c34bf         1   UNL       c34        35    -0.07518       12.0110 ; qtot   -1.732
        36           c35bf         1   UNL       c35        36    -0.03192       12.0110 ; qtot   -1.764
        37           h36bf         1   UNL       h36        37     0.13606        1.0080 ; qtot   -1.628
        38           h37bf         1   UNL       h37        38     0.13079        1.0080 ; qtot   -1.497
        39           h38bf         1   UNL       h38        39     0.05210        1.0080 ; qtot   -1.445
        40           h39bf         1   UNL       h39        40     0.05210        1.0080 ; qtot   -1.393
        41           h40bf         1   UNL       h40        41     0.04181        1.0080 ; qtot   -1.351
        42           h41bf         1   UNL       h41        42     0.04181        1.0080 ; qtot   -1.309
        43           h42bf         1   UNL       h42        43     0.04172        1.0080 ; qtot   -1.267
        44           h43bf         1   UNL       h43        44     0.04172        1.0080 ; qtot   -1.226
        45           h44bf         1   UNL       h44        45     0.04772        1.0080 ; qtot   -1.178
        46           h45bf         1   UNL       h45        46     0.04772        1.0080 ; qtot   -1.130
        47           n46bf         1   UNL       n46        47    -0.18585       14.0070 ; qtot   -1.316
        48           h47bf         1   UNL       h47        48     0.31616        1.0080 ; qtot   -1.000

[ bonds ]
;       ai        aj funct               r               k
         1         2     1        0.126489   553283.027930    ;  uncertainty r = 0.000115, k = 9.491850
         2         3     1        0.126489   553283.027930    ;  uncertainty r = 0.000115, k = 9.491850
         2         4     1        0.152875   178456.869971    ;  uncertainty r = 0.000109, k = 53.157083
         4        11     1        0.138845   388969.962598    ;  uncertainty r = 0.000116, k = 35.597318
         4        47     1        0.138411   296910.956104    ;  uncertainty r = 0.000116, k = 16.653525
         5         6     1        0.139909   370024.083301    ;  uncertainty r = 0.000068, k = 3.273406
         5        10     1        0.143429   333658.830957    ;  uncertainty r = 0.000101, k = 12.925109
         5        47     1        0.137190   323439.748047    ;  uncertainty r = 0.000109, k = 15.720627
         6         7     1        0.139204   373030.439502    ;  uncertainty r = 0.000031, k = 1.532197
         6        20     1        0.108908   337826.589355    ;  uncertainty r = 0.000007, k = 0.915296
         7         8     1        0.141248   347880.881299    ;  uncertainty r = 0.000048, k = 2.727051
         7        21     1        0.108787   335143.149902    ;  uncertainty r = 0.000015, k = 1.282440
         8         9     1        0.139156   366705.382715    ;  uncertainty r = 0.000016, k = 3.013067
         8        22     1        0.108813   335291.367285    ;  uncertainty r = 0.000018, k = 0.841713
         9        10     1        0.140712   363994.363184    ;  uncertainty r = 0.000090, k = 9.392181
         9        23     1        0.108826   337192.119873    ;  uncertainty r = 0.000025, k = 2.686180
        10        11     1        0.143927   250387.756689    ;  uncertainty r = 0.000100, k = 20.205925
        11        12     1        0.150056   234448.846484    ;  uncertainty r = 0.000153, k = 11.938075
        12        13     1        0.153884   206300.069702    ;  uncertainty r = 0.000105, k = 7.073769
        12        24     1        0.109683   309037.278027    ;  uncertainty r = 0.000026, k = 1.364430
        12        25     1        0.109683   309037.278027    ;  uncertainty r = 0.000026, k = 1.364430
        13        14     1        0.152157   210024.580493    ;  uncertainty r = 0.000038, k = 3.509278
        13        26     1        0.109662   307656.256689    ;  uncertainty r = 0.000026, k = 1.423811
        13        27     1        0.109662   307656.256689    ;  uncertainty r = 0.000026, k = 1.423811
        14        15     1        0.142738   231484.141309    ;  uncertainty r = 0.000041, k = 7.515042
        14        28     1        0.109729   308272.543750    ;  uncertainty r = 0.000015, k = 1.552841
        14        29     1        0.109729   308272.543750    ;  uncertainty r = 0.000015, k = 1.552841
        15        16     1        0.137404   327973.938428    ;  uncertainty r = 0.000074, k = 7.281172
        16        19     1        0.139603   350240.688965    ;  uncertainty r = 0.000036, k = 3.524779
        16        32     1        0.140531   336016.851025    ;  uncertainty r = 0.000131, k = 7.970311
        17        18     1        0.139343   375647.278174    ;  uncertainty r = 0.000041, k = 3.730769
        17        31     1        0.140265   357725.053906    ;  uncertainty r = 0.000025, k = 3.769224
        17        38     1        0.108880   334822.684717    ;  uncertainty r = 0.000020, k = 1.414352
        18        19     1        0.139724   373868.669580    ;  uncertainty r = 0.000028, k = 3.615763
        18        37     1        0.108752   332978.318066    ;  uncertainty r = 0.000012, k = 1.595558
        19        30     1        0.108759   338737.778955    ;  uncertainty r = 0.000008, k = 1.359413
        31        32     1        0.140403   341115.411523    ;  uncertainty r = 0.000071, k = 4.643000
        31        36     1        0.151738   231894.701416    ;  uncertainty r = 0.000033, k = 6.167345
        32        33     1        0.151484   225635.964502    ;  uncertainty r = 0.000063, k = 7.854645
        33        34     1        0.153302   214269.116211    ;  uncertainty r = 0.000038, k = 2.330518
        33        39     1        0.109704   306139.020410    ;  uncertainty r = 0.000012, k = 1.026725
        33        40     1        0.109704   306139.020410    ;  uncertainty r = 0.000012, k = 1.026725
        34        35     1        0.153194   218703.941699    ;  uncertainty r = 0.000028, k = 4.495731
        34        41     1        0.109731   306937.284912    ;  uncertainty r = 0.000015, k = 1.768472
        34        42     1        0.109731   306937.284912    ;  uncertainty r = 0.000015, k = 1.768472
        35        36     1        0.153316   214907.620557    ;  uncertainty r = 0.000031, k = 2.328676
        35        43     1        0.109736   306566.051953    ;  uncertainty r = 0.000016, k = 1.689949
        35        44     1        0.109736   306566.051953    ;  uncertainty r = 0.000016, k = 1.689949
        36        45     1        0.109792   305615.892725    ;  uncertainty r = 0.000022, k = 0.976653
        36        46     1        0.109792   305615.892725    ;  uncertainty r = 0.000022, k = 0.976658
        47        48     1        0.101525   411016.225732    ;  uncertainty r = 0.000192, k = 19.532810

[ angles ]
;       ai        aj        ak funct           theta             cth
         1         2         3     1      131.490799      799.912859    ;  uncertainty theta = 0.007122, k = 0.161146
         1         2         4     1      115.643898      409.958900    ;  uncertainty theta = 0.009941, k = 0.278481
         2         4        11     1      129.691666      294.711298    ;  uncertainty theta = 0.010379, k = 0.154712
         2         4        47     1      117.855209      349.663901    ;  uncertainty theta = 0.005899, k = 0.287676
         3         2         4     1      115.643898      409.958900    ;  uncertainty theta = 0.009941, k = 0.278481
         4        11        10     1      107.813744      761.507600    ;  uncertainty theta = 0.003114, k = 0.233379
         4        11        12     1      125.834373      348.251252    ;  uncertainty theta = 0.008524, k = 0.203092
         4        47         5     1      106.686867      870.555270    ;  uncertainty theta = 0.004731, k = 0.157374
         4        47        48     1      118.324951      293.095597    ;  uncertainty theta = 0.017038, k = 0.289786
         5         6         7     1      117.288712      532.685108    ;  uncertainty theta = 0.002732, k = 0.138286
         5         6        20     1      122.416870      294.044173    ;  uncertainty theta = 0.002439, k = 0.026234
         5        10         9     1      116.726723      409.397211    ;  uncertainty theta = 0.004491, k = 0.081187
         5        10        11     1      107.622475      685.489179    ;  uncertainty theta = 0.004472, k = 0.334622
         5        47        48     1      119.518555      279.940091    ;  uncertainty theta = 0.027559, k = 0.287070
         6         5        10     1      120.341995      378.416324    ;  uncertainty theta = 0.003053, k = 0.079333
         6         5        47     1      130.070251      406.372596    ;  uncertainty theta = 0.003047, k = 0.189160
         6         7         8     1      122.110641      522.210041    ;  uncertainty theta = 0.001703, k = 0.050914
         6         7        21     1      119.408218      283.874626    ;  uncertainty theta = 0.001884, k = 0.037783
         7         6        20     1      121.416527      285.300171    ;  uncertainty theta = 0.001028, k = 0.037490
         7         8         9     1      121.942673      521.393620    ;  uncertainty theta = 0.001697, k = 0.032913
         7         8        22     1      119.651100      288.114903    ;  uncertainty theta = 0.001746, k = 0.035440
         8         7        21     1      119.801102      287.497128    ;  uncertainty theta = 0.001585, k = 0.046675
         8         9        10     1      119.165207      547.786701    ;  uncertainty theta = 0.003326, k = 0.038562
         8         9        23     1      120.508347      285.672566    ;  uncertainty theta = 0.001453, k = 0.031601
         9         8        22     1      119.815613      287.517590    ;  uncertainty theta = 0.001890, k = 0.024499
         9        10        11     1      132.186111      358.431813    ;  uncertainty theta = 0.003911, k = 0.091946
        10         5        47     1      107.610229      677.054783    ;  uncertainty theta = 0.004088, k = 0.326769
        10         9        23     1      121.598999      289.048093    ;  uncertainty theta = 0.003949, k = 0.074173
        10        11        12     1      125.270729      364.592289    ;  uncertainty theta = 0.008077, k = 0.215292
        11         4        47     1      110.824791      694.108082    ;  uncertainty theta = 0.003478, k = 0.245195
        11        12        13     1      111.534096      545.895232    ;  uncertainty theta = 0.004625, k = 0.050598
        11        12        24     1      107.023758      409.119878    ;  uncertainty theta = 0.002156, k = 0.076181
        11        12        25     1      107.023758      409.119878    ;  uncertainty theta = 0.002156, k = 0.076181
        12        13        14     1      109.859299      549.826733    ;  uncertainty theta = 0.002515, k = 0.054096
        12        13        26     1      107.785934      395.429530    ;  uncertainty theta = 0.002675, k = 0.060816
        12        13        27     1      107.785934      395.429530    ;  uncertainty theta = 0.002675, k = 0.060816
        13        12        24     1      106.921707      401.082871    ;  uncertainty theta = 0.002502, k = 0.097007
        13        12        25     1      106.921707      401.082871    ;  uncertainty theta = 0.002502, k = 0.097007
        13        14        15     1      109.069664      592.588176    ;  uncertainty theta = 0.001427, k = 0.028861
        13        14        28     1      109.908569      407.141008    ;  uncertainty theta = 0.001494, k = 0.049792
        13        14        29     1      109.908569      407.141008    ;  uncertainty theta = 0.001494, k = 0.049792
        14        13        26     1      106.734451      398.233089    ;  uncertainty theta = 0.001503, k = 0.020550
        14        13        27     1      106.734451      398.233089    ;  uncertainty theta = 0.001503, k = 0.020550
        14        15        16     1      111.156456      499.452168    ;  uncertainty theta = 0.002410, k = 0.117067
        15        14        28     1      106.981789      434.100821    ;  uncertainty theta = 0.002297, k = 0.031169
        15        14        29     1      106.981789      434.100821    ;  uncertainty theta = 0.002297, k = 0.031169
        15        16        19     1      120.486099      427.087693    ;  uncertainty theta = 0.004070, k = 0.120125
        15        16        32     1      116.934067      449.074505    ;  uncertainty theta = 0.006090, k = 0.115980
        16        19        18     1      119.301712      517.539560    ;  uncertainty theta = 0.000839, k = 0.065870
        16        19        30     1      119.000870      265.786117    ;  uncertainty theta = 0.003245, k = 0.069646
        16        32        31     1      120.205589      457.981945    ;  uncertainty theta = 0.001303, k = 0.190534
        16        32        33     1      118.747231      417.561872    ;  uncertainty theta = 0.003415, k = 0.321606
        17        18        19     1      119.658714      512.106029    ;  uncertainty theta = 0.001635, k = 0.083641
        17        18        37     1      120.584084      286.981534    ;  uncertainty theta = 0.000550, k = 0.040138
        17        31        32     1      121.433449      456.820581    ;  uncertainty theta = 0.003093, k = 0.053832
        17        31        36     1      120.858444      415.372608    ;  uncertainty theta = 0.003196, k = 0.096703
        18        17        31     1      120.296959      520.271519    ;  uncertainty theta = 0.001508, k = 0.059577
        18        17        38     1      120.397461      291.434408    ;  uncertainty theta = 0.001613, k = 0.037054
        18        19        30     1      121.114059      288.567548    ;  uncertainty theta = 0.002036, k = 0.029461
        19        16        32     1      123.849777      375.326717    ;  uncertainty theta = 0.002777, k = 0.115844
        19        18        37     1      120.208298      283.008567    ;  uncertainty theta = 0.001317, k = 0.048772
        24        12        25     1      104.532631      313.868120    ;  uncertainty theta = 0.003533, k = 0.064476
        26        13        27     1      105.098839      317.589452    ;  uncertainty theta = 0.002581, k = 0.027066
        28        14        29     1      107.536987      332.449783    ;  uncertainty theta = 0.001516, k = 0.040302
        31        17        38     1      119.345558      272.898680    ;  uncertainty theta = 0.001229, k = 0.083111
        31        32        33     1      121.432816      352.844261    ;  uncertainty theta = 0.003386, k = 0.468088
        31        36        35     1      110.401230      596.235705    ;  uncertainty theta = 0.002366, k = 0.151905
        31        36        45     1      108.218666      394.546999    ;  uncertainty theta = 0.001032, k = 0.030557
        31        36        46     1      108.218666      394.546999    ;  uncertainty theta = 0.001032, k = 0.030557
        32        31        36     1      120.100342      373.825806    ;  uncertainty theta = 0.001324, k = 0.213263
        32        33        34     1      110.423874      595.649501    ;  uncertainty theta = 0.001595, k = 0.127770
        32        33        39     1      108.134033      401.472312    ;  uncertainty theta = 0.000896, k = 0.053694
        32        33        40     1      108.134033      401.472312    ;  uncertainty theta = 0.000896, k = 0.053694
        33        34        35     1      109.461647      625.135797    ;  uncertainty theta = 0.002528, k = 0.057307
        33        34        41     1      108.363243      403.206505    ;  uncertainty theta = 0.000884, k = 0.028868
        33        34        42     1      108.363243      403.206505    ;  uncertainty theta = 0.000884, k = 0.028868
        34        33        39     1      108.369301      407.102000    ;  uncertainty theta = 0.000816, k = 0.013435
        34        33        40     1      108.369301      407.102000    ;  uncertainty theta = 0.000816, k = 0.013435
        34        35        36     1      109.099464      630.867792    ;  uncertainty theta = 0.002272, k = 0.067491
        34        35        43     1      108.641457      399.594920    ;  uncertainty theta = 0.000766, k = 0.029150
        34        35        44     1      108.641457      399.594920    ;  uncertainty theta = 0.000766, k = 0.029150
        35        34        41     1      108.641891      400.440868    ;  uncertainty theta = 0.000759, k = 0.029887
        35        34        42     1      108.641891      400.440868    ;  uncertainty theta = 0.000759, k = 0.029887
        35        36        45     1      108.402199      406.425043    ;  uncertainty theta = 0.001267, k = 0.034382
        35        36        46     1      108.402199      406.425043    ;  uncertainty theta = 0.001267, k = 0.034382
        36        35        43     1      108.397484      403.476688    ;  uncertainty theta = 0.000865, k = 0.030795
        36        35        44     1      108.397484      403.476688    ;  uncertainty theta = 0.000865, k = 0.030795
        39        33        40     1      104.203308      309.417736    ;  uncertainty theta = 0.001287, k = 0.045678
        41        34        42     1      104.788193      312.225893    ;  uncertainty theta = 0.001220, k = 0.019080
        43        35        44     1      104.714149      312.071585    ;  uncertainty theta = 0.001413, k = 0.026679
        45        36        46     1      104.473877      312.277829    ;  uncertainty theta = 0.001342, k = 0.022580

[ dihedrals ] ; propers for gromacs 4.5 or higher, use funct 9
;       ai        aj        ak        al funct           phase               k        pn
         1         2         4        11     9        0.000000       -1.372021         1    ;  uncertainty k = 1.492730
         1         2         4        11     9      180.000000        2.371115         2    ;  uncertainty k = 0.300482
         1         2         4        11     9        0.000000        0.292116         3    ;  uncertainty k = 0.252771
         1         2         4        11     9      180.000000        0.155159         4    ;  uncertainty k = 0.093475
         1         2         4        47     9        0.000000        1.707823         1    ;  uncertainty k = 0.704832
         1         2         4        47     9      180.000000        3.884647         2    ;  uncertainty k = 0.565808
         1         2         4        47     9        0.000000        0.749129         3    ;  uncertainty k = 0.264976
         1         2         4        47     9      180.000000        0.174104         4    ;  uncertainty k = 0.159693
         2         4        11        10     9        0.000000        0.658377         1    ;  uncertainty k = 1.317360
         2         4        11        10     9      180.000000       11.269219         2    ;  uncertainty k = 0.349150
         2         4        11        10     9        0.000000        2.080317         3    ;  uncertainty k = 0.240036
         2         4        11        10     9      180.000000        0.676709         4    ;  uncertainty k = 0.169861
         2         4        11        12     9        0.000000        0.204708         1    ;  uncertainty k = 0.747460
         2         4        11        12     9      180.000000        9.233953         2    ;  uncertainty k = 0.447590
         2         4        11        12     9        0.000000        1.675443         3    ;  uncertainty k = 0.293006
         2         4        11        12     9      180.000000        0.426607         4    ;  uncertainty k = 0.323880
         2         4        47         5     9        0.000000       -0.464998         1    ;  uncertainty k = 2.171907
         2         4        47         5     9      180.000000        6.451220         2    ;  uncertainty k = 1.089854
         2         4        47         5     9        0.000000        1.609707         3    ;  uncertainty k = 0.687909
         2         4        47         5     9      180.000000        0.292935         4    ;  uncertainty k = 0.259665
         2         4        47        48     9        0.000000        1.253701         1    ;  uncertainty k = 2.041217
         2         4        47        48     9      180.000000        2.479089         2    ;  uncertainty k = 1.021447
         2         4        47        48     9        0.000000        1.291813         3    ;  uncertainty k = 0.578698
         2         4        47        48     9      180.000000       -0.030601         4    ;  uncertainty k = 0.146306
         3         2         4        11     9        0.000000       -1.372021         1    ;  uncertainty k = 1.492730
         3         2         4        11     9      180.000000        2.371115         2    ;  uncertainty k = 0.300482
         3         2         4        11     9        0.000000        0.292116         3    ;  uncertainty k = 0.252771
         3         2         4        11     9      180.000000        0.155159         4    ;  uncertainty k = 0.093475
         3         2         4        47     9        0.000000        1.707823         1    ;  uncertainty k = 0.704832
         3         2         4        47     9      180.000000        3.884647         2    ;  uncertainty k = 0.565808
         3         2         4        47     9        0.000000        0.749129         3    ;  uncertainty k = 0.264976
         3         2         4        47     9      180.000000        0.174104         4    ;  uncertainty k = 0.159693
         4        11        10         5     9        0.000000        0.171220         1    ;  uncertainty k = 0.432161
         4        11        10         5     9      180.000000       11.967638         2    ;  uncertainty k = 1.294698
         4        11        10         5     9        0.000000       -9.909327         3    ;  uncertainty k = 1.605977
         4        11        10         5     9      180.000000        2.102653         4    ;  uncertainty k = 0.733398
         4        11        10         9     9        0.000000        0.079803         1    ;  uncertainty k = 1.313243
         4        11        10         9     9      180.000000        5.721978         2    ;  uncertainty k = 0.321426
         4        11        10         9     9        0.000000        0.431775         3    ;  uncertainty k = 0.611745
         4        11        10         9     9      180.000000        0.952472         4    ;  uncertainty k = 0.149862
         4        11        12        13     9        0.000000       -0.352782         1    ;  uncertainty k = 1.057807
         4        11        12        13     9      180.000000        1.468732         2    ;  uncertainty k = 0.380793
         4        11        12        13     9        0.000000        0.215303         3    ;  uncertainty k = 0.481299
         4        11        12        13     9      180.000000        0.121756         4    ;  uncertainty k = 0.162172
         4        11        12        24     9        0.000000        1.439359         1    ;  uncertainty k = 0.397283
         4        11        12        24     9      180.000000        2.614207         2    ;  uncertainty k = 0.334496
         4        11        12        24     9        0.000000        0.055715         3    ;  uncertainty k = 0.092065
         4        11        12        24     9      180.000000        0.180012         4    ;  uncertainty k = 0.123046
         4        11        12        25     9        0.000000        1.439359         1    ;  uncertainty k = 0.397283
         4        11        12        25     9      180.000000        2.614207         2    ;  uncertainty k = 0.334496
         4        11        12        25     9        0.000000        0.055715         3    ;  uncertainty k = 0.092065
         4        11        12        25     9      180.000000        0.180012         4    ;  uncertainty k = 0.123046
         4        47         5         6     9        0.000000        0.779094         1    ;  uncertainty k = 1.611142
         4        47         5         6     9      180.000000        6.072861         2    ;  uncertainty k = 1.235288
         4        47         5         6     9        0.000000        0.738725         3    ;  uncertainty k = 0.606503
         4        47         5         6     9      180.000000        0.313530         4    ;  uncertainty k = 0.310389
         4        47         5        10     9        0.000000       -0.304471         1    ;  uncertainty k = 0.989395
         4        47         5        10     9      180.000000       15.047901         2    ;  uncertainty k = 1.046721
         4        47         5        10     9        0.000000       -8.395770         3    ;  uncertainty k = 1.919282
         4        47         5        10     9      180.000000        0.648752         4    ;  uncertainty k = 0.607428
         5         6         7         8     9        0.000000       -0.007204         1    ;  uncertainty k = 0.352017
         5         6         7         8     9      180.000000       16.955015         2    ;  uncertainty k = 0.265826
         5         6         7         8     9        0.000000       -0.377243         3    ;  uncertainty k = 0.370601
         5         6         7         8     9      180.000000        0.608270         4    ;  uncertainty k = 0.292320
         5         6         7        21     9        0.000000        0.031156         1    ;  uncertainty k = 0.336940
         5         6         7        21     9      180.000000       10.941246         2    ;  uncertainty k = 0.419077
         5         6         7        21     9        0.000000        1.421256         3    ;  uncertainty k = 0.272944
         5         6         7        21     9      180.000000        1.557433         4    ;  uncertainty k = 0.258138
         5        10         9         8     9        0.000000        0.010948         1    ;  uncertainty k = 0.402869
         5        10         9         8     9      180.000000       13.710034         2    ;  uncertainty k = 0.163194
         5        10         9         8     9        0.000000       -1.521568         3    ;  uncertainty k = 0.300487
         5        10         9         8     9      180.000000        0.694567         4    ;  uncertainty k = 0.283041
         5        10         9        23     9        0.000000        0.253366         1    ;  uncertainty k = 0.171030
         5        10         9        23     9      180.000000        7.059567         2    ;  uncertainty k = 0.776058
         5        10         9        23     9        0.000000        1.466229         3    ;  uncertainty k = 0.353750
         5        10         9        23     9      180.000000        1.230009         4    ;  uncertainty k = 0.397540
         5        10        11        12     9        0.000000        1.338495         1    ;  uncertainty k = 1.087086
         5        10        11        12     9      180.000000       10.551108         2    ;  uncertainty k = 0.351316
         5        10        11        12     9        0.000000        1.801678         3    ;  uncertainty k = 0.392566
         5        10        11        12     9      180.000000        0.257171         4    ;  uncertainty k = 0.352643
         5        47         4        11     9        0.000000       -0.469081         1    ;  uncertainty k = 0.858054
         5        47         4        11     9      180.000000       14.635346         2    ;  uncertainty k = 0.621844
         5        47         4        11     9        0.000000       -5.847696         3    ;  uncertainty k = 1.154312
         5        47         4        11     9      180.000000        0.763949         4    ;  uncertainty k = 0.332867
         6         5        10         9     9        0.000000       -0.557459         1    ;  uncertainty k = 0.504536
         6         5        10         9     9      180.000000        7.175498         2    ;  uncertainty k = 0.762478
         6         5        10         9     9        0.000000        0.165063         3    ;  uncertainty k = 0.420578
         6         5        10         9     9      180.000000        0.902459         4    ;  uncertainty k = 0.405275
         6         5        10        11     9        0.000000       -0.095996         1    ;  uncertainty k = 0.579182
         6         5        10        11     9      180.000000        7.141608         2    ;  uncertainty k = 0.626861
         6         5        10        11     9        0.000000        0.190982         3    ;  uncertainty k = 0.555203
         6         5        10        11     9      180.000000        1.106105         4    ;  uncertainty k = 0.382286
         6         5        47        48     9        0.000000        1.556211         1    ;  uncertainty k = 0.864779
         6         5        47        48     9      180.000000        1.456879         2    ;  uncertainty k = 0.823313
         6         5        47        48     9        0.000000        1.223414         3    ;  uncertainty k = 0.515923
         6         5        47        48     9      180.000000        0.185999         4    ;  uncertainty k = 0.197024
         6         7         8         9     9        0.000000       -0.216392         1    ;  uncertainty k = 0.203221
         6         7         8         9     9      180.000000       12.688314         2    ;  uncertainty k = 0.287114
         6         7         8         9     9        0.000000       -0.841327         3    ;  uncertainty k = 0.664749
         6         7         8         9     9      180.000000        0.649352         4    ;  uncertainty k = 0.206451
         6         7         8        22     9        0.000000        0.020527         1    ;  uncertainty k = 0.059042
         6         7         8        22     9      180.000000        6.989280         2    ;  uncertainty k = 0.437421
         6         7         8        22     9        0.000000        1.365009         3    ;  uncertainty k = 0.283914
         6         7         8        22     9      180.000000        1.623914         4    ;  uncertainty k = 0.216596
         7         6         5        10     9        0.000000       -0.061762         1    ;  uncertainty k = 0.380516
         7         6         5        10     9      180.000000       12.578005         2    ;  uncertainty k = 0.240233
         7         6         5        10     9        0.000000       -1.274716         3    ;  uncertainty k = 0.208709
         7         6         5        10     9      180.000000        0.774303         4    ;  uncertainty k = 0.287170
         7         6         5        47     9        0.000000       -0.040937         1    ;  uncertainty k = 0.255560
         7         6         5        47     9      180.000000       11.252463         2    ;  uncertainty k = 0.580598
         7         6         5        47     9        0.000000        0.539336         3    ;  uncertainty k = 0.344721
         7         6         5        47     9      180.000000        1.022385         4    ;  uncertainty k = 0.303790
         7         8         9        10     9        0.000000        0.019920         1    ;  uncertainty k = 0.483038
         7         8         9        10     9      180.000000       16.879730         2    ;  uncertainty k = 0.325142
         7         8         9        10     9        0.000000       -0.454716         3    ;  uncertainty k = 0.474507
         7         8         9        10     9      180.000000        0.578125         4    ;  uncertainty k = 0.391909
         7         8         9        23     9        0.000000        0.168636         1    ;  uncertainty k = 0.193240
         7         8         9        23     9      180.000000        8.751745         2    ;  uncertainty k = 0.517235
         7         8         9        23     9        0.000000        1.537662         3    ;  uncertainty k = 0.246200
         7         8         9        23     9      180.000000        1.882842         4    ;  uncertainty k = 0.288260
         8         7         6        20     9        0.000000        0.165182         1    ;  uncertainty k = 0.216912
         8         7         6        20     9      180.000000        8.873569         2    ;  uncertainty k = 0.614610
         8         7         6        20     9        0.000000        1.622975         3    ;  uncertainty k = 0.261540
         8         7         6        20     9      180.000000        1.905453         4    ;  uncertainty k = 0.326822
         8         9        10        11     9        0.000000        0.249753         1    ;  uncertainty k = 0.103663
         8         9        10        11     9      180.000000        9.179070         2    ;  uncertainty k = 0.411370
         8         9        10        11     9        0.000000        0.517062         3    ;  uncertainty k = 0.430347
         8         9        10        11     9      180.000000        1.153234         4    ;  uncertainty k = 0.143424
         9         8         7        21     9        0.000000       -0.030439         1    ;  uncertainty k = 0.102038
         9         8         7        21     9      180.000000        6.901165         2    ;  uncertainty k = 0.417183
         9         8         7        21     9        0.000000        1.354655         3    ;  uncertainty k = 0.214825
         9         8         7        21     9      180.000000        1.587525         4    ;  uncertainty k = 0.176781
         9        10         5        47     9        0.000000       -0.032223         1    ;  uncertainty k = 0.572800
         9        10         5        47     9      180.000000        8.643799         2    ;  uncertainty k = 0.269496
         9        10         5        47     9        0.000000       -0.453955         3    ;  uncertainty k = 0.641368
         9        10         5        47     9      180.000000        1.174833         4    ;  uncertainty k = 0.384480
         9        10        11        12     9        0.000000        0.238961         1    ;  uncertainty k = 1.397644
         9        10        11        12     9      180.000000        5.787109         2    ;  uncertainty k = 0.469515
         9        10        11        12     9        0.000000        1.699642         3    ;  uncertainty k = 0.321923
         9        10        11        12     9      180.000000        0.173483         4    ;  uncertainty k = 0.188688
        10         5         6        20     9        0.000000        0.319122         1    ;  uncertainty k = 0.490757
        10         5         6        20     9      180.000000        6.345798         2    ;  uncertainty k = 0.822340
        10         5         6        20     9        0.000000        1.324954         3    ;  uncertainty k = 0.253224
        10         5         6        20     9      180.000000        1.101595         4    ;  uncertainty k = 0.359631
        10         5        47        48     9        0.000000        6.104771         1    ;  uncertainty k = 2.118850
        10         5        47        48     9      180.000000        4.638186         2    ;  uncertainty k = 1.440061
        10         5        47        48     9        0.000000        1.257718         3    ;  uncertainty k = 0.462506
        10         5        47        48     9      180.000000        0.319293         4    ;  uncertainty k = 0.097073
        10         9         8        22     9        0.000000        0.118303         1    ;  uncertainty k = 0.391732
        10         9         8        22     9      180.000000       10.979734         2    ;  uncertainty k = 0.363860
        10         9         8        22     9        0.000000        1.498292         3    ;  uncertainty k = 0.324461
        10         9         8        22     9      180.000000        1.658169         4    ;  uncertainty k = 0.294311
        10        11         4        47     9        0.000000       -0.343459         1    ;  uncertainty k = 0.628998
        10        11         4        47     9      180.000000       19.851697         2    ;  uncertainty k = 0.337386
        10        11         4        47     9        0.000000       -6.038290         3    ;  uncertainty k = 1.696783
        10        11         4        47     9      180.000000        1.027795         4    ;  uncertainty k = 0.436841
        10        11        12        13     9        0.000000       -0.215056         1    ;  uncertainty k = 1.011600
        10        11        12        13     9      180.000000        1.085286         2    ;  uncertainty k = 0.670424
        10        11        12        13     9        0.000000        0.695380         3    ;  uncertainty k = 0.269264
        10        11        12        13     9      180.000000        0.164007         4    ;  uncertainty k = 0.059982
        10        11        12        24     9        0.000000       -0.686921         1    ;  uncertainty k = 0.448582
        10        11        12        24     9      180.000000        2.071241         2    ;  uncertainty k = 0.415243
        10        11        12        24     9        0.000000        0.779274         3    ;  uncertainty k = 0.145606
        10        11        12        24     9      180.000000        0.211883         4    ;  uncertainty k = 0.077331
        10        11        12        25     9        0.000000       -0.686921         1    ;  uncertainty k = 0.448582
        10        11        12        25     9      180.000000        2.071241         2    ;  uncertainty k = 0.415243
        10        11        12        25     9        0.000000        0.779274         3    ;  uncertainty k = 0.145606
        10        11        12        25     9      180.000000        0.211883         4    ;  uncertainty k = 0.077331
        11         4        47        48     9        0.000000        3.994326         1    ;  uncertainty k = 2.809201
        11         4        47        48     9      180.000000        7.262693         2    ;  uncertainty k = 0.379220
        11         4        47        48     9        0.000000        1.858365         3    ;  uncertainty k = 0.686233
        11         4        47        48     9      180.000000       -0.114664         4    ;  uncertainty k = 0.351651
        11        10         5        47     9        0.000000       -0.200093         1    ;  uncertainty k = 0.424326
        11        10         5        47     9      180.000000       12.998296         2    ;  uncertainty k = 0.637101
        11        10         5        47     9        0.000000       -4.487286         3    ;  uncertainty k = 1.787354
        11        10         5        47     9      180.000000        1.376048         4    ;  uncertainty k = 0.852459
        11        10         9        23     9        0.000000        0.623609         1    ;  uncertainty k = 0.818827
        11        10         9        23     9      180.000000        5.597100         2    ;  uncertainty k = 0.476519
        11        10         9        23     9        0.000000        1.146276         3    ;  uncertainty k = 0.356005
        11        10         9        23     9      180.000000        0.780142         4    ;  uncertainty k = 0.277118
        11        12        13        14     9        0.000000       -2.746923         1    ;  uncertainty k = 0.997699
        11        12        13        14     9      180.000000       -0.446779         2    ;  uncertainty k = 0.375614
        11        12        13        14     9        0.000000        1.346877         3    ;  uncertainty k = 0.119503
        11        12        13        14     9      180.000000       -0.316157         4    ;  uncertainty k = 0.108089
        11        12        13        26     9        0.000000        0.430745         1    ;  uncertainty k = 0.618884
        11        12        13        26     9      180.000000       -0.329477         2    ;  uncertainty k = 0.354781
        11        12        13        26     9        0.000000        1.116976         3    ;  uncertainty k = 0.164374
        11        12        13        26     9      180.000000        0.005127         4    ;  uncertainty k = 0.054044
        11        12        13        27     9        0.000000        0.430745         1    ;  uncertainty k = 0.618884
        11        12        13        27     9      180.000000       -0.329477         2    ;  uncertainty k = 0.354781
        11        12        13        27     9        0.000000        1.116976         3    ;  uncertainty k = 0.164374
        11        12        13        27     9      180.000000        0.005127         4    ;  uncertainty k = 0.054044
        12        11         4        47     9        0.000000        0.421908         1    ;  uncertainty k = 0.686279
        12        11         4        47     9      180.000000       16.338015         2    ;  uncertainty k = 0.475382
        12        11         4        47     9        0.000000        1.239769         3    ;  uncertainty k = 0.508643
        12        11         4        47     9      180.000000        0.759832         4    ;  uncertainty k = 0.322483
        12        13        14        15     9        0.000000       -4.155317         1    ;  uncertainty k = 0.956645
        12        13        14        15     9      180.000000       -2.514248         2    ;  uncertainty k = 0.568527
        12        13        14        15     9        0.000000        2.206954         3    ;  uncertainty k = 0.333045
        12        13        14        15     9      180.000000       -0.477266         4    ;  uncertainty k = 0.149891
        12        13        14        28     9        0.000000       -1.899447         1    ;  uncertainty k = 0.483903
        12        13        14        28     9      180.000000        0.093307         2    ;  uncertainty k = 0.237618
        12        13        14        28     9        0.000000        0.921046         3    ;  uncertainty k = 0.066828
        12        13        14        28     9      180.000000       -0.364053         4    ;  uncertainty k = 0.108453
        12        13        14        29     9        0.000000       -1.899447         1    ;  uncertainty k = 0.483903
        12        13        14        29     9      180.000000        0.093307         2    ;  uncertainty k = 0.237618
        12        13        14        29     9        0.000000        0.921046         3    ;  uncertainty k = 0.066828
        12        13        14        29     9      180.000000       -0.364053         4    ;  uncertainty k = 0.108453
        13        14        15        16     9        0.000000       -0.773859         1    ;  uncertainty k = 0.934623
        13        14        15        16     9      180.000000       -0.309132         2    ;  uncertainty k = 0.265648
        13        14        15        16     9        0.000000        0.719140         3    ;  uncertainty k = 0.075065
        13        14        15        16     9      180.000000        0.505395         4    ;  uncertainty k = 0.046962
        14        13        12        24     9        0.000000       -1.675632         1    ;  uncertainty k = 0.369773
        14        13        12        24     9      180.000000       -0.614549         2    ;  uncertainty k = 0.300890
        14        13        12        24     9        0.000000        0.952664         3    ;  uncertainty k = 0.128684
        14        13        12        24     9      180.000000       -0.350588         4    ;  uncertainty k = 0.062165
        14        13        12        25     9        0.000000       -1.675632         1    ;  uncertainty k = 0.369773
        14        13        12        25     9      180.000000       -0.614549         2    ;  uncertainty k = 0.300890
        14        13        12        25     9        0.000000        0.952664         3    ;  uncertainty k = 0.128684
        14        13        12        25     9      180.000000       -0.350588         4    ;  uncertainty k = 0.062165
        14        15        16        19     9        0.000000        2.279886         1    ;  uncertainty k = 0.358569
        14        15        16        19     9      180.000000        6.522390         2    ;  uncertainty k = 0.169948
        14        15        16        19     9        0.000000        0.339345         3    ;  uncertainty k = 0.226110
        14        15        16        19     9      180.000000        0.053603         4    ;  uncertainty k = 0.060307
        14        15        16        32     9        0.000000        0.262826         1    ;  uncertainty k = 0.566804
        14        15        16        32     9      180.000000        5.937742         2    ;  uncertainty k = 0.117620
        14        15        16        32     9        0.000000        0.981918         3    ;  uncertainty k = 0.259156
        14        15        16        32     9      180.000000        0.107580         4    ;  uncertainty k = 0.078136
        15        14        13        26     9        0.000000        0.310821         1    ;  uncertainty k = 0.505743
        15        14        13        26     9      180.000000       -2.287694         2    ;  uncertainty k = 0.330897
        15        14        13        26     9        0.000000        1.418802         3    ;  uncertainty k = 0.123130
        15        14        13        26     9      180.000000        0.033435         4    ;  uncertainty k = 0.057093
        15        14        13        27     9        0.000000        0.310821         1    ;  uncertainty k = 0.505743
        15        14        13        27     9      180.000000       -2.287694         2    ;  uncertainty k = 0.330897
        15        14        13        27     9        0.000000        1.418802         3    ;  uncertainty k = 0.123130
        15        14        13        27     9      180.000000        0.033435         4    ;  uncertainty k = 0.057093
        15        16        19        18     9        0.000000       -0.073146         1    ;  uncertainty k = 0.314691
        15        16        19        18     9      180.000000       12.296388         2    ;  uncertainty k = 0.355317
        15        16        19        18     9        0.000000        1.284344         3    ;  uncertainty k = 0.217024
        15        16        19        18     9      180.000000        1.655773         4    ;  uncertainty k = 0.166565
        15        16        19        30     9        0.000000       -0.079985         1    ;  uncertainty k = 0.247801
        15        16        19        30     9      180.000000        9.356480         2    ;  uncertainty k = 0.482251
        15        16        19        30     9        0.000000        0.830283         3    ;  uncertainty k = 0.133940
        15        16        19        30     9      180.000000        1.231814         4    ;  uncertainty k = 0.371290
        15        16        32        31     9        0.000000        0.095566         1    ;  uncertainty k = 0.734812
        15        16        32        31     9      180.000000       10.723172         2    ;  uncertainty k = 0.391486
        15        16        32        31     9        0.000000        1.289254         3    ;  uncertainty k = 0.348303
        15        16        32        31     9      180.000000        1.546746         4    ;  uncertainty k = 0.196812
        15        16        32        33     9        0.000000        0.032140         1    ;  uncertainty k = 0.867814
        15        16        32        33     9      180.000000       11.733285         2    ;  uncertainty k = 0.190220
        15        16        32        33     9        0.000000        0.853952         3    ;  uncertainty k = 0.234641
        15        16        32        33     9      180.000000        1.355094         4    ;  uncertainty k = 0.323689
        16        15        14        28     9        0.000000        0.930797         1    ;  uncertainty k = 0.899347
        16        15        14        28     9      180.000000       -1.240115         2    ;  uncertainty k = 0.128045
        16        15        14        28     9        0.000000        0.627988         3    ;  uncertainty k = 0.061822
        16        15        14        28     9      180.000000        0.228016         4    ;  uncertainty k = 0.056514
        16        15        14        29     9        0.000000        0.930797         1    ;  uncertainty k = 0.899347
        16        15        14        29     9      180.000000       -1.240115         2    ;  uncertainty k = 0.128045
        16        15        14        29     9        0.000000        0.627988         3    ;  uncertainty k = 0.061822
        16        15        14        29     9      180.000000        0.228016         4    ;  uncertainty k = 0.056514
        16        19        18        17     9        0.000000       -0.064458         1    ;  uncertainty k = 0.141008
        16        19        18        17     9      180.000000       14.083633         2    ;  uncertainty k = 0.402491
        16        19        18        17     9        0.000000       -1.149082         3    ;  uncertainty k = 0.514117
        16        19        18        17     9      180.000000        0.713690         4    ;  uncertainty k = 0.289229
        16        19        18        37     9        0.000000        0.045881         1    ;  uncertainty k = 0.275762
        16        19        18        37     9      180.000000        7.355393         2    ;  uncertainty k = 0.340911
        16        19        18        37     9        0.000000        1.335762         3    ;  uncertainty k = 0.291180
        16        19        18        37     9      180.000000        1.687721         4    ;  uncertainty k = 0.067906
        16        32        31        17     9        0.000000       -0.138707         1    ;  uncertainty k = 0.127495
        16        32        31        17     9      180.000000        8.094913         2    ;  uncertainty k = 0.438506
        16        32        31        17     9        0.000000        0.433932         3    ;  uncertainty k = 0.357457
        16        32        31        17     9      180.000000        1.245771         4    ;  uncertainty k = 0.306048
        16        32        31        36     9        0.000000        0.270525         1    ;  uncertainty k = 0.417490
        16        32        31        36     9      180.000000        7.633716         2    ;  uncertainty k = 0.421123
        16        32        31        36     9        0.000000        1.397711         3    ;  uncertainty k = 0.306132
        16        32        31        36     9      180.000000        1.603143         4    ;  uncertainty k = 0.273992
        16        32        33        34     9        0.000000       -3.441569         1    ;  uncertainty k = 0.979225
        16        32        33        34     9      180.000000        0.443893         2    ;  uncertainty k = 0.786741
        16        32        33        34     9        0.000000        0.322785         3    ;  uncertainty k = 0.248504
        16        32        33        34     9      180.000000        0.533473         4    ;  uncertainty k = 0.225529
        16        32        33        39     9        0.000000        0.786552         1    ;  uncertainty k = 0.637921
        16        32        33        39     9      180.000000        2.058481         2    ;  uncertainty k = 0.443234
        16        32        33        39     9        0.000000        0.098200         3    ;  uncertainty k = 0.184466
        16        32        33        39     9      180.000000        0.181052         4    ;  uncertainty k = 0.057058
        16        32        33        40     9        0.000000        0.786552         1    ;  uncertainty k = 0.637921
        16        32        33        40     9      180.000000        2.058481         2    ;  uncertainty k = 0.443234
        16        32        33        40     9        0.000000        0.098200         3    ;  uncertainty k = 0.184466
        16        32        33        40     9      180.000000        0.181052         4    ;  uncertainty k = 0.057058
        17        18        19        30     9        0.000000        0.235639         1    ;  uncertainty k = 0.301546
        17        18        19        30     9      180.000000        7.465303         2    ;  uncertainty k = 0.256743
        17        18        19        30     9        0.000000        1.485159         3    ;  uncertainty k = 0.297304
        17        18        19        30     9      180.000000        1.791371         4    ;  uncertainty k = 0.090695
        17        31        32        33     9        0.000000        0.398966         1    ;  uncertainty k = 0.574833
        17        31        32        33     9      180.000000        7.377392         2    ;  uncertainty k = 0.283471
        17        31        32        33     9        0.000000        1.399521         3    ;  uncertainty k = 0.276724
        17        31        32        33     9      180.000000        1.752493         4    ;  uncertainty k = 0.178012
        17        31        36        35     9        0.000000       -2.345394         1    ;  uncertainty k = 0.602467
        17        31        36        35     9      180.000000        0.553505         2    ;  uncertainty k = 0.437422
        17        31        36        35     9        0.000000        0.079207         3    ;  uncertainty k = 0.094518
        17        31        36        35     9      180.000000        0.425267         4    ;  uncertainty k = 0.049988
        17        31        36        45     9        0.000000        0.709982         1    ;  uncertainty k = 0.223860
        17        31        36        45     9      180.000000        1.539122         2    ;  uncertainty k = 0.107198
        17        31        36        45     9        0.000000        0.037309         3    ;  uncertainty k = 0.135276
        17        31        36        45     9      180.000000        0.147331         4    ;  uncertainty k = 0.038275
        17        31        36        46     9        0.000000        0.709982         1    ;  uncertainty k = 0.223860
        17        31        36        46     9      180.000000        1.539122         2    ;  uncertainty k = 0.107198
        17        31        36        46     9        0.000000        0.037309         3    ;  uncertainty k = 0.135276
        17        31        36        46     9      180.000000        0.147331         4    ;  uncertainty k = 0.038275
        18        17        31        32     9        0.000000       -0.147001         1    ;  uncertainty k = 0.112557
        18        17        31        32     9      180.000000       11.127989         2    ;  uncertainty k = 0.450119
        18        17        31        32     9        0.000000       -0.328043         3    ;  uncertainty k = 0.569313
        18        17        31        32     9      180.000000        0.923931         4    ;  uncertainty k = 0.335124
        18        17        31        36     9        0.000000        0.150453         1    ;  uncertainty k = 0.194468
        18        17        31        36     9      180.000000       10.368630         2    ;  uncertainty k = 0.159894
        18        17        31        36     9        0.000000        1.365899         3    ;  uncertainty k = 0.164460
        18        17        31        36     9      180.000000        1.691296         4    ;  uncertainty k = 0.184202
        18        19        16        32     9        0.000000        0.076301         1    ;  uncertainty k = 0.114951
        18        19        16        32     9      180.000000        8.485474         2    ;  uncertainty k = 0.522286
        18        19        16        32     9        0.000000        0.370156         3    ;  uncertainty k = 0.330017
        18        19        16        32     9      180.000000        1.429286         4    ;  uncertainty k = 0.166069
        19        16        32        31     9        0.000000       -0.129937         1    ;  uncertainty k = 0.390172
        19        16        32        31     9      180.000000        5.949540         2    ;  uncertainty k = 1.339012
        19        16        32        31     9        0.000000        0.546385         3    ;  uncertainty k = 0.537918
        19        16        32        31     9      180.000000        1.320312         4    ;  uncertainty k = 0.288701
        19        16        32        33     9        0.000000        0.117335         1    ;  uncertainty k = 0.400112
        19        16        32        33     9      180.000000        7.088559         2    ;  uncertainty k = 0.627972
        19        16        32        33     9        0.000000        1.260258         3    ;  uncertainty k = 0.184952
        19        16        32        33     9      180.000000        1.686618         4    ;  uncertainty k = 0.282927
        19        18        17        31     9        0.000000       -0.042262         1    ;  uncertainty k = 0.184342
        19        18        17        31     9      180.000000       14.378687         2    ;  uncertainty k = 0.397607
        19        18        17        31     9        0.000000       -0.945037         3    ;  uncertainty k = 0.487323
        19        18        17        31     9      180.000000        0.767164         4    ;  uncertainty k = 0.315437
        19        18        17        38     9        0.000000        0.229981         1    ;  uncertainty k = 0.206735
        19        18        17        38     9      180.000000        8.064270         2    ;  uncertainty k = 0.268538
        19        18        17        38     9        0.000000        1.490182         3    ;  uncertainty k = 0.303642
        19        18        17        38     9      180.000000        1.854909         4    ;  uncertainty k = 0.179075
        20         6         5        47     9        0.000000        0.248356         1    ;  uncertainty k = 0.309441
        20         6         5        47     9      180.000000        6.219890         2    ;  uncertainty k = 0.560809
        20         6         5        47     9        0.000000        1.223843         3    ;  uncertainty k = 0.395076
        20         6         5        47     9      180.000000        0.794522         4    ;  uncertainty k = 0.403871
        20         6         7        21     9        0.000000        0.067635         1    ;  uncertainty k = 0.257851
        20         6         7        21     9      180.000000        7.678575         2    ;  uncertainty k = 0.249765
        20         6         7        21     9        0.000000       -0.249178         3    ;  uncertainty k = 0.224083
        20         6         7        21     9      180.000000        0.128053         4    ;  uncertainty k = 0.127116
        21         7         8        22     9        0.000000        0.024825         1    ;  uncertainty k = 0.154579
        21         7         8        22     9      180.000000        6.825470         2    ;  uncertainty k = 0.478217
        21         7         8        22     9        0.000000       -0.239724         3    ;  uncertainty k = 0.197508
        21         7         8        22     9      180.000000        0.091582         4    ;  uncertainty k = 0.138206
        22         8         9        23     9        0.000000        0.081241         1    ;  uncertainty k = 0.094303
        22         8         9        23     9      180.000000        7.822590         2    ;  uncertainty k = 0.225676
        22         8         9        23     9        0.000000       -0.195366         3    ;  uncertainty k = 0.265935
        22         8         9        23     9      180.000000        0.166865         4    ;  uncertainty k = 0.178530
        24        12        13        26     9        0.000000        0.854395         1    ;  uncertainty k = 0.155276
        24        12        13        26     9      180.000000       -0.685440         2    ;  uncertainty k = 0.292030
        24        12        13        26     9        0.000000        0.190992         3    ;  uncertainty k = 0.067388
        24        12        13        26     9      180.000000        0.009063         4    ;  uncertainty k = 0.043003
        24        12        13        27     9        0.000000        0.854395         1    ;  uncertainty k = 0.155276
        24        12        13        27     9      180.000000       -0.685440         2    ;  uncertainty k = 0.292030
        24        12        13        27     9        0.000000        0.190992         3    ;  uncertainty k = 0.067388
        24        12        13        27     9      180.000000        0.009063         4    ;  uncertainty k = 0.043003
        25        12        13        26     9        0.000000        0.854395         1    ;  uncertainty k = 0.155276
        25        12        13        26     9      180.000000       -0.685440         2    ;  uncertainty k = 0.292030
        25        12        13        26     9        0.000000        0.190992         3    ;  uncertainty k = 0.067388
        25        12        13        26     9      180.000000        0.009063         4    ;  uncertainty k = 0.043003
        25        12        13        27     9        0.000000        0.854395         1    ;  uncertainty k = 0.155276
        25        12        13        27     9      180.000000       -0.685440         2    ;  uncertainty k = 0.292030
        25        12        13        27     9        0.000000        0.190992         3    ;  uncertainty k = 0.067388
        25        12        13        27     9      180.000000        0.009063         4    ;  uncertainty k = 0.043003
        26        13        14        28     9        0.000000        0.460274         1    ;  uncertainty k = 0.135866
        26        13        14        28     9      180.000000       -0.427947         2    ;  uncertainty k = 0.149813
        26        13        14        28     9        0.000000        0.105029         3    ;  uncertainty k = 0.082054
        26        13        14        28     9      180.000000       -0.039364         4    ;  uncertainty k = 0.072173
        26        13        14        29     9        0.000000        0.460274         1    ;  uncertainty k = 0.135866
        26        13        14        29     9      180.000000       -0.427947         2    ;  uncertainty k = 0.149813
        26        13        14        29     9        0.000000        0.105029         3    ;  uncertainty k = 0.082054
        26        13        14        29     9      180.000000       -0.039364         4    ;  uncertainty k = 0.072173
        27        13        14        28     9        0.000000        0.460274         1    ;  uncertainty k = 0.135866
        27        13        14        28     9      180.000000       -0.427947         2    ;  uncertainty k = 0.149813
        27        13        14        28     9        0.000000        0.105029         3    ;  uncertainty k = 0.082054
        27        13        14        28     9      180.000000       -0.039364         4    ;  uncertainty k = 0.072173
        27        13        14        29     9        0.000000        0.460274         1    ;  uncertainty k = 0.135866
        27        13        14        29     9      180.000000       -0.427947         2    ;  uncertainty k = 0.149813
        27        13        14        29     9        0.000000        0.105029         3    ;  uncertainty k = 0.082054
        27        13        14        29     9      180.000000       -0.039364         4    ;  uncertainty k = 0.072173
        30        19        16        32     9        0.000000        0.190578         1    ;  uncertainty k = 0.214052
        30        19        16        32     9      180.000000        5.912338         2    ;  uncertainty k = 0.453968
        30        19        16        32     9        0.000000        1.524202         3    ;  uncertainty k = 0.400170
        30        19        16        32     9      180.000000        1.698663         4    ;  uncertainty k = 0.067244
        30        19        18        37     9        0.000000       -0.142034         1    ;  uncertainty k = 0.097932
        30        19        18        37     9      180.000000        7.297292         2    ;  uncertainty k = 0.477724
        30        19        18        37     9        0.000000       -0.374495         3    ;  uncertainty k = 0.272466
        30        19        18        37     9      180.000000        0.105308         4    ;  uncertainty k = 0.132005
        31        17        18        37     9        0.000000        0.256332         1    ;  uncertainty k = 0.177395
        31        17        18        37     9      180.000000        7.793367         2    ;  uncertainty k = 0.339388
        31        17        18        37     9        0.000000        1.442668         3    ;  uncertainty k = 0.304091
        31        17        18        37     9      180.000000        1.770159         4    ;  uncertainty k = 0.156781
        31        32        33        34     9        0.000000       -1.764883         1    ;  uncertainty k = 1.333144
        31        32        33        34     9      180.000000        1.219442         2    ;  uncertainty k = 0.760275
        31        32        33        34     9        0.000000       -0.366684         3    ;  uncertainty k = 0.155468
        31        32        33        34     9      180.000000        0.677023         4    ;  uncertainty k = 0.119161
        31        32        33        39     9        0.000000       -0.939133         1    ;  uncertainty k = 0.307029
        31        32        33        39     9      180.000000        1.898120         2    ;  uncertainty k = 0.216612
        31        32        33        39     9        0.000000        0.590529         3    ;  uncertainty k = 0.177713
        31        32        33        39     9      180.000000        0.072345         4    ;  uncertainty k = 0.061884
        31        32        33        40     9        0.000000       -0.939133         1    ;  uncertainty k = 0.307029
        31        32        33        40     9      180.000000        1.898120         2    ;  uncertainty k = 0.216612
        31        32        33        40     9        0.000000        0.590529         3    ;  uncertainty k = 0.177713
        31        32        33        40     9      180.000000        0.072345         4    ;  uncertainty k = 0.061884
        31        36        35        34     9        0.000000       -4.835006         1    ;  uncertainty k = 0.723930
        31        36        35        34     9      180.000000        0.212703         2    ;  uncertainty k = 0.201787
        31        36        35        34     9        0.000000        1.502086         3    ;  uncertainty k = 0.112721
        31        36        35        34     9      180.000000       -0.828389         4    ;  uncertainty k = 0.095016
        31        36        35        43     9        0.000000       -0.615054         1    ;  uncertainty k = 0.354549
        31        36        35        43     9      180.000000       -0.115527         2    ;  uncertainty k = 0.145714
        31        36        35        43     9        0.000000        0.995023         3    ;  uncertainty k = 0.140066
        31        36        35        43     9      180.000000       -0.002685         4    ;  uncertainty k = 0.105777
        31        36        35        44     9        0.000000       -0.615054         1    ;  uncertainty k = 0.354549
        31        36        35        44     9      180.000000       -0.115527         2    ;  uncertainty k = 0.145714
        31        36        35        44     9        0.000000        0.995023         3    ;  uncertainty k = 0.140066
        31        36        35        44     9      180.000000       -0.002685         4    ;  uncertainty k = 0.105777
        32        31        17        38     9        0.000000        0.151603         1    ;  uncertainty k = 0.407249
        32        31        17        38     9      180.000000        6.718942         2    ;  uncertainty k = 0.445742
        32        31        17        38     9        0.000000        1.488137         3    ;  uncertainty k = 0.271114
        32        31        17        38     9      180.000000        1.615356         4    ;  uncertainty k = 0.090152
        32        31        36        35     9        0.000000       -2.152683         1    ;  uncertainty k = 0.837255
        32        31        36        35     9      180.000000        1.671800         2    ;  uncertainty k = 0.998598
        32        31        36        35     9        0.000000       -0.101430         3    ;  uncertainty k = 0.201371
        32        31        36        35     9      180.000000        0.569965         4    ;  uncertainty k = 0.176098
        32        31        36        45     9        0.000000       -0.925743         1    ;  uncertainty k = 0.167023
        32        31        36        45     9      180.000000        1.795094         2    ;  uncertainty k = 0.143000
        32        31        36        45     9        0.000000        0.734191         3    ;  uncertainty k = 0.110318
        32        31        36        45     9      180.000000        0.112070         4    ;  uncertainty k = 0.051084
        32        31        36        46     9        0.000000       -0.925743         1    ;  uncertainty k = 0.167023
        32        31        36        46     9      180.000000        1.795094         2    ;  uncertainty k = 0.143000
        32        31        36        46     9        0.000000        0.734191         3    ;  uncertainty k = 0.110318
        32        31        36        46     9      180.000000        0.112070         4    ;  uncertainty k = 0.051084
        32        33        34        35     9        0.000000       -4.521694         1    ;  uncertainty k = 1.042430
        32        33        34        35     9      180.000000       -0.103255         2    ;  uncertainty k = 0.192525
        32        33        34        35     9        0.000000        1.522939         3    ;  uncertainty k = 0.201051
        32        33        34        35     9      180.000000       -0.849627         4    ;  uncertainty k = 0.134564
        32        33        34        41     9        0.000000       -0.656785         1    ;  uncertainty k = 0.565034
        32        33        34        41     9      180.000000       -0.133661         2    ;  uncertainty k = 0.154525
        32        33        34        41     9        0.000000        1.078884         3    ;  uncertainty k = 0.106688
        32        33        34        41     9      180.000000       -0.020136         4    ;  uncertainty k = 0.095973
        32        33        34        42     9        0.000000       -0.656785         1    ;  uncertainty k = 0.565034
        32        33        34        42     9      180.000000       -0.133661         2    ;  uncertainty k = 0.154525
        32        33        34        42     9        0.000000        1.078884         3    ;  uncertainty k = 0.106688
        32        33        34        42     9      180.000000       -0.020136         4    ;  uncertainty k = 0.095973
        33        32        31        36     9        0.000000       -0.268723         1    ;  uncertainty k = 0.820160
        33        32        31        36     9      180.000000        7.628869         2    ;  uncertainty k = 0.764887
        33        32        31        36     9        0.000000        1.080290         3    ;  uncertainty k = 0.258801
        33        32        31        36     9      180.000000        1.026387         4    ;  uncertainty k = 0.266976
        33        34        35        36     9        0.000000       -8.259257         1    ;  uncertainty k = 1.607179
        33        34        35        36     9      180.000000        0.416541         2    ;  uncertainty k = 0.669116
        33        34        35        36     9        0.000000        1.561832         3    ;  uncertainty k = 0.163131
        33        34        35        36     9      180.000000       -1.103027         4    ;  uncertainty k = 0.232856
        33        34        35        43     9        0.000000       -1.175768         1    ;  uncertainty k = 0.370302
        33        34        35        43     9      180.000000       -0.637755         2    ;  uncertainty k = 0.330619
        33        34        35        43     9        0.000000        0.491754         3    ;  uncertainty k = 0.141319
        33        34        35        43     9      180.000000        0.074391         4    ;  uncertainty k = 0.041502
        33        34        35        44     9        0.000000       -1.175768         1    ;  uncertainty k = 0.370302
        33        34        35        44     9      180.000000       -0.637755         2    ;  uncertainty k = 0.330619
        33        34        35        44     9        0.000000        0.491754         3    ;  uncertainty k = 0.141319
        33        34        35        44     9      180.000000        0.074391         4    ;  uncertainty k = 0.041502
        34        35        36        45     9        0.000000       -0.358169         1    ;  uncertainty k = 0.192234
        34        35        36        45     9      180.000000       -0.917354         2    ;  uncertainty k = 0.226214
        34        35        36        45     9        0.000000        0.527646         3    ;  uncertainty k = 0.097383
        34        35        36        45     9      180.000000        0.191729         4    ;  uncertainty k = 0.085691
        34        35        36        46     9        0.000000       -0.358169         1    ;  uncertainty k = 0.192234
        34        35        36        46     9      180.000000       -0.917354         2    ;  uncertainty k = 0.226214
        34        35        36        46     9        0.000000        0.527646         3    ;  uncertainty k = 0.097383
        34        35        36        46     9      180.000000        0.191729         4    ;  uncertainty k = 0.085691
        35        34        33        39     9        0.000000       -0.232173         1    ;  uncertainty k = 0.237181
        35        34        33        39     9      180.000000       -0.918764         2    ;  uncertainty k = 0.298123
        35        34        33        39     9        0.000000        0.515870         3    ;  uncertainty k = 0.104247
        35        34        33        39     9      180.000000        0.205814         4    ;  uncertainty k = 0.114928
        35        34        33        40     9        0.000000       -0.232173         1    ;  uncertainty k = 0.237181
        35        34        33        40     9      180.000000       -0.918764         2    ;  uncertainty k = 0.298123
        35        34        33        40     9        0.000000        0.515870         3    ;  uncertainty k = 0.104247
        35        34        33        40     9      180.000000        0.205814         4    ;  uncertainty k = 0.114928
        36        31        17        38     9        0.000000       -0.510334         1    ;  uncertainty k = 0.518529
        36        31        17        38     9      180.000000        8.240943         2    ;  uncertainty k = 0.196354
        36        31        17        38     9        0.000000        0.710310         3    ;  uncertainty k = 0.246052
        36        31        17        38     9      180.000000        1.077176         4    ;  uncertainty k = 0.144053
        36        35        34        41     9        0.000000       -1.216939         1    ;  uncertainty k = 0.385323
        36        35        34        41     9      180.000000       -0.627823         2    ;  uncertainty k = 0.310710
        36        35        34        41     9        0.000000        0.493226         3    ;  uncertainty k = 0.122990
        36        35        34        41     9      180.000000        0.065671         4    ;  uncertainty k = 0.046235
        36        35        34        42     9        0.000000       -1.216939         1    ;  uncertainty k = 0.385323
        36        35        34        42     9      180.000000       -0.627823         2    ;  uncertainty k = 0.310710
        36        35        34        42     9        0.000000        0.493226         3    ;  uncertainty k = 0.122990
        36        35        34        42     9      180.000000        0.065671         4    ;  uncertainty k = 0.046235
        37        18        17        38     9        0.000000        0.063349         1    ;  uncertainty k = 0.059069
        37        18        17        38     9      180.000000        7.453401         2    ;  uncertainty k = 0.352726
        37        18        17        38     9        0.000000       -0.349198         3    ;  uncertainty k = 0.301976
        37        18        17        38     9      180.000000        0.131977         4    ;  uncertainty k = 0.130321
        39        33        34        41     9        0.000000        1.433753         1    ;  uncertainty k = 0.145491
        39        33        34        41     9      180.000000        0.146137         2    ;  uncertainty k = 0.221453
        39        33        34        41     9        0.000000        0.549152         3    ;  uncertainty k = 0.098322
        39        33        34        41     9      180.000000        0.077452         4    ;  uncertainty k = 0.060223
        39        33        34        42     9        0.000000        1.433753         1    ;  uncertainty k = 0.145491
        39        33        34        42     9      180.000000        0.146137         2    ;  uncertainty k = 0.221453
        39        33        34        42     9        0.000000        0.549152         3    ;  uncertainty k = 0.098322
        39        33        34        42     9      180.000000        0.077452         4    ;  uncertainty k = 0.060223
        40        33        34        41     9        0.000000        1.433753         1    ;  uncertainty k = 0.145491
        40        33        34        41     9      180.000000        0.146137         2    ;  uncertainty k = 0.221453
        40        33        34        41     9        0.000000        0.549152         3    ;  uncertainty k = 0.098322
        40        33        34        41     9      180.000000        0.077452         4    ;  uncertainty k = 0.060223
        40        33        34        42     9        0.000000        1.433753         1    ;  uncertainty k = 0.145491
        40        33        34        42     9      180.000000        0.146137         2    ;  uncertainty k = 0.221453
        40        33        34        42     9        0.000000        0.549152         3    ;  uncertainty k = 0.098322
        40        33        34        42     9      180.000000        0.077452         4    ;  uncertainty k = 0.060223
        41        34        35        43     9        0.000000        2.412276         1    ;  uncertainty k = 0.492119
        41        34        35        43     9      180.000000        0.005156         2    ;  uncertainty k = 0.201836
        41        34        35        43     9        0.000000        0.279283         3    ;  uncertainty k = 0.048954
        41        34        35        43     9      180.000000        0.067834         4    ;  uncertainty k = 0.056227
        41        34        35        44     9        0.000000        2.412276         1    ;  uncertainty k = 0.492119
        41        34        35        44     9      180.000000        0.005156         2    ;  uncertainty k = 0.201836
        41        34        35        44     9        0.000000        0.279283         3    ;  uncertainty k = 0.048954
        41        34        35        44     9      180.000000        0.067834         4    ;  uncertainty k = 0.056227
        42        34        35        43     9        0.000000        2.412276         1    ;  uncertainty k = 0.492119
        42        34        35        43     9      180.000000        0.005156         2    ;  uncertainty k = 0.201836
        42        34        35        43     9        0.000000        0.279283         3    ;  uncertainty k = 0.048954
        42        34        35        43     9      180.000000        0.067834         4    ;  uncertainty k = 0.056227
        42        34        35        44     9        0.000000        2.412276         1    ;  uncertainty k = 0.492119
        42        34        35        44     9      180.000000        0.005156         2    ;  uncertainty k = 0.201836
        42        34        35        44     9        0.000000        0.279283         3    ;  uncertainty k = 0.048954
        42        34        35        44     9      180.000000        0.067834         4    ;  uncertainty k = 0.056227
        43        35        36        45     9        0.000000        1.477454         1    ;  uncertainty k = 0.138651
        43        35        36        45     9      180.000000        0.162392         2    ;  uncertainty k = 0.243610
        43        35        36        45     9        0.000000        0.532912         3    ;  uncertainty k = 0.096142
        43        35        36        45     9      180.000000        0.065903         4    ;  uncertainty k = 0.059585
        43        35        36        46     9        0.000000        1.477454         1    ;  uncertainty k = 0.138651
        43        35        36        46     9      180.000000        0.162392         2    ;  uncertainty k = 0.243610
        43        35        36        46     9        0.000000        0.532912         3    ;  uncertainty k = 0.096142
        43        35        36        46     9      180.000000        0.065903         4    ;  uncertainty k = 0.059585
        44        35        36        45     9        0.000000        1.477454         1    ;  uncertainty k = 0.138651
        44        35        36        45     9      180.000000        0.162392         2    ;  uncertainty k = 0.243610
        44        35        36        45     9        0.000000        0.532912         3    ;  uncertainty k = 0.096142
        44        35        36        45     9      180.000000        0.065903         4    ;  uncertainty k = 0.059585
        44        35        36        46     9        0.000000        1.477454         1    ;  uncertainty k = 0.138651
        44        35        36        46     9      180.000000        0.162392         2    ;  uncertainty k = 0.243610
        44        35        36        46     9        0.000000        0.532912         3    ;  uncertainty k = 0.096142
        44        35        36        46     9      180.000000        0.065903         4    ;  uncertainty k = 0.059585

[ dihedrals ] ; impropers
;       ai        aj        ak        al funct           phase               k        pn
         2         1         3         4     4      180.000000       64.265870         2    ;  uncertainty k = 0.050254
         2         3         4         1     4      180.000000       64.265870         2    ;  uncertainty k = 0.050254
         2         4         1         3     4      180.000000       64.265870         2    ;  uncertainty k = 0.050254
         4         2        11        47     4      180.000000        5.876961         2    ;  uncertainty k = 0.526652
         4        11        47         2     4      180.000000        5.876961         2    ;  uncertainty k = 0.526652
         4        47         2        11     4      180.000000        5.876961         2    ;  uncertainty k = 0.526652
         5         6        10        47     4      180.000000        1.057348         2    ;  uncertainty k = 0.904202
         5        10        47         6     4      180.000000        1.057348         2    ;  uncertainty k = 0.904202
         5        47         6        10     4      180.000000        1.057348         2    ;  uncertainty k = 0.904202
         6         5         7        20     4      180.000000        2.336037         2    ;  uncertainty k = 0.300690
         6         7        20         5     4      180.000000        2.336037         2    ;  uncertainty k = 0.300690
         6        20         5         7     4      180.000000        2.336037         2    ;  uncertainty k = 0.300690
         7         6         8        21     4      180.000000        3.761581         2    ;  uncertainty k = 0.188539
         7         8        21         6     4      180.000000        3.761581         2    ;  uncertainty k = 0.188539
         7        21         6         8     4      180.000000        3.761581         2    ;  uncertainty k = 0.188539
         8         7         9        22     4      180.000000        3.007353         2    ;  uncertainty k = 0.125347
         8         9        22         7     4      180.000000        3.007353         2    ;  uncertainty k = 0.125347
         8        22         7         9     4      180.000000        3.007353         2    ;  uncertainty k = 0.125347
         9         8        10        23     4      180.000000        4.051631         2    ;  uncertainty k = 0.159442
         9        10        23         8     4      180.000000        4.051631         2    ;  uncertainty k = 0.159442
         9        23         8        10     4      180.000000        4.051631         2    ;  uncertainty k = 0.159442
        11         4        10        12     4      180.000000        2.099178         2    ;  uncertainty k = 0.534873
        11        10        12         4     4      180.000000        2.099178         2    ;  uncertainty k = 0.534873
        11        12         4        10     4      180.000000        2.099178         2    ;  uncertainty k = 0.534873
        16        15        19        32     4      180.000000       17.845937         2    ;  uncertainty k = 0.139539
        16        19        32        15     4      180.000000       17.845937         2    ;  uncertainty k = 0.139539
        16        32        15        19     4      180.000000       17.845937         2    ;  uncertainty k = 0.139539
        17        18        31        38     4      180.000000        2.954316         2    ;  uncertainty k = 0.270368
        17        31        38        18     4      180.000000        2.954316         2    ;  uncertainty k = 0.270368
        17        38        18        31     4      180.000000        2.954316         2    ;  uncertainty k = 0.270368
        18        17        19        37     4      180.000000        4.138437         2    ;  uncertainty k = 0.174744
        18        19        37        17     4      180.000000        4.138437         2    ;  uncertainty k = 0.174744
        18        37        17        19     4      180.000000        4.138437         2    ;  uncertainty k = 0.174744
        19        16        18        30     4      180.000000        2.013010         2    ;  uncertainty k = 0.439002
        19        18        30        16     4      180.000000        2.013010         2    ;  uncertainty k = 0.439002
        19        30        16        18     4      180.000000        2.013010         2    ;  uncertainty k = 0.439002
        31        17        32        36     4      180.000000       17.055030         2    ;  uncertainty k = 0.075140
        31        32        36        17     4      180.000000       17.055030         2    ;  uncertainty k = 0.075140
        31        36        17        32     4      180.000000       17.055030         2    ;  uncertainty k = 0.075140
        32        16        31        33     4      180.000000       15.389549         2    ;  uncertainty k = 0.079280
        32        31        33        16     4      180.000000       15.389549         2    ;  uncertainty k = 0.079280
        32        33        16        31     4      180.000000       15.389549         2    ;  uncertainty k = 0.079280

[ pairs ]
;       ai        aj funct
         1        11     1
         1        47     1
         2         5     1
         2        10     1
         2        12     1
         2        48     1
         3        11     1
         3        47     1
         4         6     1
         4         9     1
         4        13     1
         4        24     1
         4        25     1
         5         8     1
         5        12     1
         5        21     1
         5        23     1
         6         9     1
         6        11     1
         6        22     1
         6        48     1
         7        10     1
         7        23     1
         7        47     1
         8        11     1
         8        20     1
         9        12     1
         9        21     1
         9        47     1
        10        13     1
        10        20     1
        10        22     1
        10        24     1
        10        25     1
        10        48     1
        11        14     1
        11        23     1
        11        26     1
        11        27     1
        11        48     1
        12        15     1
        12        28     1
        12        29     1
        12        47     1
        13        16     1
        14        19     1
        14        24     1
        14        25     1
        14        32     1
        15        18     1
        15        26     1
        15        27     1
        15        30     1
        15        31     1
        15        33     1
        16        17     1
        16        28     1
        16        29     1
        16        34     1
        16        36     1
        16        37     1
        16        39     1
        16        40     1
        17        30     1
        17        33     1
        17        35     1
        17        45     1
        17        46     1
        18        32     1
        18        36     1
        19        31     1
        19        33     1
        19        38     1
        20        21     1
        20        47     1
        21        22     1
        22        23     1
        24        26     1
        24        27     1
        25        26     1
        25        27     1
        26        28     1
        26        29     1
        27        28     1
        27        29     1
        30        32     1
        30        37     1
        31        34     1
        31        37     1
        31        39     1
        31        40     1
        31        43     1
        31        44     1
        32        35     1
        32        38     1
        32        41     1
        32        42     1
        32        45     1
        32        46     1
        33        36     1
        33        43     1
        33        44     1
        34        45     1
        34        46     1
        35        39     1
        35        40     1
        36        38     1
        36        41     1
        36        42     1
        37        38     1
        39        41     1
        39        42     1
        40        41     1
        40        42     1
        41        43     1
        41        44     1
        42        43     1
        42        44     1
        43        45     1
        43        46     1
        44        45     1
        44        46     1
