; ITP file created by ByteFF-joint-25, 2026-02-17 09:20:20.797255

[ atomtypes ]
;name           bonded.type        at.num        mass        charge   ptype           sigma         epsilon
 o0bf                                   8      0.0000       0.00000       A     3.04807e-01     6.12065e-01    ;  uncertainty sigma = 0.000018, epsilon = 0.000616
 c1bf                                   6      0.0000       0.00000       A     3.31436e-01     4.13701e-01    ;  uncertainty sigma = 0.000034, epsilon = 0.002275
 o2bf                                   8      0.0000       0.00000       A     3.04807e-01     6.12065e-01    ;  uncertainty sigma = 0.000018, epsilon = 0.000616
 c3bf                                   6      0.0000       0.00000       A     3.31527e-01     4.12548e-01    ;  uncertainty sigma = 0.000053, epsilon = 0.002675
 c4bf                                   6      0.0000       0.00000       A     3.31556e-01     4.13605e-01    ;  uncertainty sigma = 0.000009, epsilon = 0.001072
 c5bf                                   6      0.0000       0.00000       A     3.31528e-01     4.13216e-01    ;  uncertainty sigma = 0.000006, epsilon = 0.000735
 c6bf                                   6      0.0000       0.00000       A     3.31524e-01     4.13323e-01    ;  uncertainty sigma = 0.000005, epsilon = 0.000518
 c7bf                                   6      0.0000       0.00000       A     3.31524e-01     4.13320e-01    ;  uncertainty sigma = 0.000004, epsilon = 0.000654
 c8bf                                   6      0.0000       0.00000       A     3.31525e-01     4.13140e-01    ;  uncertainty sigma = 0.000007, epsilon = 0.000627
 c9bf                                   6      0.0000       0.00000       A     3.31543e-01     4.12994e-01    ;  uncertainty sigma = 0.000008, epsilon = 0.001189
 c10bf                                  6      0.0000       0.00000       A     3.31576e-01     4.13309e-01    ;  uncertainty sigma = 0.000008, epsilon = 0.001192
 c11bf                                  6      0.0000       0.00000       A     3.39773e-01     4.50718e-01    ;  uncertainty sigma = 0.000020, epsilon = 0.000757
 c12bf                                  6      0.0000       0.00000       A     3.39755e-01     4.50608e-01    ;  uncertainty sigma = 0.000006, epsilon = 0.000953
 c13bf                                  6      0.0000       0.00000       A     3.39778e-01     4.50539e-01    ;  uncertainty sigma = 0.000006, epsilon = 0.000800
 o14bf                                  8      0.0000       0.00000       A     3.15618e-01     3.03538e-01    ;  uncertainty sigma = 0.000015, epsilon = 0.000505
 c15bf                                  6      0.0000       0.00000       A     3.31525e-01     4.13168e-01    ;  uncertainty sigma = 0.000007, epsilon = 0.000705
 c16bf                                  6      0.0000       0.00000       A     3.31522e-01     4.13459e-01    ;  uncertainty sigma = 0.000003, epsilon = 0.000606
 c17bf                                  6      0.0000       0.00000       A     3.31516e-01     4.13267e-01    ;  uncertainty sigma = 0.000003, epsilon = 0.000574
 h18bf                                  1      0.0000       0.00000       A     2.62573e-01     6.69665e-02    ;  uncertainty sigma = 0.000008, epsilon = 0.000474
 h19bf                                  1      0.0000       0.00000       A     2.62567e-01     6.69871e-02    ;  uncertainty sigma = 0.000012, epsilon = 0.000553
 h20bf                                  1      0.0000       0.00000       A     2.62563e-01     6.69792e-02    ;  uncertainty sigma = 0.000011, epsilon = 0.000555
 h21bf                                  1      0.0000       0.00000       A     2.62566e-01     6.69359e-02    ;  uncertainty sigma = 0.000011, epsilon = 0.000323
 h22bf                                  1      0.0000       0.00000       A     2.60038e-01     8.64862e-02    ;  uncertainty sigma = 0.000012, epsilon = 0.000717
 h23bf                                  1      0.0000       0.00000       A     2.60038e-01     8.64862e-02    ;  uncertainty sigma = 0.000012, epsilon = 0.000717
 h24bf                                  1      0.0000       0.00000       A     2.60032e-01     8.63750e-02    ;  uncertainty sigma = 0.000011, epsilon = 0.000877
 h25bf                                  1      0.0000       0.00000       A     2.60032e-01     8.63750e-02    ;  uncertainty sigma = 0.000011, epsilon = 0.000877
 h26bf                                  1      0.0000       0.00000       A     2.42190e-01     8.69771e-02    ;  uncertainty sigma = 0.000031, epsilon = 0.000462
 h27bf                                  1      0.0000       0.00000       A     2.42190e-01     8.69771e-02    ;  uncertainty sigma = 0.000031, epsilon = 0.000462
 h28bf                                  1      0.0000       0.00000       A     2.62557e-01     6.71731e-02    ;  uncertainty sigma = 0.000005, epsilon = 0.000441
 c29bf                                  6      0.0000       0.00000       A     3.31531e-01     4.13194e-01    ;  uncertainty sigma = 0.000008, epsilon = 0.000822
 h30bf                                  1      0.0000       0.00000       A     2.62578e-01     6.70001e-02    ;  uncertainty sigma = 0.000007, epsilon = 0.000524
 h31bf                                  1      0.0000       0.00000       A     2.62573e-01     6.72628e-02    ;  uncertainty sigma = 0.000020, epsilon = 0.000607
 n32bf                                  7      0.0000       0.00000       A     3.20754e-01     8.52244e-01    ;  uncertainty sigma = 0.000047, epsilon = 0.002451
 c33bf                                  6      0.0000       0.00000       A     3.39803e-01     4.50489e-01    ;  uncertainty sigma = 0.000014, epsilon = 0.000905
 c34bf                                  6      0.0000       0.00000       A     3.39772e-01     4.50823e-01    ;  uncertainty sigma = 0.000010, epsilon = 0.000504
 c35bf                                  6      0.0000       0.00000       A     3.31537e-01     4.13173e-01    ;  uncertainty sigma = 0.000007, epsilon = 0.000817
 c36bf                                  6      0.0000       0.00000       A     3.31529e-01     4.13032e-01    ;  uncertainty sigma = 0.000009, epsilon = 0.001008
 c37bf                                  6      0.0000       0.00000       A     3.39772e-01     4.50797e-01    ;  uncertainty sigma = 0.000011, epsilon = 0.000458
 h38bf                                  1      0.0000       0.00000       A     2.60038e-01     8.68099e-02    ;  uncertainty sigma = 0.000011, epsilon = 0.000740
 h39bf                                  1      0.0000       0.00000       A     2.60038e-01     8.68099e-02    ;  uncertainty sigma = 0.000011, epsilon = 0.000740
 h40bf                                  1      0.0000       0.00000       A     2.60023e-01     8.66888e-02    ;  uncertainty sigma = 0.000020, epsilon = 0.000565
 h41bf                                  1      0.0000       0.00000       A     2.60023e-01     8.66888e-02    ;  uncertainty sigma = 0.000020, epsilon = 0.000565
 h42bf                                  1      0.0000       0.00000       A     2.60038e-01     8.68101e-02    ;  uncertainty sigma = 0.000011, epsilon = 0.000740
 h43bf                                  1      0.0000       0.00000       A     2.60038e-01     8.68101e-02    ;  uncertainty sigma = 0.000011, epsilon = 0.000740
 h44bf                                  1      0.0000       0.00000       A     1.10620e-01     4.09731e-02    ;  uncertainty sigma = 0.000138, epsilon = 0.001729

[ moleculetype ]
;name             nrexcl
 MOL                   3

[ atoms ]
;       nr            type      resi   res      atom      cgnr      charge          mass ; qtot
         1            o0bf         1   UNL        o0         1    -0.82702       15.9990 ; qtot   -0.827
         2            c1bf         1   UNL        c1         2     0.92126       12.0110 ; qtot    0.094
         3            o2bf         1   UNL        o2         3    -0.82702       15.9990 ; qtot   -0.733
         4            c3bf         1   UNL        c3         4    -0.10822       12.0110 ; qtot   -0.841
         5            c4bf         1   UNL        c4         5    -0.06744       12.0110 ; qtot   -0.908
         6            c5bf         1   UNL        c5         6    -0.16684       12.0110 ; qtot   -1.075
         7            c6bf         1   UNL        c6         7    -0.11194       12.0110 ; qtot   -1.187
         8            c7bf         1   UNL        c7         8    -0.15971       12.0110 ; qtot   -1.347
         9            c8bf         1   UNL        c8         9    -0.09713       12.0110 ; qtot   -1.444
        10            c9bf         1   UNL        c9        10    -0.10135       12.0110 ; qtot   -1.545
        11           c10bf         1   UNL       c10        11    -0.18594       12.0110 ; qtot   -1.731
        12           c11bf         1   UNL       c11        12    -0.00834       12.0110 ; qtot   -1.740
        13           c12bf         1   UNL       c12        13    -0.09600       12.0110 ; qtot   -1.836
        14           c13bf         1   UNL       c13        14     0.13812       12.0110 ; qtot   -1.698
        15           o14bf         1   UNL       o14        15    -0.33347       15.9990 ; qtot   -2.031
        16           c15bf         1   UNL       c15        16     0.12966       12.0110 ; qtot   -1.901
        17           c16bf         1   UNL       c16        17    -0.08713       12.0110 ; qtot   -1.989
        18           c17bf         1   UNL       c17        18    -0.18872       12.0110 ; qtot   -2.177
        19           h18bf         1   UNL       h18        19     0.13216        1.0080 ; qtot   -2.045
        20           h19bf         1   UNL       h19        20     0.12950        1.0080 ; qtot   -1.916
        21           h20bf         1   UNL       h20        21     0.12900        1.0080 ; qtot   -1.787
        22           h21bf         1   UNL       h21        22     0.13303        1.0080 ; qtot   -1.654
        23           h22bf         1   UNL       h22        23     0.04354        1.0080 ; qtot   -1.610
        24           h23bf         1   UNL       h23        24     0.04354        1.0080 ; qtot   -1.566
        25           h24bf         1   UNL       h24        25     0.05420        1.0080 ; qtot   -1.512
        26           h25bf         1   UNL       h25        26     0.05420        1.0080 ; qtot   -1.458
        27           h26bf         1   UNL       h26        27     0.04445        1.0080 ; qtot   -1.414
        28           h27bf         1   UNL       h27        28     0.04445        1.0080 ; qtot   -1.369
        29           h28bf         1   UNL       h28        29     0.14163        1.0080 ; qtot   -1.228
        30           c29bf         1   UNL       c29        30    -0.16298       12.0110 ; qtot   -1.391
        31           h30bf         1   UNL       h30        31     0.13458        1.0080 ; qtot   -1.256
        32           h31bf         1   UNL       h31        32     0.14177        1.0080 ; qtot   -1.114
        33           n32bf         1   UNL       n32        33    -0.18585       14.0070 ; qtot   -1.300
        34           c33bf         1   UNL       c33        34    -0.08067       12.0110 ; qtot   -1.381
        35           c34bf         1   UNL       c34        35    -0.03467       12.0110 ; qtot   -1.415
        36           c35bf         1   UNL       c35        36    -0.06055       12.0110 ; qtot   -1.476
        37           c36bf         1   UNL       c36        37    -0.10913       12.0110 ; qtot   -1.585
        38           c37bf         1   UNL       c37        38    -0.03192       12.0110 ; qtot   -1.617
        39           h38bf         1   UNL       h38        39     0.05272        1.0080 ; qtot   -1.564
        40           h39bf         1   UNL       h39        40     0.05272        1.0080 ; qtot   -1.512
        41           h40bf         1   UNL       h40        41     0.04496        1.0080 ; qtot   -1.467
        42           h41bf         1   UNL       h41        42     0.04496        1.0080 ; qtot   -1.422
        43           h42bf         1   UNL       h42        43     0.05272        1.0080 ; qtot   -1.369
        44           h43bf         1   UNL       h43        44     0.05272        1.0080 ; qtot   -1.316
        45           h44bf         1   UNL       h44        45     0.31615        1.0080 ; qtot   -1.000

[ bonds ]
;       ai        aj funct               r               k
         1         2     1        0.126489   553283.027930    ;  uncertainty r = 0.000115, k = 9.491850
         2         3     1        0.126489   553283.027930    ;  uncertainty r = 0.000115, k = 9.491850
         2         4     1        0.152875   178456.869971    ;  uncertainty r = 0.000109, k = 53.157083
         4        11     1        0.138845   388969.962598    ;  uncertainty r = 0.000116, k = 35.597318
         4        33     1        0.138411   296910.956104    ;  uncertainty r = 0.000116, k = 16.653525
         5         6     1        0.139909   370024.083301    ;  uncertainty r = 0.000068, k = 3.273406
         5        10     1        0.143429   333658.830957    ;  uncertainty r = 0.000101, k = 12.925109
         5        33     1        0.137190   323439.748047    ;  uncertainty r = 0.000109, k = 15.720627
         6         7     1        0.139204   373030.439502    ;  uncertainty r = 0.000031, k = 1.532197
         6        19     1        0.108908   337826.589355    ;  uncertainty r = 0.000007, k = 0.915296
         7         8     1        0.141248   347880.881299    ;  uncertainty r = 0.000048, k = 2.727051
         7        20     1        0.108787   335143.149902    ;  uncertainty r = 0.000015, k = 1.282440
         8         9     1        0.139156   366705.382715    ;  uncertainty r = 0.000016, k = 3.013067
         8        21     1        0.108813   335291.367285    ;  uncertainty r = 0.000018, k = 0.841713
         9        10     1        0.140712   363994.363184    ;  uncertainty r = 0.000090, k = 9.392181
         9        22     1        0.108826   337192.119873    ;  uncertainty r = 0.000025, k = 2.686180
        10        11     1        0.143927   250387.756689    ;  uncertainty r = 0.000100, k = 20.205925
        11        12     1        0.150056   234448.846484    ;  uncertainty r = 0.000153, k = 11.938075
        12        13     1        0.153885   206360.273438    ;  uncertainty r = 0.000103, k = 7.147654
        12        23     1        0.109683   309037.278027    ;  uncertainty r = 0.000026, k = 1.364430
        12        24     1        0.109683   309037.278027    ;  uncertainty r = 0.000026, k = 1.364430
        13        14     1        0.152194   210115.620288    ;  uncertainty r = 0.000034, k = 2.008155
        13        25     1        0.109664   307643.385986    ;  uncertainty r = 0.000028, k = 1.424205
        13        26     1        0.109664   307643.385986    ;  uncertainty r = 0.000028, k = 1.424205
        14        15     1        0.142364   233541.972656    ;  uncertainty r = 0.000042, k = 6.143674
        14        27     1        0.109778   308083.211621    ;  uncertainty r = 0.000025, k = 1.294494
        14        28     1        0.109778   308083.211621    ;  uncertainty r = 0.000025, k = 1.294494
        15        16     1        0.136759   320920.512207    ;  uncertainty r = 0.000031, k = 2.104369
        16        18     1        0.140203   351789.335889    ;  uncertainty r = 0.000034, k = 3.658060
        16        30     1        0.139969   356407.492285    ;  uncertainty r = 0.000021, k = 4.773073
        17        18     1        0.139749   368191.106201    ;  uncertainty r = 0.000050, k = 4.024413
        17        31     1        0.108886   334901.466699    ;  uncertainty r = 0.000010, k = 1.577246
        17        37     1        0.139384   366671.009766    ;  uncertainty r = 0.000039, k = 5.807645
        18        29     1        0.108794   338080.377148    ;  uncertainty r = 0.000023, k = 0.758572
        30        32     1        0.108889   337861.600732    ;  uncertainty r = 0.000014, k = 2.377327
        30        36     1        0.139221   371912.041797    ;  uncertainty r = 0.000053, k = 4.183143
        33        45     1        0.101525   411016.174658    ;  uncertainty r = 0.000192, k = 19.532863
        34        35     1        0.155264   223626.577051    ;  uncertainty r = 0.000061, k = 3.296698
        34        38     1        0.155226   224515.983496    ;  uncertainty r = 0.000059, k = 3.590703
        34        41     1        0.109453   306675.555078    ;  uncertainty r = 0.000013, k = 2.286936
        34        42     1        0.109453   306675.555078    ;  uncertainty r = 0.000013, k = 2.286936
        35        36     1        0.151806   279420.921875    ;  uncertainty r = 0.000023, k = 9.183436
        35        43     1        0.109659   306829.875830    ;  uncertainty r = 0.000029, k = 2.202601
        35        44     1        0.109659   306829.875830    ;  uncertainty r = 0.000029, k = 2.202601
        36        37     1        0.140174   358847.256641    ;  uncertainty r = 0.000053, k = 6.922687
        37        38     1        0.151813   281733.690186    ;  uncertainty r = 0.000029, k = 7.297058
        38        39     1        0.109655   306903.601465    ;  uncertainty r = 0.000030, k = 2.231949
        38        40     1        0.109655   306903.601465    ;  uncertainty r = 0.000030, k = 2.231949

[ angles ]
;       ai        aj        ak funct           theta             cth
         1         2         3     1      131.490799      799.912859    ;  uncertainty theta = 0.007122, k = 0.161146
         1         2         4     1      115.643898      409.958900    ;  uncertainty theta = 0.009941, k = 0.278481
         2         4        11     1      129.691666      294.711298    ;  uncertainty theta = 0.010379, k = 0.154712
         2         4        33     1      117.855209      349.663901    ;  uncertainty theta = 0.005899, k = 0.287676
         3         2         4     1      115.643898      409.958900    ;  uncertainty theta = 0.009941, k = 0.278481
         4        11        10     1      107.813744      761.507600    ;  uncertainty theta = 0.003114, k = 0.233379
         4        11        12     1      125.834373      348.251252    ;  uncertainty theta = 0.008524, k = 0.203092
         4        33         5     1      106.686867      870.555270    ;  uncertainty theta = 0.004731, k = 0.157374
         4        33        45     1      118.324951      293.095597    ;  uncertainty theta = 0.017038, k = 0.289786
         5         6         7     1      117.288712      532.685108    ;  uncertainty theta = 0.002732, k = 0.138286
         5         6        19     1      122.416870      294.044173    ;  uncertainty theta = 0.002439, k = 0.026234
         5        10         9     1      116.726723      409.397211    ;  uncertainty theta = 0.004491, k = 0.081187
         5        10        11     1      107.622475      685.489179    ;  uncertainty theta = 0.004472, k = 0.334622
         5        33        45     1      119.518555      279.940091    ;  uncertainty theta = 0.027559, k = 0.287070
         6         5        10     1      120.341995      378.416324    ;  uncertainty theta = 0.003053, k = 0.079333
         6         5        33     1      130.070251      406.372596    ;  uncertainty theta = 0.003047, k = 0.189160
         6         7         8     1      122.110641      522.210041    ;  uncertainty theta = 0.001703, k = 0.050914
         6         7        20     1      119.408218      283.874626    ;  uncertainty theta = 0.001884, k = 0.037783
         7         6        19     1      121.416527      285.300171    ;  uncertainty theta = 0.001028, k = 0.037490
         7         8         9     1      121.942673      521.393620    ;  uncertainty theta = 0.001697, k = 0.032913
         7         8        21     1      119.651100      288.114903    ;  uncertainty theta = 0.001746, k = 0.035440
         8         7        20     1      119.801102      287.497128    ;  uncertainty theta = 0.001585, k = 0.046675
         8         9        10     1      119.165207      547.786701    ;  uncertainty theta = 0.003326, k = 0.038562
         8         9        22     1      120.508347      285.672566    ;  uncertainty theta = 0.001453, k = 0.031601
         9         8        21     1      119.815613      287.517590    ;  uncertainty theta = 0.001890, k = 0.024499
         9        10        11     1      132.186111      358.431813    ;  uncertainty theta = 0.003911, k = 0.091946
        10         5        33     1      107.610229      677.054783    ;  uncertainty theta = 0.004088, k = 0.326769
        10         9        22     1      121.598999      289.048093    ;  uncertainty theta = 0.003949, k = 0.074173
        10        11        12     1      125.270729      364.592289    ;  uncertainty theta = 0.008077, k = 0.215292
        11         4        33     1      110.824791      694.108082    ;  uncertainty theta = 0.003478, k = 0.245195
        11        12        13     1      111.535912      545.701979    ;  uncertainty theta = 0.004629, k = 0.049601
        11        12        23     1      107.023758      409.119878    ;  uncertainty theta = 0.002156, k = 0.076181
        11        12        24     1      107.023758      409.119878    ;  uncertainty theta = 0.002156, k = 0.076181
        12        13        14     1      109.894981      550.190254    ;  uncertainty theta = 0.002834, k = 0.052549
        12        13        25     1      107.780540      395.334819    ;  uncertainty theta = 0.002719, k = 0.061247
        12        13        26     1      107.780540      395.334819    ;  uncertainty theta = 0.002719, k = 0.061247
        13        12        23     1      106.925919      401.105057    ;  uncertainty theta = 0.002530, k = 0.096026
        13        12        24     1      106.925919      401.105057    ;  uncertainty theta = 0.002530, k = 0.096026
        13        14        15     1      109.206528      593.056718    ;  uncertainty theta = 0.001619, k = 0.046214
        13        14        27     1      109.830811      407.619828    ;  uncertainty theta = 0.001557, k = 0.042403
        13        14        28     1      109.830811      407.619828    ;  uncertainty theta = 0.001557, k = 0.042403
        14        13        25     1      106.762894      398.571169    ;  uncertainty theta = 0.001630, k = 0.026064
        14        13        26     1      106.762894      398.571169    ;  uncertainty theta = 0.001630, k = 0.026064
        14        15        16     1      110.306740      510.042407    ;  uncertainty theta = 0.001643, k = 0.042333
        15        14        27     1      106.873878      432.519021    ;  uncertainty theta = 0.001594, k = 0.025099
        15        14        28     1      106.873878      432.519021    ;  uncertainty theta = 0.001594, k = 0.025099
        15        16        18     1      119.718239      426.794367    ;  uncertainty theta = 0.004165, k = 0.059965
        15        16        30     1      119.680283      428.669078    ;  uncertainty theta = 0.003944, k = 0.071070
        16        18        17     1      120.012718      528.183618    ;  uncertainty theta = 0.002537, k = 0.039048
        16        18        29     1      119.255447      272.341716    ;  uncertainty theta = 0.002011, k = 0.047104
        16        30        32     1      119.765869      271.091228    ;  uncertainty theta = 0.001701, k = 0.045620
        16        30        36     1      117.743019      529.068894    ;  uncertainty theta = 0.001626, k = 0.138048
        17        18        29     1      121.184364      287.735007    ;  uncertainty theta = 0.002196, k = 0.031319
        17        37        36     1      118.356766      431.277854    ;  uncertainty theta = 0.002558, k = 0.112156
        17        37        38     1      128.977203      406.551037    ;  uncertainty theta = 0.000708, k = 0.044075
        18        16        30     1      122.430466      387.012179    ;  uncertainty theta = 0.004006, k = 0.080152
        18        17        31     1      120.047165      280.363816    ;  uncertainty theta = 0.000752, k = 0.068293
        18        17        37     1      119.730812      532.329664    ;  uncertainty theta = 0.001688, k = 0.011924
        23        12        24     1      104.532631      313.868120    ;  uncertainty theta = 0.003533, k = 0.064476
        25        13        26     1      105.092697      317.561425    ;  uncertainty theta = 0.002566, k = 0.027591
        27        14        28     1      107.447594      332.074994    ;  uncertainty theta = 0.001882, k = 0.039984
        30        36        35     1      128.467560      396.699522    ;  uncertainty theta = 0.001819, k = 0.141763
        30        36        37     1      119.979538      436.085023    ;  uncertainty theta = 0.002919, k = 0.132102
        31        17        37     1      120.783951      281.806790    ;  uncertainty theta = 0.001002, k = 0.059077
        32        30        36     1      121.392067      287.200643    ;  uncertainty theta = 0.001592, k = 0.090364
        34        35        36     1      104.651245      756.651910    ;  uncertainty theta = 0.001099, k = 0.164354
        34        35        43     1      109.706802      404.588797    ;  uncertainty theta = 0.001090, k = 0.045593
        34        35        44     1      109.706802      404.588797    ;  uncertainty theta = 0.001090, k = 0.045593
        34        38        37     1      104.705063      741.040309    ;  uncertainty theta = 0.000930, k = 0.094867
        34        38        39     1      109.693527      404.857831    ;  uncertainty theta = 0.001009, k = 0.043962
        34        38        40     1      109.693527      404.857831    ;  uncertainty theta = 0.001009, k = 0.043962
        35        34        38     1      106.156532      717.205822    ;  uncertainty theta = 0.002218, k = 0.127781
        35        34        41     1      109.373047      418.693421    ;  uncertainty theta = 0.001912, k = 0.041503
        35        34        42     1      109.373047      418.693421    ;  uncertainty theta = 0.001912, k = 0.041503
        35        36        37     1      114.549240      555.163925    ;  uncertainty theta = 0.002279, k = 0.101649
        36        35        43     1      110.259972      398.902992    ;  uncertainty theta = 0.001195, k = 0.049410
        36        35        44     1      110.259972      398.902992    ;  uncertainty theta = 0.001195, k = 0.049410
        36        37        38     1      114.350525      556.985934    ;  uncertainty theta = 0.001310, k = 0.093308
        37        38        39     1      110.342796      399.719158    ;  uncertainty theta = 0.000977, k = 0.041623
        37        38        40     1      110.342796      399.719158    ;  uncertainty theta = 0.000977, k = 0.041623
        38        34        41     1      109.392967      418.436869    ;  uncertainty theta = 0.001914, k = 0.047503
        38        34        42     1      109.392967      418.436869    ;  uncertainty theta = 0.001914, k = 0.047503
        39        38        40     1      104.344971      295.166912    ;  uncertainty theta = 0.002159, k = 0.078764
        41        34        42     1      105.262192      311.468143    ;  uncertainty theta = 0.004374, k = 0.112127
        43        35        44     1      104.361740      296.071724    ;  uncertainty theta = 0.002099, k = 0.077955

[ dihedrals ] ; propers for gromacs 4.5 or higher, use funct 9
;       ai        aj        ak        al funct           phase               k        pn
         1         2         4        11     9        0.000000       -1.372021         1    ;  uncertainty k = 1.492730
         1         2         4        11     9      180.000000        2.371115         2    ;  uncertainty k = 0.300482
         1         2         4        11     9        0.000000        0.292116         3    ;  uncertainty k = 0.252771
         1         2         4        11     9      180.000000        0.155159         4    ;  uncertainty k = 0.093475
         1         2         4        33     9        0.000000        1.707823         1    ;  uncertainty k = 0.704832
         1         2         4        33     9      180.000000        3.884647         2    ;  uncertainty k = 0.565808
         1         2         4        33     9        0.000000        0.749129         3    ;  uncertainty k = 0.264976
         1         2         4        33     9      180.000000        0.174104         4    ;  uncertainty k = 0.159693
         2         4        11        10     9        0.000000        0.658377         1    ;  uncertainty k = 1.317360
         2         4        11        10     9      180.000000       11.269219         2    ;  uncertainty k = 0.349150
         2         4        11        10     9        0.000000        2.080317         3    ;  uncertainty k = 0.240036
         2         4        11        10     9      180.000000        0.676709         4    ;  uncertainty k = 0.169861
         2         4        11        12     9        0.000000        0.204708         1    ;  uncertainty k = 0.747460
         2         4        11        12     9      180.000000        9.233953         2    ;  uncertainty k = 0.447590
         2         4        11        12     9        0.000000        1.675443         3    ;  uncertainty k = 0.293006
         2         4        11        12     9      180.000000        0.426607         4    ;  uncertainty k = 0.323880
         2         4        33         5     9        0.000000       -0.464998         1    ;  uncertainty k = 2.171907
         2         4        33         5     9      180.000000        6.451220         2    ;  uncertainty k = 1.089854
         2         4        33         5     9        0.000000        1.609707         3    ;  uncertainty k = 0.687909
         2         4        33         5     9      180.000000        0.292935         4    ;  uncertainty k = 0.259665
         2         4        33        45     9        0.000000        1.253701         1    ;  uncertainty k = 2.041217
         2         4        33        45     9      180.000000        2.479089         2    ;  uncertainty k = 1.021447
         2         4        33        45     9        0.000000        1.291813         3    ;  uncertainty k = 0.578698
         2         4        33        45     9      180.000000       -0.030601         4    ;  uncertainty k = 0.146306
         3         2         4        11     9        0.000000       -1.372021         1    ;  uncertainty k = 1.492730
         3         2         4        11     9      180.000000        2.371115         2    ;  uncertainty k = 0.300482
         3         2         4        11     9        0.000000        0.292116         3    ;  uncertainty k = 0.252771
         3         2         4        11     9      180.000000        0.155159         4    ;  uncertainty k = 0.093475
         3         2         4        33     9        0.000000        1.707823         1    ;  uncertainty k = 0.704832
         3         2         4        33     9      180.000000        3.884647         2    ;  uncertainty k = 0.565808
         3         2         4        33     9        0.000000        0.749129         3    ;  uncertainty k = 0.264976
         3         2         4        33     9      180.000000        0.174104         4    ;  uncertainty k = 0.159693
         4        11        10         5     9        0.000000        0.171220         1    ;  uncertainty k = 0.432161
         4        11        10         5     9      180.000000       11.967638         2    ;  uncertainty k = 1.294698
         4        11        10         5     9        0.000000       -9.909327         3    ;  uncertainty k = 1.605977
         4        11        10         5     9      180.000000        2.102653         4    ;  uncertainty k = 0.733398
         4        11        10         9     9        0.000000        0.079803         1    ;  uncertainty k = 1.313243
         4        11        10         9     9      180.000000        5.721978         2    ;  uncertainty k = 0.321426
         4        11        10         9     9        0.000000        0.431775         3    ;  uncertainty k = 0.611745
         4        11        10         9     9      180.000000        0.952472         4    ;  uncertainty k = 0.149862
         4        11        12        13     9        0.000000       -0.349976         1    ;  uncertainty k = 1.059919
         4        11        12        13     9      180.000000        1.470982         2    ;  uncertainty k = 0.379967
         4        11        12        13     9        0.000000        0.213574         3    ;  uncertainty k = 0.480671
         4        11        12        13     9      180.000000        0.121645         4    ;  uncertainty k = 0.162937
         4        11        12        23     9        0.000000        1.439359         1    ;  uncertainty k = 0.397283
         4        11        12        23     9      180.000000        2.614207         2    ;  uncertainty k = 0.334496
         4        11        12        23     9        0.000000        0.055715         3    ;  uncertainty k = 0.092065
         4        11        12        23     9      180.000000        0.180012         4    ;  uncertainty k = 0.123046
         4        11        12        24     9        0.000000        1.439359         1    ;  uncertainty k = 0.397283
         4        11        12        24     9      180.000000        2.614207         2    ;  uncertainty k = 0.334496
         4        11        12        24     9        0.000000        0.055715         3    ;  uncertainty k = 0.092065
         4        11        12        24     9      180.000000        0.180012         4    ;  uncertainty k = 0.123046
         4        33         5         6     9        0.000000        0.779094         1    ;  uncertainty k = 1.611142
         4        33         5         6     9      180.000000        6.072861         2    ;  uncertainty k = 1.235288
         4        33         5         6     9        0.000000        0.738725         3    ;  uncertainty k = 0.606503
         4        33         5         6     9      180.000000        0.313530         4    ;  uncertainty k = 0.310389
         4        33         5        10     9        0.000000       -0.304471         1    ;  uncertainty k = 0.989395
         4        33         5        10     9      180.000000       15.047901         2    ;  uncertainty k = 1.046721
         4        33         5        10     9        0.000000       -8.395770         3    ;  uncertainty k = 1.919282
         4        33         5        10     9      180.000000        0.648752         4    ;  uncertainty k = 0.607428
         5         6         7         8     9        0.000000       -0.007204         1    ;  uncertainty k = 0.352017
         5         6         7         8     9      180.000000       16.955015         2    ;  uncertainty k = 0.265826
         5         6         7         8     9        0.000000       -0.377243         3    ;  uncertainty k = 0.370601
         5         6         7         8     9      180.000000        0.608270         4    ;  uncertainty k = 0.292320
         5         6         7        20     9        0.000000        0.031156         1    ;  uncertainty k = 0.336940
         5         6         7        20     9      180.000000       10.941246         2    ;  uncertainty k = 0.419077
         5         6         7        20     9        0.000000        1.421256         3    ;  uncertainty k = 0.272944
         5         6         7        20     9      180.000000        1.557433         4    ;  uncertainty k = 0.258138
         5        10         9         8     9        0.000000        0.010948         1    ;  uncertainty k = 0.402869
         5        10         9         8     9      180.000000       13.710034         2    ;  uncertainty k = 0.163194
         5        10         9         8     9        0.000000       -1.521568         3    ;  uncertainty k = 0.300487
         5        10         9         8     9      180.000000        0.694567         4    ;  uncertainty k = 0.283041
         5        10         9        22     9        0.000000        0.253366         1    ;  uncertainty k = 0.171030
         5        10         9        22     9      180.000000        7.059567         2    ;  uncertainty k = 0.776058
         5        10         9        22     9        0.000000        1.466229         3    ;  uncertainty k = 0.353750
         5        10         9        22     9      180.000000        1.230009         4    ;  uncertainty k = 0.397540
         5        10        11        12     9        0.000000        1.338495         1    ;  uncertainty k = 1.087086
         5        10        11        12     9      180.000000       10.551108         2    ;  uncertainty k = 0.351316
         5        10        11        12     9        0.000000        1.801678         3    ;  uncertainty k = 0.392566
         5        10        11        12     9      180.000000        0.257171         4    ;  uncertainty k = 0.352643
         5        33         4        11     9        0.000000       -0.469081         1    ;  uncertainty k = 0.858054
         5        33         4        11     9      180.000000       14.635346         2    ;  uncertainty k = 0.621844
         5        33         4        11     9        0.000000       -5.847696         3    ;  uncertainty k = 1.154312
         5        33         4        11     9      180.000000        0.763949         4    ;  uncertainty k = 0.332867
         6         5        10         9     9        0.000000       -0.557459         1    ;  uncertainty k = 0.504536
         6         5        10         9     9      180.000000        7.175498         2    ;  uncertainty k = 0.762478
         6         5        10         9     9        0.000000        0.165063         3    ;  uncertainty k = 0.420578
         6         5        10         9     9      180.000000        0.902459         4    ;  uncertainty k = 0.405275
         6         5        10        11     9        0.000000       -0.095996         1    ;  uncertainty k = 0.579182
         6         5        10        11     9      180.000000        7.141608         2    ;  uncertainty k = 0.626861
         6         5        10        11     9        0.000000        0.190982         3    ;  uncertainty k = 0.555203
         6         5        10        11     9      180.000000        1.106105         4    ;  uncertainty k = 0.382286
         6         5        33        45     9        0.000000        1.556211         1    ;  uncertainty k = 0.864779
         6         5        33        45     9      180.000000        1.456879         2    ;  uncertainty k = 0.823313
         6         5        33        45     9        0.000000        1.223414         3    ;  uncertainty k = 0.515923
         6         5        33        45     9      180.000000        0.185999         4    ;  uncertainty k = 0.197024
         6         7         8         9     9        0.000000       -0.216392         1    ;  uncertainty k = 0.203221
         6         7         8         9     9      180.000000       12.688314         2    ;  uncertainty k = 0.287114
         6         7         8         9     9        0.000000       -0.841327         3    ;  uncertainty k = 0.664749
         6         7         8         9     9      180.000000        0.649352         4    ;  uncertainty k = 0.206451
         6         7         8        21     9        0.000000        0.020527         1    ;  uncertainty k = 0.059042
         6         7         8        21     9      180.000000        6.989280         2    ;  uncertainty k = 0.437421
         6         7         8        21     9        0.000000        1.365009         3    ;  uncertainty k = 0.283914
         6         7         8        21     9      180.000000        1.623914         4    ;  uncertainty k = 0.216596
         7         6         5        10     9        0.000000       -0.061762         1    ;  uncertainty k = 0.380516
         7         6         5        10     9      180.000000       12.578005         2    ;  uncertainty k = 0.240233
         7         6         5        10     9        0.000000       -1.274716         3    ;  uncertainty k = 0.208709
         7         6         5        10     9      180.000000        0.774303         4    ;  uncertainty k = 0.287170
         7         6         5        33     9        0.000000       -0.040937         1    ;  uncertainty k = 0.255560
         7         6         5        33     9      180.000000       11.252463         2    ;  uncertainty k = 0.580598
         7         6         5        33     9        0.000000        0.539336         3    ;  uncertainty k = 0.344721
         7         6         5        33     9      180.000000        1.022385         4    ;  uncertainty k = 0.303790
         7         8         9        10     9        0.000000        0.019920         1    ;  uncertainty k = 0.483038
         7         8         9        10     9      180.000000       16.879730         2    ;  uncertainty k = 0.325142
         7         8         9        10     9        0.000000       -0.454716         3    ;  uncertainty k = 0.474507
         7         8         9        10     9      180.000000        0.578125         4    ;  uncertainty k = 0.391909
         7         8         9        22     9        0.000000        0.168636         1    ;  uncertainty k = 0.193240
         7         8         9        22     9      180.000000        8.751745         2    ;  uncertainty k = 0.517235
         7         8         9        22     9        0.000000        1.537662         3    ;  uncertainty k = 0.246200
         7         8         9        22     9      180.000000        1.882842         4    ;  uncertainty k = 0.288260
         8         7         6        19     9        0.000000        0.165182         1    ;  uncertainty k = 0.216912
         8         7         6        19     9      180.000000        8.873569         2    ;  uncertainty k = 0.614610
         8         7         6        19     9        0.000000        1.622975         3    ;  uncertainty k = 0.261540
         8         7         6        19     9      180.000000        1.905453         4    ;  uncertainty k = 0.326822
         8         9        10        11     9        0.000000        0.249753         1    ;  uncertainty k = 0.103663
         8         9        10        11     9      180.000000        9.179070         2    ;  uncertainty k = 0.411370
         8         9        10        11     9        0.000000        0.517062         3    ;  uncertainty k = 0.430347
         8         9        10        11     9      180.000000        1.153234         4    ;  uncertainty k = 0.143424
         9         8         7        20     9        0.000000       -0.030439         1    ;  uncertainty k = 0.102038
         9         8         7        20     9      180.000000        6.901165         2    ;  uncertainty k = 0.417183
         9         8         7        20     9        0.000000        1.354655         3    ;  uncertainty k = 0.214825
         9         8         7        20     9      180.000000        1.587525         4    ;  uncertainty k = 0.176781
         9        10         5        33     9        0.000000       -0.032223         1    ;  uncertainty k = 0.572800
         9        10         5        33     9      180.000000        8.643799         2    ;  uncertainty k = 0.269496
         9        10         5        33     9        0.000000       -0.453955         3    ;  uncertainty k = 0.641368
         9        10         5        33     9      180.000000        1.174833         4    ;  uncertainty k = 0.384480
         9        10        11        12     9        0.000000        0.238961         1    ;  uncertainty k = 1.397644
         9        10        11        12     9      180.000000        5.787109         2    ;  uncertainty k = 0.469515
         9        10        11        12     9        0.000000        1.699642         3    ;  uncertainty k = 0.321923
         9        10        11        12     9      180.000000        0.173483         4    ;  uncertainty k = 0.188688
        10         5         6        19     9        0.000000        0.319122         1    ;  uncertainty k = 0.490757
        10         5         6        19     9      180.000000        6.345798         2    ;  uncertainty k = 0.822340
        10         5         6        19     9        0.000000        1.324954         3    ;  uncertainty k = 0.253224
        10         5         6        19     9      180.000000        1.101595         4    ;  uncertainty k = 0.359631
        10         5        33        45     9        0.000000        6.104771         1    ;  uncertainty k = 2.118850
        10         5        33        45     9      180.000000        4.638186         2    ;  uncertainty k = 1.440061
        10         5        33        45     9        0.000000        1.257718         3    ;  uncertainty k = 0.462506
        10         5        33        45     9      180.000000        0.319293         4    ;  uncertainty k = 0.097073
        10         9         8        21     9        0.000000        0.118303         1    ;  uncertainty k = 0.391732
        10         9         8        21     9      180.000000       10.979734         2    ;  uncertainty k = 0.363860
        10         9         8        21     9        0.000000        1.498292         3    ;  uncertainty k = 0.324461
        10         9         8        21     9      180.000000        1.658169         4    ;  uncertainty k = 0.294311
        10        11         4        33     9        0.000000       -0.343459         1    ;  uncertainty k = 0.628998
        10        11         4        33     9      180.000000       19.851697         2    ;  uncertainty k = 0.337386
        10        11         4        33     9        0.000000       -6.038290         3    ;  uncertainty k = 1.696783
        10        11         4        33     9      180.000000        1.027795         4    ;  uncertainty k = 0.436841
        10        11        12        13     9        0.000000       -0.219350         1    ;  uncertainty k = 1.004792
        10        11        12        13     9      180.000000        1.088397         2    ;  uncertainty k = 0.671793
        10        11        12        13     9        0.000000        0.696652         3    ;  uncertainty k = 0.268337
        10        11        12        13     9      180.000000        0.164044         4    ;  uncertainty k = 0.059900
        10        11        12        23     9        0.000000       -0.686921         1    ;  uncertainty k = 0.448582
        10        11        12        23     9      180.000000        2.071241         2    ;  uncertainty k = 0.415243
        10        11        12        23     9        0.000000        0.779274         3    ;  uncertainty k = 0.145606
        10        11        12        23     9      180.000000        0.211883         4    ;  uncertainty k = 0.077331
        10        11        12        24     9        0.000000       -0.686921         1    ;  uncertainty k = 0.448582
        10        11        12        24     9      180.000000        2.071241         2    ;  uncertainty k = 0.415243
        10        11        12        24     9        0.000000        0.779274         3    ;  uncertainty k = 0.145606
        10        11        12        24     9      180.000000        0.211883         4    ;  uncertainty k = 0.077331
        11         4        33        45     9        0.000000        3.994326         1    ;  uncertainty k = 2.809201
        11         4        33        45     9      180.000000        7.262693         2    ;  uncertainty k = 0.379220
        11         4        33        45     9        0.000000        1.858365         3    ;  uncertainty k = 0.686233
        11         4        33        45     9      180.000000       -0.114664         4    ;  uncertainty k = 0.351651
        11        10         5        33     9        0.000000       -0.200093         1    ;  uncertainty k = 0.424326
        11        10         5        33     9      180.000000       12.998296         2    ;  uncertainty k = 0.637101
        11        10         5        33     9        0.000000       -4.487286         3    ;  uncertainty k = 1.787354
        11        10         5        33     9      180.000000        1.376048         4    ;  uncertainty k = 0.852459
        11        10         9        22     9        0.000000        0.623609         1    ;  uncertainty k = 0.818827
        11        10         9        22     9      180.000000        5.597100         2    ;  uncertainty k = 0.476519
        11        10         9        22     9        0.000000        1.146276         3    ;  uncertainty k = 0.356005
        11        10         9        22     9      180.000000        0.780142         4    ;  uncertainty k = 0.277118
        11        12        13        14     9        0.000000       -2.809783         1    ;  uncertainty k = 1.003086
        11        12        13        14     9      180.000000       -0.437354         2    ;  uncertainty k = 0.390590
        11        12        13        14     9        0.000000        1.346125         3    ;  uncertainty k = 0.125046
        11        12        13        14     9      180.000000       -0.311481         4    ;  uncertainty k = 0.110094
        11        12        13        25     9        0.000000        0.428587         1    ;  uncertainty k = 0.616136
        11        12        13        25     9      180.000000       -0.329644         2    ;  uncertainty k = 0.354693
        11        12        13        25     9        0.000000        1.117197         3    ;  uncertainty k = 0.164143
        11        12        13        25     9      180.000000        0.004866         4    ;  uncertainty k = 0.054513
        11        12        13        26     9        0.000000        0.428587         1    ;  uncertainty k = 0.616136
        11        12        13        26     9      180.000000       -0.329644         2    ;  uncertainty k = 0.354693
        11        12        13        26     9        0.000000        1.117197         3    ;  uncertainty k = 0.164143
        11        12        13        26     9      180.000000        0.004866         4    ;  uncertainty k = 0.054513
        12        11         4        33     9        0.000000        0.421908         1    ;  uncertainty k = 0.686279
        12        11         4        33     9      180.000000       16.338015         2    ;  uncertainty k = 0.475382
        12        11         4        33     9        0.000000        1.239769         3    ;  uncertainty k = 0.508643
        12        11         4        33     9      180.000000        0.759832         4    ;  uncertainty k = 0.322483
        12        13        14        15     9        0.000000       -3.972810         1    ;  uncertainty k = 1.220975
        12        13        14        15     9      180.000000       -2.419851         2    ;  uncertainty k = 0.458757
        12        13        14        15     9        0.000000        2.169305         3    ;  uncertainty k = 0.276444
        12        13        14        15     9      180.000000       -0.470962         4    ;  uncertainty k = 0.156337
        12        13        14        27     9        0.000000       -1.867468         1    ;  uncertainty k = 0.470281
        12        13        14        27     9      180.000000        0.093093         2    ;  uncertainty k = 0.233174
        12        13        14        27     9        0.000000        0.933785         3    ;  uncertainty k = 0.064548
        12        13        14        27     9      180.000000       -0.359774         4    ;  uncertainty k = 0.102484
        12        13        14        28     9        0.000000       -1.867468         1    ;  uncertainty k = 0.470281
        12        13        14        28     9      180.000000        0.093093         2    ;  uncertainty k = 0.233174
        12        13        14        28     9        0.000000        0.933785         3    ;  uncertainty k = 0.064548
        12        13        14        28     9      180.000000       -0.359774         4    ;  uncertainty k = 0.102484
        13        14        15        16     9        0.000000       -1.224090         1    ;  uncertainty k = 0.568249
        13        14        15        16     9      180.000000       -0.220360         2    ;  uncertainty k = 0.223529
        13        14        15        16     9        0.000000        0.759407         3    ;  uncertainty k = 0.095830
        13        14        15        16     9      180.000000        0.489942         4    ;  uncertainty k = 0.072044
        14        13        12        23     9        0.000000       -1.678812         1    ;  uncertainty k = 0.372977
        14        13        12        23     9      180.000000       -0.599299         2    ;  uncertainty k = 0.294416
        14        13        12        23     9        0.000000        0.946178         3    ;  uncertainty k = 0.127588
        14        13        12        23     9      180.000000       -0.353128         4    ;  uncertainty k = 0.063642
        14        13        12        24     9        0.000000       -1.678812         1    ;  uncertainty k = 0.372977
        14        13        12        24     9      180.000000       -0.599299         2    ;  uncertainty k = 0.294416
        14        13        12        24     9        0.000000        0.946178         3    ;  uncertainty k = 0.127588
        14        13        12        24     9      180.000000       -0.353128         4    ;  uncertainty k = 0.063642
        14        15        16        18     9        0.000000        1.117227         1    ;  uncertainty k = 0.466678
        14        15        16        18     9      180.000000        6.829595         2    ;  uncertainty k = 0.122017
        14        15        16        18     9        0.000000        0.760135         3    ;  uncertainty k = 0.075506
        14        15        16        18     9      180.000000        0.199840         4    ;  uncertainty k = 0.038053
        14        15        16        30     9        0.000000        0.534162         1    ;  uncertainty k = 0.459307
        14        15        16        30     9      180.000000        6.587803         2    ;  uncertainty k = 0.174636
        14        15        16        30     9        0.000000        0.590385         3    ;  uncertainty k = 0.131316
        14        15        16        30     9      180.000000        0.246495         4    ;  uncertainty k = 0.042307
        15        14        13        25     9        0.000000        0.241933         1    ;  uncertainty k = 0.548189
        15        14        13        25     9      180.000000       -2.119208         2    ;  uncertainty k = 0.275697
        15        14        13        25     9        0.000000        1.418889         3    ;  uncertainty k = 0.103396
        15        14        13        25     9      180.000000        0.037542         4    ;  uncertainty k = 0.067522
        15        14        13        26     9        0.000000        0.241933         1    ;  uncertainty k = 0.548189
        15        14        13        26     9      180.000000       -2.119208         2    ;  uncertainty k = 0.275697
        15        14        13        26     9        0.000000        1.418889         3    ;  uncertainty k = 0.103396
        15        14        13        26     9      180.000000        0.037542         4    ;  uncertainty k = 0.067522
        15        16        18        17     9        0.000000        0.067745         1    ;  uncertainty k = 0.308075
        15        16        18        17     9      180.000000       10.506663         2    ;  uncertainty k = 0.502366
        15        16        18        17     9        0.000000        1.141112         3    ;  uncertainty k = 0.208036
        15        16        18        17     9      180.000000        1.628309         4    ;  uncertainty k = 0.181277
        15        16        18        29     9        0.000000       -0.161761         1    ;  uncertainty k = 0.251920
        15        16        18        29     9      180.000000        8.436964         2    ;  uncertainty k = 0.381503
        15        16        18        29     9        0.000000        0.692319         3    ;  uncertainty k = 0.108557
        15        16        18        29     9      180.000000        1.048359         4    ;  uncertainty k = 0.246843
        15        16        30        32     9        0.000000       -0.151703         1    ;  uncertainty k = 0.163224
        15        16        30        32     9      180.000000        8.722980         2    ;  uncertainty k = 0.306722
        15        16        30        32     9        0.000000        0.709646         3    ;  uncertainty k = 0.064606
        15        16        30        32     9      180.000000        1.050131         4    ;  uncertainty k = 0.236188
        15        16        30        36     9        0.000000        0.036204         1    ;  uncertainty k = 0.360035
        15        16        30        36     9      180.000000       11.443083         2    ;  uncertainty k = 0.309400
        15        16        30        36     9        0.000000        1.197463         3    ;  uncertainty k = 0.280584
        15        16        30        36     9      180.000000        1.495180         4    ;  uncertainty k = 0.130716
        16        15        14        27     9        0.000000        0.556502         1    ;  uncertainty k = 0.442587
        16        15        14        27     9      180.000000       -1.137227         2    ;  uncertainty k = 0.102945
        16        15        14        27     9        0.000000        0.559644         3    ;  uncertainty k = 0.056136
        16        15        14        27     9      180.000000        0.264100         4    ;  uncertainty k = 0.061675
        16        15        14        28     9        0.000000        0.556502         1    ;  uncertainty k = 0.442587
        16        15        14        28     9      180.000000       -1.137227         2    ;  uncertainty k = 0.102945
        16        15        14        28     9        0.000000        0.559644         3    ;  uncertainty k = 0.056136
        16        15        14        28     9      180.000000        0.264100         4    ;  uncertainty k = 0.061675
        16        18        17        31     9        0.000000        0.075922         1    ;  uncertainty k = 0.225688
        16        18        17        31     9      180.000000        8.163371         2    ;  uncertainty k = 0.430463
        16        18        17        31     9        0.000000        1.373670         3    ;  uncertainty k = 0.345149
        16        18        17        31     9      180.000000        1.761276         4    ;  uncertainty k = 0.200490
        16        18        17        37     9        0.000000       -0.141550         1    ;  uncertainty k = 0.099834
        16        18        17        37     9      180.000000       14.644993         2    ;  uncertainty k = 0.265922
        16        18        17        37     9        0.000000       -0.758412         3    ;  uncertainty k = 0.609616
        16        18        17        37     9      180.000000        0.715435         4    ;  uncertainty k = 0.362356
        16        30        36        35     9        0.000000        0.215093         1    ;  uncertainty k = 0.381431
        16        30        36        35     9      180.000000        8.398571         2    ;  uncertainty k = 0.307200
        16        30        36        35     9        0.000000        1.392057         3    ;  uncertainty k = 0.235662
        16        30        36        35     9      180.000000        1.700305         4    ;  uncertainty k = 0.091900
        16        30        36        37     9        0.000000       -0.121176         1    ;  uncertainty k = 0.591940
        16        30        36        37     9      180.000000       14.422384         2    ;  uncertainty k = 0.213415
        16        30        36        37     9        0.000000       -1.271413         3    ;  uncertainty k = 0.528240
        16        30        36        37     9      180.000000        0.620255         4    ;  uncertainty k = 0.262905
        17        18        16        30     9        0.000000        0.013985         1    ;  uncertainty k = 0.258194
        17        18        16        30     9      180.000000        9.001099         2    ;  uncertainty k = 0.533414
        17        18        16        30     9        0.000000       -0.111855         3    ;  uncertainty k = 0.309195
        17        18        16        30     9      180.000000        1.251027         4    ;  uncertainty k = 0.251407
        17        37        36        30     9        0.000000       -0.107202         1    ;  uncertainty k = 0.309738
        17        37        36        30     9      180.000000        9.997022         2    ;  uncertainty k = 0.390107
        17        37        36        30     9        0.000000       -0.470120         3    ;  uncertainty k = 0.585626
        17        37        36        30     9      180.000000        0.962389         4    ;  uncertainty k = 0.373121
        17        37        36        35     9        0.000000        0.232199         1    ;  uncertainty k = 0.833921
        17        37        36        35     9      180.000000        8.505684         2    ;  uncertainty k = 0.103094
        17        37        36        35     9        0.000000        0.613330         3    ;  uncertainty k = 0.543201
        17        37        36        35     9      180.000000        1.270307         4    ;  uncertainty k = 0.262393
        17        37        38        34     9        0.000000       -0.964126         1    ;  uncertainty k = 0.854622
        17        37        38        34     9      180.000000        2.039979         2    ;  uncertainty k = 0.205106
        17        37        38        34     9        0.000000        0.468419         3    ;  uncertainty k = 0.268971
        17        37        38        34     9      180.000000        0.632160         4    ;  uncertainty k = 0.111599
        17        37        38        39     9        0.000000        0.523235         1    ;  uncertainty k = 0.286059
        17        37        38        39     9      180.000000        0.754905         2    ;  uncertainty k = 0.141241
        17        37        38        39     9        0.000000        0.063451         3    ;  uncertainty k = 0.070823
        17        37        38        39     9      180.000000        0.221568         4    ;  uncertainty k = 0.091527
        17        37        38        40     9        0.000000        0.523235         1    ;  uncertainty k = 0.286059
        17        37        38        40     9      180.000000        0.754905         2    ;  uncertainty k = 0.141241
        17        37        38        40     9        0.000000        0.063451         3    ;  uncertainty k = 0.070823
        17        37        38        40     9      180.000000        0.221568         4    ;  uncertainty k = 0.091527
        18        16        30        32     9        0.000000        0.330200         1    ;  uncertainty k = 0.514738
        18        16        30        32     9      180.000000        6.273987         2    ;  uncertainty k = 0.530926
        18        16        30        32     9        0.000000        1.477870         3    ;  uncertainty k = 0.358871
        18        16        30        32     9      180.000000        1.578154         4    ;  uncertainty k = 0.129742
        18        16        30        36     9        0.000000        0.133201         1    ;  uncertainty k = 0.178868
        18        16        30        36     9      180.000000        9.780196         2    ;  uncertainty k = 0.770167
        18        16        30        36     9        0.000000        0.221891         3    ;  uncertainty k = 0.464194
        18        16        30        36     9      180.000000        1.208125         4    ;  uncertainty k = 0.466169
        18        17        37        36     9        0.000000        0.067747         1    ;  uncertainty k = 0.341134
        18        17        37        36     9      180.000000       14.475932         2    ;  uncertainty k = 0.337213
        18        17        37        36     9        0.000000       -1.500989         3    ;  uncertainty k = 0.405977
        18        17        37        36     9      180.000000        0.575439         4    ;  uncertainty k = 0.381494
        18        17        37        38     9        0.000000        0.353437         1    ;  uncertainty k = 0.349172
        18        17        37        38     9      180.000000        8.020253         2    ;  uncertainty k = 0.226275
        18        17        37        38     9        0.000000        1.446912         3    ;  uncertainty k = 0.171938
        18        17        37        38     9      180.000000        1.824689         4    ;  uncertainty k = 0.107343
        19         6         5        33     9        0.000000        0.248356         1    ;  uncertainty k = 0.309441
        19         6         5        33     9      180.000000        6.219890         2    ;  uncertainty k = 0.560809
        19         6         5        33     9        0.000000        1.223843         3    ;  uncertainty k = 0.395076
        19         6         5        33     9      180.000000        0.794522         4    ;  uncertainty k = 0.403871
        19         6         7        20     9        0.000000        0.067635         1    ;  uncertainty k = 0.257851
        19         6         7        20     9      180.000000        7.678575         2    ;  uncertainty k = 0.249765
        19         6         7        20     9        0.000000       -0.249178         3    ;  uncertainty k = 0.224083
        19         6         7        20     9      180.000000        0.128053         4    ;  uncertainty k = 0.127116
        20         7         8        21     9        0.000000        0.024825         1    ;  uncertainty k = 0.154579
        20         7         8        21     9      180.000000        6.825470         2    ;  uncertainty k = 0.478217
        20         7         8        21     9        0.000000       -0.239724         3    ;  uncertainty k = 0.197508
        20         7         8        21     9      180.000000        0.091582         4    ;  uncertainty k = 0.138206
        21         8         9        22     9        0.000000        0.081241         1    ;  uncertainty k = 0.094303
        21         8         9        22     9      180.000000        7.822590         2    ;  uncertainty k = 0.225676
        21         8         9        22     9        0.000000       -0.195366         3    ;  uncertainty k = 0.265935
        21         8         9        22     9      180.000000        0.166865         4    ;  uncertainty k = 0.178530
        23        12        13        25     9        0.000000        0.852998         1    ;  uncertainty k = 0.162312
        23        12        13        25     9      180.000000       -0.684815         2    ;  uncertainty k = 0.290805
        23        12        13        25     9        0.000000        0.190526         3    ;  uncertainty k = 0.067767
        23        12        13        25     9      180.000000        0.009351         4    ;  uncertainty k = 0.042473
        23        12        13        26     9        0.000000        0.852998         1    ;  uncertainty k = 0.162312
        23        12        13        26     9      180.000000       -0.684815         2    ;  uncertainty k = 0.290805
        23        12        13        26     9        0.000000        0.190526         3    ;  uncertainty k = 0.067767
        23        12        13        26     9      180.000000        0.009351         4    ;  uncertainty k = 0.042473
        24        12        13        25     9        0.000000        0.852998         1    ;  uncertainty k = 0.162312
        24        12        13        25     9      180.000000       -0.684815         2    ;  uncertainty k = 0.290805
        24        12        13        25     9        0.000000        0.190526         3    ;  uncertainty k = 0.067767
        24        12        13        25     9      180.000000        0.009351         4    ;  uncertainty k = 0.042473
        24        12        13        26     9        0.000000        0.852998         1    ;  uncertainty k = 0.162312
        24        12        13        26     9      180.000000       -0.684815         2    ;  uncertainty k = 0.290805
        24        12        13        26     9        0.000000        0.190526         3    ;  uncertainty k = 0.067767
        24        12        13        26     9      180.000000        0.009351         4    ;  uncertainty k = 0.042473
        25        13        14        27     9        0.000000        0.457943         1    ;  uncertainty k = 0.142524
        25        13        14        27     9      180.000000       -0.430380         2    ;  uncertainty k = 0.140530
        25        13        14        27     9        0.000000        0.096568         3    ;  uncertainty k = 0.074065
        25        13        14        27     9      180.000000       -0.038989         4    ;  uncertainty k = 0.076460
        25        13        14        28     9        0.000000        0.457943         1    ;  uncertainty k = 0.142524
        25        13        14        28     9      180.000000       -0.430380         2    ;  uncertainty k = 0.140530
        25        13        14        28     9        0.000000        0.096568         3    ;  uncertainty k = 0.074065
        25        13        14        28     9      180.000000       -0.038989         4    ;  uncertainty k = 0.076460
        26        13        14        27     9        0.000000        0.457943         1    ;  uncertainty k = 0.142524
        26        13        14        27     9      180.000000       -0.430380         2    ;  uncertainty k = 0.140530
        26        13        14        27     9        0.000000        0.096568         3    ;  uncertainty k = 0.074065
        26        13        14        27     9      180.000000       -0.038989         4    ;  uncertainty k = 0.076460
        26        13        14        28     9        0.000000        0.457943         1    ;  uncertainty k = 0.142524
        26        13        14        28     9      180.000000       -0.430380         2    ;  uncertainty k = 0.140530
        26        13        14        28     9        0.000000        0.096568         3    ;  uncertainty k = 0.074065
        26        13        14        28     9      180.000000       -0.038989         4    ;  uncertainty k = 0.076460
        29        18        16        30     9        0.000000        0.192651         1    ;  uncertainty k = 0.255464
        29        18        16        30     9      180.000000        5.901550         2    ;  uncertainty k = 0.526287
        29        18        16        30     9        0.000000        1.412179         3    ;  uncertainty k = 0.326868
        29        18        16        30     9      180.000000        1.574895         4    ;  uncertainty k = 0.129060
        29        18        17        31     9        0.000000       -0.082877         1    ;  uncertainty k = 0.147838
        29        18        17        31     9      180.000000        7.304919         2    ;  uncertainty k = 0.392197
        29        18        17        31     9        0.000000       -0.315290         3    ;  uncertainty k = 0.228421
        29        18        17        31     9      180.000000        0.124785         4    ;  uncertainty k = 0.131732
        29        18        17        37     9        0.000000        0.159982         1    ;  uncertainty k = 0.123626
        29        18        17        37     9      180.000000        9.091928         2    ;  uncertainty k = 0.335237
        29        18        17        37     9        0.000000        1.463193         3    ;  uncertainty k = 0.261368
        29        18        17        37     9      180.000000        1.771129         4    ;  uncertainty k = 0.159642
        30        36        35        34     9        0.000000       -0.827145         1    ;  uncertainty k = 0.765155
        30        36        35        34     9      180.000000        2.351061         2    ;  uncertainty k = 0.110178
        30        36        35        34     9        0.000000        0.405019         3    ;  uncertainty k = 0.133248
        30        36        35        34     9      180.000000        0.610235         4    ;  uncertainty k = 0.099815
        30        36        35        43     9        0.000000        0.850488         1    ;  uncertainty k = 0.277225
        30        36        35        43     9      180.000000        0.973884         2    ;  uncertainty k = 0.137746
        30        36        35        43     9        0.000000        0.074779         3    ;  uncertainty k = 0.048473
        30        36        35        43     9      180.000000        0.220356         4    ;  uncertainty k = 0.069833
        30        36        35        44     9        0.000000        0.850488         1    ;  uncertainty k = 0.277225
        30        36        35        44     9      180.000000        0.973884         2    ;  uncertainty k = 0.137746
        30        36        35        44     9        0.000000        0.074779         3    ;  uncertainty k = 0.048473
        30        36        35        44     9      180.000000        0.220356         4    ;  uncertainty k = 0.069833
        30        36        37        38     9        0.000000        0.155288         1    ;  uncertainty k = 0.712487
        30        36        37        38     9      180.000000        8.706143         2    ;  uncertainty k = 0.208157
        30        36        37        38     9        0.000000        0.538128         3    ;  uncertainty k = 0.499783
        30        36        37        38     9      180.000000        1.269433         4    ;  uncertainty k = 0.282185
        31        17        37        36     9        0.000000        0.233050         1    ;  uncertainty k = 0.307932
        31        17        37        36     9      180.000000        7.856272         2    ;  uncertainty k = 0.570922
        31        17        37        36     9        0.000000        1.320149         3    ;  uncertainty k = 0.290164
        31        17        37        36     9      180.000000        1.577070         4    ;  uncertainty k = 0.257962
        31        17        37        38     9        0.000000       -0.531297         1    ;  uncertainty k = 0.895955
        31        17        37        38     9      180.000000        6.871677         2    ;  uncertainty k = 0.351445
        31        17        37        38     9        0.000000        0.687693         3    ;  uncertainty k = 0.198021
        31        17        37        38     9      180.000000        0.932918         4    ;  uncertainty k = 0.285678
        32        30        36        35     9        0.000000       -0.475688         1    ;  uncertainty k = 0.996276
        32        30        36        35     9      180.000000        6.942065         2    ;  uncertainty k = 0.476391
        32        30        36        35     9        0.000000        0.772308         3    ;  uncertainty k = 0.225757
        32        30        36        35     9      180.000000        1.007854         4    ;  uncertainty k = 0.310827
        32        30        36        37     9        0.000000        0.168149         1    ;  uncertainty k = 0.228072
        32        30        36        37     9      180.000000        7.827624         2    ;  uncertainty k = 0.722586
        32        30        36        37     9        0.000000        1.339782         3    ;  uncertainty k = 0.380516
        32        30        36        37     9      180.000000        1.617958         4    ;  uncertainty k = 0.268767
        34        35        36        37     9        0.000000       -1.796238         1    ;  uncertainty k = 2.047903
        34        35        36        37     9      180.000000       12.907788         2    ;  uncertainty k = 0.468151
        34        35        36        37     9        0.000000       -1.704347         3    ;  uncertainty k = 0.454480
        34        35        36        37     9      180.000000        0.291753         4    ;  uncertainty k = 0.199694
        34        38        37        36     9        0.000000       -2.002607         1    ;  uncertainty k = 1.567430
        34        38        37        36     9      180.000000       12.994364         2    ;  uncertainty k = 0.501446
        34        38        37        36     9        0.000000       -1.708056         3    ;  uncertainty k = 0.403891
        34        38        37        36     9      180.000000        0.300384         4    ;  uncertainty k = 0.319245
        35        34        38        37     9        0.000000       -1.303922         1    ;  uncertainty k = 1.378762
        35        34        38        37     9      180.000000        4.363715         2    ;  uncertainty k = 0.852881
        35        34        38        37     9        0.000000        0.162453         3    ;  uncertainty k = 0.716097
        35        34        38        37     9      180.000000       -1.702135         4    ;  uncertainty k = 0.401936
        35        34        38        39     9        0.000000       -1.353489         1    ;  uncertainty k = 0.451978
        35        34        38        39     9      180.000000       -0.257130         2    ;  uncertainty k = 0.203862
        35        34        38        39     9        0.000000        0.742373         3    ;  uncertainty k = 0.126450
        35        34        38        39     9      180.000000        0.190002         4    ;  uncertainty k = 0.061627
        35        34        38        40     9        0.000000       -1.353489         1    ;  uncertainty k = 0.451978
        35        34        38        40     9      180.000000       -0.257130         2    ;  uncertainty k = 0.203862
        35        34        38        40     9        0.000000        0.742373         3    ;  uncertainty k = 0.126450
        35        34        38        40     9      180.000000        0.190002         4    ;  uncertainty k = 0.061627
        35        36        37        38     9        0.000000        0.566460         1    ;  uncertainty k = 0.499265
        35        36        37        38     9      180.000000       11.700153         2    ;  uncertainty k = 0.687490
        35        36        37        38     9        0.000000       -0.955078         3    ;  uncertainty k = 0.855924
        35        36        37        38     9      180.000000        1.274359         4    ;  uncertainty k = 0.479303
        36        35        34        38     9        0.000000       -1.069176         1    ;  uncertainty k = 1.292895
        36        35        34        38     9      180.000000        4.510812         2    ;  uncertainty k = 0.816209
        36        35        34        38     9        0.000000        0.117708         3    ;  uncertainty k = 0.752114
        36        35        34        38     9      180.000000       -1.717789         4    ;  uncertainty k = 0.429584
        36        35        34        41     9        0.000000       -1.072607         1    ;  uncertainty k = 0.458778
        36        35        34        41     9      180.000000       -0.125550         2    ;  uncertainty k = 0.279283
        36        35        34        41     9        0.000000        0.752777         3    ;  uncertainty k = 0.118868
        36        35        34        41     9      180.000000        0.036718         4    ;  uncertainty k = 0.096779
        36        35        34        42     9        0.000000       -1.072607         1    ;  uncertainty k = 0.458778
        36        35        34        42     9      180.000000       -0.125550         2    ;  uncertainty k = 0.279283
        36        35        34        42     9        0.000000        0.752777         3    ;  uncertainty k = 0.118868
        36        35        34        42     9      180.000000        0.036718         4    ;  uncertainty k = 0.096779
        36        37        38        39     9        0.000000       -0.600555         1    ;  uncertainty k = 0.596351
        36        37        38        39     9      180.000000        1.242503         2    ;  uncertainty k = 0.365422
        36        37        38        39     9        0.000000        0.450334         3    ;  uncertainty k = 0.177978
        36        37        38        39     9      180.000000        0.288624         4    ;  uncertainty k = 0.100142
        36        37        38        40     9        0.000000       -0.600555         1    ;  uncertainty k = 0.596351
        36        37        38        40     9      180.000000        1.242503         2    ;  uncertainty k = 0.365422
        36        37        38        40     9        0.000000        0.450334         3    ;  uncertainty k = 0.177978
        36        37        38        40     9      180.000000        0.288624         4    ;  uncertainty k = 0.100142
        37        36        35        43     9        0.000000       -0.605409         1    ;  uncertainty k = 0.572866
        37        36        35        43     9      180.000000        1.284393         2    ;  uncertainty k = 0.293127
        37        36        35        43     9        0.000000        0.408503         3    ;  uncertainty k = 0.125467
        37        36        35        43     9      180.000000        0.288951         4    ;  uncertainty k = 0.096803
        37        36        35        44     9        0.000000       -0.605409         1    ;  uncertainty k = 0.572866
        37        36        35        44     9      180.000000        1.284393         2    ;  uncertainty k = 0.293127
        37        36        35        44     9        0.000000        0.408503         3    ;  uncertainty k = 0.125467
        37        36        35        44     9      180.000000        0.288951         4    ;  uncertainty k = 0.096803
        37        38        34        41     9        0.000000       -1.068110         1    ;  uncertainty k = 0.466015
        37        38        34        41     9      180.000000       -0.108085         2    ;  uncertainty k = 0.305027
        37        38        34        41     9        0.000000        0.750441         3    ;  uncertainty k = 0.119339
        37        38        34        41     9      180.000000        0.044769         4    ;  uncertainty k = 0.080387
        37        38        34        42     9        0.000000       -1.068110         1    ;  uncertainty k = 0.466015
        37        38        34        42     9      180.000000       -0.108085         2    ;  uncertainty k = 0.305027
        37        38        34        42     9        0.000000        0.750441         3    ;  uncertainty k = 0.119339
        37        38        34        42     9      180.000000        0.044769         4    ;  uncertainty k = 0.080387
        38        34        35        43     9        0.000000       -1.348644         1    ;  uncertainty k = 0.437575
        38        34        35        43     9      180.000000       -0.246133         2    ;  uncertainty k = 0.218965
        38        34        35        43     9        0.000000        0.747223         3    ;  uncertainty k = 0.128576
        38        34        35        43     9      180.000000        0.188401         4    ;  uncertainty k = 0.062238
        38        34        35        44     9        0.000000       -1.348644         1    ;  uncertainty k = 0.437575
        38        34        35        44     9      180.000000       -0.246133         2    ;  uncertainty k = 0.218965
        38        34        35        44     9        0.000000        0.747223         3    ;  uncertainty k = 0.128576
        38        34        35        44     9      180.000000        0.188401         4    ;  uncertainty k = 0.062238
        39        38        34        41     9        0.000000        1.011772         1    ;  uncertainty k = 0.227944
        39        38        34        41     9      180.000000       -0.138134         2    ;  uncertainty k = 0.101415
        39        38        34        41     9        0.000000        0.789376         3    ;  uncertainty k = 0.023512
        39        38        34        41     9      180.000000        0.102387         4    ;  uncertainty k = 0.024708
        39        38        34        42     9        0.000000        1.011772         1    ;  uncertainty k = 0.227944
        39        38        34        42     9      180.000000       -0.138134         2    ;  uncertainty k = 0.101415
        39        38        34        42     9        0.000000        0.789376         3    ;  uncertainty k = 0.023512
        39        38        34        42     9      180.000000        0.102387         4    ;  uncertainty k = 0.024708
        40        38        34        41     9        0.000000        1.011772         1    ;  uncertainty k = 0.227944
        40        38        34        41     9      180.000000       -0.138134         2    ;  uncertainty k = 0.101415
        40        38        34        41     9        0.000000        0.789376         3    ;  uncertainty k = 0.023512
        40        38        34        41     9      180.000000        0.102387         4    ;  uncertainty k = 0.024708
        40        38        34        42     9        0.000000        1.011772         1    ;  uncertainty k = 0.227944
        40        38        34        42     9      180.000000       -0.138134         2    ;  uncertainty k = 0.101415
        40        38        34        42     9        0.000000        0.789376         3    ;  uncertainty k = 0.023512
        40        38        34        42     9      180.000000        0.102387         4    ;  uncertainty k = 0.024708
        41        34        35        43     9        0.000000        1.006703         1    ;  uncertainty k = 0.221342
        41        34        35        43     9      180.000000       -0.146620         2    ;  uncertainty k = 0.092900
        41        34        35        43     9        0.000000        0.790415         3    ;  uncertainty k = 0.023922
        41        34        35        43     9      180.000000        0.103358         4    ;  uncertainty k = 0.025137
        41        34        35        44     9        0.000000        1.006703         1    ;  uncertainty k = 0.221342
        41        34        35        44     9      180.000000       -0.146620         2    ;  uncertainty k = 0.092900
        41        34        35        44     9        0.000000        0.790415         3    ;  uncertainty k = 0.023922
        41        34        35        44     9      180.000000        0.103358         4    ;  uncertainty k = 0.025137
        42        34        35        43     9        0.000000        1.006703         1    ;  uncertainty k = 0.221342
        42        34        35        43     9      180.000000       -0.146620         2    ;  uncertainty k = 0.092900
        42        34        35        43     9        0.000000        0.790415         3    ;  uncertainty k = 0.023922
        42        34        35        43     9      180.000000        0.103358         4    ;  uncertainty k = 0.025137
        42        34        35        44     9        0.000000        1.006703         1    ;  uncertainty k = 0.221342
        42        34        35        44     9      180.000000       -0.146620         2    ;  uncertainty k = 0.092900
        42        34        35        44     9        0.000000        0.790415         3    ;  uncertainty k = 0.023922
        42        34        35        44     9      180.000000        0.103358         4    ;  uncertainty k = 0.025137

[ dihedrals ] ; impropers
;       ai        aj        ak        al funct           phase               k        pn
         2         1         3         4     4      180.000000       64.265870         2    ;  uncertainty k = 0.050254
         2         3         4         1     4      180.000000       64.265870         2    ;  uncertainty k = 0.050254
         2         4         1         3     4      180.000000       64.265870         2    ;  uncertainty k = 0.050254
         4         2        11        33     4      180.000000        5.876961         2    ;  uncertainty k = 0.526652
         4        11        33         2     4      180.000000        5.876961         2    ;  uncertainty k = 0.526652
         4        33         2        11     4      180.000000        5.876961         2    ;  uncertainty k = 0.526652
         5         6        10        33     4      180.000000        1.057348         2    ;  uncertainty k = 0.904202
         5        10        33         6     4      180.000000        1.057348         2    ;  uncertainty k = 0.904202
         5        33         6        10     4      180.000000        1.057348         2    ;  uncertainty k = 0.904202
         6         5         7        19     4      180.000000        2.336037         2    ;  uncertainty k = 0.300690
         6         7        19         5     4      180.000000        2.336037         2    ;  uncertainty k = 0.300690
         6        19         5         7     4      180.000000        2.336037         2    ;  uncertainty k = 0.300690
         7         6         8        20     4      180.000000        3.761581         2    ;  uncertainty k = 0.188539
         7         8        20         6     4      180.000000        3.761581         2    ;  uncertainty k = 0.188539
         7        20         6         8     4      180.000000        3.761581         2    ;  uncertainty k = 0.188539
         8         7         9        21     4      180.000000        3.007353         2    ;  uncertainty k = 0.125347
         8         9        21         7     4      180.000000        3.007353         2    ;  uncertainty k = 0.125347
         8        21         7         9     4      180.000000        3.007353         2    ;  uncertainty k = 0.125347
         9         8        10        22     4      180.000000        4.051631         2    ;  uncertainty k = 0.159442
         9        10        22         8     4      180.000000        4.051631         2    ;  uncertainty k = 0.159442
         9        22         8        10     4      180.000000        4.051631         2    ;  uncertainty k = 0.159442
        11         4        10        12     4      180.000000        2.099178         2    ;  uncertainty k = 0.534873
        11        10        12         4     4      180.000000        2.099178         2    ;  uncertainty k = 0.534873
        11        12         4        10     4      180.000000        2.099178         2    ;  uncertainty k = 0.534873
        16        15        18        30     4      180.000000       18.495968         2    ;  uncertainty k = 0.058542
        16        18        30        15     4      180.000000       18.495968         2    ;  uncertainty k = 0.058542
        16        30        15        18     4      180.000000       18.495968         2    ;  uncertainty k = 0.058542
        17        18        31        37     4      180.000000        4.307149         2    ;  uncertainty k = 0.216529
        17        31        37        18     4      180.000000        4.307149         2    ;  uncertainty k = 0.216529
        17        37        18        31     4      180.000000        4.307149         2    ;  uncertainty k = 0.216529
        18        16        17        29     4      180.000000        2.065515         2    ;  uncertainty k = 0.159446
        18        17        29        16     4      180.000000        2.065515         2    ;  uncertainty k = 0.159446
        18        29        16        17     4      180.000000        2.065515         2    ;  uncertainty k = 0.159446
        30        16        32        36     4      180.000000        2.626112         2    ;  uncertainty k = 0.124378
        30        32        36        16     4      180.000000        2.626112         2    ;  uncertainty k = 0.124378
        30        36        16        32     4      180.000000        2.626112         2    ;  uncertainty k = 0.124378
        36        30        35        37     4      180.000000        5.651088         2    ;  uncertainty k = 0.229767
        36        35        37        30     4      180.000000        5.651088         2    ;  uncertainty k = 0.229767
        36        37        30        35     4      180.000000        5.651088         2    ;  uncertainty k = 0.229767
        37        17        36        38     4      180.000000        3.407539         2    ;  uncertainty k = 0.377439
        37        36        38        17     4      180.000000        3.407539         2    ;  uncertainty k = 0.377439
        37        38        17        36     4      180.000000        3.407539         2    ;  uncertainty k = 0.377439

[ pairs ]
;       ai        aj funct
         1        11     1
         1        33     1
         2         5     1
         2        10     1
         2        12     1
         2        45     1
         3        11     1
         3        33     1
         4         6     1
         4         9     1
         4        13     1
         4        23     1
         4        24     1
         5         8     1
         5        12     1
         5        20     1
         5        22     1
         6         9     1
         6        11     1
         6        21     1
         6        45     1
         7        10     1
         7        22     1
         7        33     1
         8        11     1
         8        19     1
         9        12     1
         9        20     1
         9        33     1
        10        13     1
        10        19     1
        10        21     1
        10        23     1
        10        24     1
        10        45     1
        11        14     1
        11        22     1
        11        25     1
        11        26     1
        11        45     1
        12        15     1
        12        27     1
        12        28     1
        12        33     1
        13        16     1
        14        18     1
        14        23     1
        14        24     1
        14        30     1
        15        17     1
        15        25     1
        15        26     1
        15        29     1
        15        32     1
        15        36     1
        16        27     1
        16        28     1
        16        31     1
        16        35     1
        16        37     1
        17        30     1
        17        34     1
        17        35     1
        17        39     1
        17        40     1
        18        32     1
        18        36     1
        18        38     1
        19        20     1
        19        33     1
        20        21     1
        21        22     1
        23        25     1
        23        26     1
        24        25     1
        24        26     1
        25        27     1
        25        28     1
        26        27     1
        26        28     1
        29        30     1
        29        31     1
        29        37     1
        30        34     1
        30        38     1
        30        43     1
        30        44     1
        31        36     1
        31        38     1
        32        35     1
        32        37     1
        35        39     1
        35        40     1
        36        39     1
        36        40     1
        36        41     1
        36        42     1
        37        41     1
        37        42     1
        37        43     1
        37        44     1
        38        43     1
        38        44     1
        39        41     1
        39        42     1
        40        41     1
        40        42     1
        41        43     1
        41        44     1
        42        43     1
        42        44     1
