; ITP file created by ByteFF-joint-25, 2026-02-17 09:21:06.699295

[ atomtypes ]
;name           bonded.type        at.num        mass        charge   ptype           sigma         epsilon
 o0bf                                   8      0.0000       0.00000       A     3.04807e-01     6.12065e-01    ;  uncertainty sigma = 0.000018, epsilon = 0.000616
 c1bf                                   6      0.0000       0.00000       A     3.31436e-01     4.13701e-01    ;  uncertainty sigma = 0.000034, epsilon = 0.002275
 o2bf                                   8      0.0000       0.00000       A     3.04807e-01     6.12065e-01    ;  uncertainty sigma = 0.000018, epsilon = 0.000616
 c3bf                                   6      0.0000       0.00000       A     3.31527e-01     4.12548e-01    ;  uncertainty sigma = 0.000053, epsilon = 0.002675
 c4bf                                   6      0.0000       0.00000       A     3.31556e-01     4.13605e-01    ;  uncertainty sigma = 0.000009, epsilon = 0.001072
 c5bf                                   6      0.0000       0.00000       A     3.31528e-01     4.13216e-01    ;  uncertainty sigma = 0.000006, epsilon = 0.000735
 c6bf                                   6      0.0000       0.00000       A     3.31524e-01     4.13323e-01    ;  uncertainty sigma = 0.000005, epsilon = 0.000518
 c7bf                                   6      0.0000       0.00000       A     3.31524e-01     4.13320e-01    ;  uncertainty sigma = 0.000004, epsilon = 0.000654
 c8bf                                   6      0.0000       0.00000       A     3.31525e-01     4.13140e-01    ;  uncertainty sigma = 0.000007, epsilon = 0.000627
 c9bf                                   6      0.0000       0.00000       A     3.31543e-01     4.12993e-01    ;  uncertainty sigma = 0.000008, epsilon = 0.001189
 c10bf                                  6      0.0000       0.00000       A     3.31576e-01     4.13309e-01    ;  uncertainty sigma = 0.000008, epsilon = 0.001192
 c11bf                                  6      0.0000       0.00000       A     3.39773e-01     4.50718e-01    ;  uncertainty sigma = 0.000020, epsilon = 0.000757
 c12bf                                  6      0.0000       0.00000       A     3.39755e-01     4.50608e-01    ;  uncertainty sigma = 0.000006, epsilon = 0.000953
 c13bf                                  6      0.0000       0.00000       A     3.39779e-01     4.50519e-01    ;  uncertainty sigma = 0.000006, epsilon = 0.000788
 o14bf                                  8      0.0000       0.00000       A     3.15603e-01     3.03349e-01    ;  uncertainty sigma = 0.000015, epsilon = 0.000457
 c15bf                                  6      0.0000       0.00000       A     3.31510e-01     4.13276e-01    ;  uncertainty sigma = 0.000009, epsilon = 0.000886
 c16bf                                  6      0.0000       0.00000       A     3.31529e-01     4.13355e-01    ;  uncertainty sigma = 0.000001, epsilon = 0.000470
 c17bf                                  6      0.0000       0.00000       A     3.31523e-01     4.13253e-01    ;  uncertainty sigma = 0.000005, epsilon = 0.000640
 h18bf                                  1      0.0000       0.00000       A     2.62573e-01     6.69665e-02    ;  uncertainty sigma = 0.000008, epsilon = 0.000474
 h19bf                                  1      0.0000       0.00000       A     2.62567e-01     6.69871e-02    ;  uncertainty sigma = 0.000012, epsilon = 0.000553
 h20bf                                  1      0.0000       0.00000       A     2.62563e-01     6.69792e-02    ;  uncertainty sigma = 0.000011, epsilon = 0.000555
 h21bf                                  1      0.0000       0.00000       A     2.62566e-01     6.69361e-02    ;  uncertainty sigma = 0.000011, epsilon = 0.000323
 h22bf                                  1      0.0000       0.00000       A     2.60038e-01     8.64863e-02    ;  uncertainty sigma = 0.000012, epsilon = 0.000717
 h23bf                                  1      0.0000       0.00000       A     2.60038e-01     8.64863e-02    ;  uncertainty sigma = 0.000012, epsilon = 0.000717
 h24bf                                  1      0.0000       0.00000       A     2.60032e-01     8.63750e-02    ;  uncertainty sigma = 0.000011, epsilon = 0.000877
 h25bf                                  1      0.0000       0.00000       A     2.60032e-01     8.63750e-02    ;  uncertainty sigma = 0.000011, epsilon = 0.000877
 h26bf                                  1      0.0000       0.00000       A     2.42190e-01     8.69771e-02    ;  uncertainty sigma = 0.000031, epsilon = 0.000462
 h27bf                                  1      0.0000       0.00000       A     2.42190e-01     8.69771e-02    ;  uncertainty sigma = 0.000031, epsilon = 0.000462
 h28bf                                  1      0.0000       0.00000       A     2.62559e-01     6.70894e-02    ;  uncertainty sigma = 0.000007, epsilon = 0.000485
 c29bf                                  6      0.0000       0.00000       A     3.31537e-01     4.13397e-01    ;  uncertainty sigma = 0.000005, epsilon = 0.001268
 h30bf                                  1      0.0000       0.00000       A     2.62561e-01     6.69448e-02    ;  uncertainty sigma = 0.000012, epsilon = 0.000661
 c31bf                                  6      0.0000       0.00000       A     3.31517e-01     4.13406e-01    ;  uncertainty sigma = 0.000003, epsilon = 0.000786
 c32bf                                  6      0.0000       0.00000       A     3.31518e-01     4.13161e-01    ;  uncertainty sigma = 0.000010, epsilon = 0.000525
 n33bf                                  7      0.0000       0.00000       A     3.38419e-01     3.93341e-01    ;  uncertainty sigma = 0.000006, epsilon = 0.000895
 c34bf                                  6      0.0000       0.00000       A     3.31524e-01     4.13338e-01    ;  uncertainty sigma = 0.000005, epsilon = 0.000550
 c35bf                                  6      0.0000       0.00000       A     3.31518e-01     4.13316e-01    ;  uncertainty sigma = 0.000006, epsilon = 0.000635
 c36bf                                  6      0.0000       0.00000       A     3.31518e-01     4.13179e-01    ;  uncertainty sigma = 0.000002, epsilon = 0.000642
 h37bf                                  1      0.0000       0.00000       A     2.53629e-01     6.70904e-02    ;  uncertainty sigma = 0.000020, epsilon = 0.000479
 h38bf                                  1      0.0000       0.00000       A     2.62573e-01     6.70233e-02    ;  uncertainty sigma = 0.000011, epsilon = 0.000551
 h39bf                                  1      0.0000       0.00000       A     2.62557e-01     6.71094e-02    ;  uncertainty sigma = 0.000012, epsilon = 0.000438
 h40bf                                  1      0.0000       0.00000       A     2.62546e-01     6.72753e-02    ;  uncertainty sigma = 0.000008, epsilon = 0.000628
 n41bf                                  7      0.0000       0.00000       A     3.20754e-01     8.52244e-01    ;  uncertainty sigma = 0.000047, epsilon = 0.002451
 h42bf                                  1      0.0000       0.00000       A     1.10620e-01     4.09733e-02    ;  uncertainty sigma = 0.000138, epsilon = 0.001729

[ moleculetype ]
;name             nrexcl
 MOL                   3

[ atoms ]
;       nr            type      resi   res      atom      cgnr      charge          mass ; qtot
         1            o0bf         1   UNL        o0         1    -0.82702       15.9990 ; qtot   -0.827
         2            c1bf         1   UNL        c1         2     0.92126       12.0110 ; qtot    0.094
         3            o2bf         1   UNL        o2         3    -0.82702       15.9990 ; qtot   -0.733
         4            c3bf         1   UNL        c3         4    -0.10822       12.0110 ; qtot   -0.841
         5            c4bf         1   UNL        c4         5    -0.06744       12.0110 ; qtot   -0.908
         6            c5bf         1   UNL        c5         6    -0.16684       12.0110 ; qtot   -1.075
         7            c6bf         1   UNL        c6         7    -0.11194       12.0110 ; qtot   -1.187
         8            c7bf         1   UNL        c7         8    -0.15971       12.0110 ; qtot   -1.347
         9            c8bf         1   UNL        c8         9    -0.09713       12.0110 ; qtot   -1.444
        10            c9bf         1   UNL        c9        10    -0.10135       12.0110 ; qtot   -1.545
        11           c10bf         1   UNL       c10        11    -0.18594       12.0110 ; qtot   -1.731
        12           c11bf         1   UNL       c11        12    -0.00834       12.0110 ; qtot   -1.740
        13           c12bf         1   UNL       c12        13    -0.09597       12.0110 ; qtot   -1.836
        14           c13bf         1   UNL       c13        14     0.13845       12.0110 ; qtot   -1.697
        15           o14bf         1   UNL       o14        15    -0.33200       15.9990 ; qtot   -2.029
        16           c15bf         1   UNL       c15        16     0.13716       12.0110 ; qtot   -1.892
        17           c16bf         1   UNL       c16        17    -0.13968       12.0110 ; qtot   -2.032
        18           c17bf         1   UNL       c17        18    -0.16368       12.0110 ; qtot   -2.195
        19           h18bf         1   UNL       h18        19     0.13216        1.0080 ; qtot   -2.063
        20           h19bf         1   UNL       h19        20     0.12950        1.0080 ; qtot   -1.934
        21           h20bf         1   UNL       h20        21     0.12900        1.0080 ; qtot   -1.805
        22           h21bf         1   UNL       h21        22     0.13303        1.0080 ; qtot   -1.672
        23           h22bf         1   UNL       h22        23     0.04354        1.0080 ; qtot   -1.628
        24           h23bf         1   UNL       h23        24     0.04354        1.0080 ; qtot   -1.585
        25           h24bf         1   UNL       h24        25     0.05420        1.0080 ; qtot   -1.530
        26           h25bf         1   UNL       h25        26     0.05420        1.0080 ; qtot   -1.476
        27           h26bf         1   UNL       h26        27     0.04488        1.0080 ; qtot   -1.431
        28           h27bf         1   UNL       h27        28     0.04488        1.0080 ; qtot   -1.386
        29           h28bf         1   UNL       h28        29     0.14649        1.0080 ; qtot   -1.240
        30           c29bf         1   UNL       c29        30    -0.17498       12.0110 ; qtot   -1.415
        31           h30bf         1   UNL       h30        31     0.15284        1.0080 ; qtot   -1.262
        32           c31bf         1   UNL       c31        32    -0.12029       12.0110 ; qtot   -1.382
        33           c32bf         1   UNL       c32        33     0.37260       12.0110 ; qtot   -1.010
        34           n33bf         1   UNL       n33        34    -0.65278       14.0070 ; qtot   -1.663
        35           c34bf         1   UNL       c34        35     0.41271       12.0110 ; qtot   -1.250
        36           c35bf         1   UNL       c35        36    -0.24629       12.0110 ; qtot   -1.496
        37           c36bf         1   UNL       c36        37    -0.08316       12.0110 ; qtot   -1.579
        38           h37bf         1   UNL       h37        38     0.02187        1.0080 ; qtot   -1.557
        39           h38bf         1   UNL       h38        39     0.14427        1.0080 ; qtot   -1.413
        40           h39bf         1   UNL       h39        40     0.13893        1.0080 ; qtot   -1.274
        41           h40bf         1   UNL       h40        41     0.14393        1.0080 ; qtot   -1.130
        42           n41bf         1   UNL       n41        42    -0.18585       14.0070 ; qtot   -1.316
        43           h42bf         1   UNL       h42        43     0.31619        1.0080 ; qtot   -1.000

[ bonds ]
;       ai        aj funct               r               k
         1         2     1        0.126489   553283.079004    ;  uncertainty r = 0.000115, k = 9.491860
         2         3     1        0.126489   553283.079004    ;  uncertainty r = 0.000115, k = 9.491860
         2         4     1        0.152875   178456.895508    ;  uncertainty r = 0.000109, k = 53.157064
         4        11     1        0.138845   388969.962598    ;  uncertainty r = 0.000116, k = 35.597356
         4        42     1        0.138411   296910.981641    ;  uncertainty r = 0.000116, k = 16.653507
         5         6     1        0.139909   370024.083301    ;  uncertainty r = 0.000068, k = 3.273410
         5        10     1        0.143429   333658.805420    ;  uncertainty r = 0.000101, k = 12.925089
         5        42     1        0.137190   323439.722510    ;  uncertainty r = 0.000109, k = 15.720610
         6         7     1        0.139204   373030.490576    ;  uncertainty r = 0.000031, k = 1.532211
         6        19     1        0.108908   337826.563818    ;  uncertainty r = 0.000007, k = 0.915306
         7         8     1        0.141248   347880.881299    ;  uncertainty r = 0.000048, k = 2.727035
         7        20     1        0.108787   335143.149902    ;  uncertainty r = 0.000015, k = 1.282438
         8         9     1        0.139156   366705.408252    ;  uncertainty r = 0.000016, k = 3.013083
         8        21     1        0.108813   335291.392822    ;  uncertainty r = 0.000018, k = 0.841727
         9        10     1        0.140712   363994.363184    ;  uncertainty r = 0.000090, k = 9.392198
         9        22     1        0.108826   337192.119873    ;  uncertainty r = 0.000025, k = 2.686193
        10        11     1        0.143927   250387.756689    ;  uncertainty r = 0.000100, k = 20.205934
        11        12     1        0.150056   234448.846484    ;  uncertainty r = 0.000153, k = 11.938083
        12        13     1        0.153885   206360.273438    ;  uncertainty r = 0.000103, k = 7.147645
        12        23     1        0.109683   309037.278027    ;  uncertainty r = 0.000026, k = 1.364418
        12        24     1        0.109683   309037.278027    ;  uncertainty r = 0.000026, k = 1.364418
        13        14     1        0.152188   210122.336548    ;  uncertainty r = 0.000034, k = 2.063382
        13        25     1        0.109664   307643.385986    ;  uncertainty r = 0.000028, k = 1.424209
        13        26     1        0.109664   307643.385986    ;  uncertainty r = 0.000028, k = 1.424209
        14        15     1        0.142440   234189.210693    ;  uncertainty r = 0.000042, k = 6.653304
        14        27     1        0.109771   308109.285010    ;  uncertainty r = 0.000022, k = 1.255566
        14        28     1        0.109771   308109.285010    ;  uncertainty r = 0.000022, k = 1.255566
        15        16     1        0.136560   318102.977393    ;  uncertainty r = 0.000055, k = 3.219648
        16        18     1        0.142039   346858.554199    ;  uncertainty r = 0.000090, k = 4.942652
        16        30     1        0.138117   358060.100781    ;  uncertainty r = 0.000060, k = 5.124193
        17        18     1        0.137460   380154.399219    ;  uncertainty r = 0.000057, k = 3.519437
        17        31     1        0.108703   337221.181104    ;  uncertainty r = 0.000010, k = 1.761865
        17        33     1        0.142046   375378.014893    ;  uncertainty r = 0.000039, k = 3.624719
        18        29     1        0.108797   337336.430078    ;  uncertainty r = 0.000038, k = 1.260778
        30        32     1        0.141649   346762.892187    ;  uncertainty r = 0.000052, k = 3.225540
        30        41     1        0.108822   336457.034180    ;  uncertainty r = 0.000033, k = 1.297765
        32        33     1        0.143044   315007.368994    ;  uncertainty r = 0.000040, k = 4.227460
        32        37     1        0.141943   351378.648096    ;  uncertainty r = 0.000018, k = 4.119070
        33        34     1        0.136574   384224.401562    ;  uncertainty r = 0.000023, k = 3.083231
        34        35     1        0.131956   393802.119971    ;  uncertainty r = 0.000057, k = 5.350399
        35        36     1        0.142052   344411.843750    ;  uncertainty r = 0.000061, k = 7.279431
        35        38     1        0.109088   336581.680811    ;  uncertainty r = 0.000017, k = 3.091586
        36        37     1        0.137762   384052.102686    ;  uncertainty r = 0.000038, k = 4.189262
        36        39     1        0.108864   338684.457471    ;  uncertainty r = 0.000008, k = 2.087535
        37        40     1        0.108816   333626.781885    ;  uncertainty r = 0.000031, k = 2.431595
        42        43     1        0.101525   411016.174658    ;  uncertainty r = 0.000192, k = 19.532827

[ angles ]
;       ai        aj        ak funct           theta             cth
         1         2         3     1      131.490784      799.912795    ;  uncertainty theta = 0.007122, k = 0.161146
         1         2         4     1      115.643898      409.958804    ;  uncertainty theta = 0.009941, k = 0.278481
         2         4        11     1      129.691666      294.711234    ;  uncertainty theta = 0.010379, k = 0.154711
         2         4        42     1      117.855202      349.663933    ;  uncertainty theta = 0.005899, k = 0.287677
         3         2         4     1      115.643898      409.958804    ;  uncertainty theta = 0.009941, k = 0.278481
         4        11        10     1      107.813736      761.507664    ;  uncertainty theta = 0.003114, k = 0.233379
         4        11        12     1      125.834373      348.251189    ;  uncertainty theta = 0.008524, k = 0.203091
         4        42         5     1      106.686867      870.555334    ;  uncertainty theta = 0.004731, k = 0.157374
         4        42        43     1      118.324936      293.095597    ;  uncertainty theta = 0.017038, k = 0.289786
         5         6         7     1      117.288712      532.685140    ;  uncertainty theta = 0.002732, k = 0.138286
         5         6        19     1      122.416870      294.044205    ;  uncertainty theta = 0.002439, k = 0.026234
         5        10         9     1      116.726723      409.397211    ;  uncertainty theta = 0.004491, k = 0.081187
         5        10        11     1      107.622475      685.489179    ;  uncertainty theta = 0.004472, k = 0.334622
         5        42        43     1      119.518555      279.940091    ;  uncertainty theta = 0.027559, k = 0.287070
         6         5        10     1      120.341995      378.416324    ;  uncertainty theta = 0.003053, k = 0.079334
         6         5        42     1      130.070251      406.372596    ;  uncertainty theta = 0.003047, k = 0.189160
         6         7         8     1      122.110641      522.210073    ;  uncertainty theta = 0.001703, k = 0.050914
         6         7        20     1      119.408218      283.874658    ;  uncertainty theta = 0.001884, k = 0.037783
         7         6        19     1      121.416527      285.300203    ;  uncertainty theta = 0.001028, k = 0.037489
         7         8         9     1      121.942673      521.393652    ;  uncertainty theta = 0.001697, k = 0.032913
         7         8        21     1      119.651100      288.114903    ;  uncertainty theta = 0.001746, k = 0.035440
         8         7        20     1      119.801102      287.497097    ;  uncertainty theta = 0.001585, k = 0.046675
         8         9        10     1      119.165207      547.786701    ;  uncertainty theta = 0.003326, k = 0.038563
         8         9        22     1      120.508362      285.672566    ;  uncertainty theta = 0.001453, k = 0.031601
         9         8        21     1      119.815613      287.517558    ;  uncertainty theta = 0.001890, k = 0.024499
         9        10        11     1      132.186111      358.431813    ;  uncertainty theta = 0.003911, k = 0.091946
        10         5        42     1      107.610229      677.054783    ;  uncertainty theta = 0.004088, k = 0.326769
        10         9        22     1      121.598999      289.048061    ;  uncertainty theta = 0.003949, k = 0.074173
        10        11        12     1      125.270729      364.592289    ;  uncertainty theta = 0.008077, k = 0.215293
        11         4        42     1      110.824791      694.108145    ;  uncertainty theta = 0.003478, k = 0.245194
        11        12        13     1      111.535912      545.701916    ;  uncertainty theta = 0.004629, k = 0.049601
        11        12        23     1      107.023758      409.119878    ;  uncertainty theta = 0.002156, k = 0.076181
        11        12        24     1      107.023758      409.119878    ;  uncertainty theta = 0.002156, k = 0.076181
        12        13        14     1      109.885742      550.121049    ;  uncertainty theta = 0.002834, k = 0.051764
        12        13        25     1      107.780533      395.334819    ;  uncertainty theta = 0.002719, k = 0.061247
        12        13        26     1      107.780533      395.334819    ;  uncertainty theta = 0.002719, k = 0.061247
        13        12        23     1      106.925919      401.105057    ;  uncertainty theta = 0.002530, k = 0.096026
        13        12        24     1      106.925919      401.105057    ;  uncertainty theta = 0.002530, k = 0.096026
        13        14        15     1      109.193741      593.514535    ;  uncertainty theta = 0.001651, k = 0.053050
        13        14        27     1      109.845093      407.621744    ;  uncertainty theta = 0.001563, k = 0.041629
        13        14        28     1      109.845093      407.621744    ;  uncertainty theta = 0.001563, k = 0.041629
        14        13        25     1      106.752258      398.606123    ;  uncertainty theta = 0.001618, k = 0.026063
        14        13        26     1      106.752258      398.606123    ;  uncertainty theta = 0.001618, k = 0.026063
        14        15        16     1      110.141541      509.447041    ;  uncertainty theta = 0.001284, k = 0.047663
        15        14        27     1      106.829674      432.072824    ;  uncertainty theta = 0.001590, k = 0.029100
        15        14        28     1      106.829674      432.072824    ;  uncertainty theta = 0.001590, k = 0.029100
        15        16        18     1      119.344933      426.039618    ;  uncertainty theta = 0.003791, k = 0.040882
        15        16        30     1      120.019997      430.660175    ;  uncertainty theta = 0.003473, k = 0.141054
        16        18        17     1      119.806656      532.031805    ;  uncertainty theta = 0.001124, k = 0.074469
        16        18        29     1      119.427330      275.546144    ;  uncertainty theta = 0.000625, k = 0.049586
        16        30        32     1      119.302612      526.247139    ;  uncertainty theta = 0.000932, k = 0.112327
        16        30        41     1      120.002304      269.964435    ;  uncertainty theta = 0.000608, k = 0.118563
        17        18        29     1      120.189087      286.581783    ;  uncertainty theta = 0.002153, k = 0.059637
        17        33        32     1      116.755592      413.571890    ;  uncertainty theta = 0.003095, k = 0.098103
        17        33        34     1      121.600281      498.651324    ;  uncertainty theta = 0.004710, k = 0.105847
        18        16        30     1      121.904747      387.536201    ;  uncertainty theta = 0.005386, k = 0.057686
        18        17        31     1      121.209862      272.127619    ;  uncertainty theta = 0.003137, k = 0.063498
        18        17        33     1      119.997887      541.804889    ;  uncertainty theta = 0.001808, k = 0.090655
        23        12        24     1      104.532631      313.868120    ;  uncertainty theta = 0.003533, k = 0.064476
        25        13        26     1      105.092697      317.561425    ;  uncertainty theta = 0.002566, k = 0.027591
        27        14        28     1      107.458420      332.067141    ;  uncertainty theta = 0.001923, k = 0.040214
        30        32        33     1      118.365097      438.248622    ;  uncertainty theta = 0.004630, k = 0.189645
        30        32        37     1      124.508011      471.740478    ;  uncertainty theta = 0.003540, k = 0.112095
        31        17        33     1      120.347549      271.544352    ;  uncertainty theta = 0.002827, k = 0.060605
        32        30        41     1      120.302567      283.796865    ;  uncertainty theta = 0.002390, k = 0.107488
        32        33        34     1      121.971237      567.799751    ;  uncertainty theta = 0.002607, k = 0.102506
        32        37        36     1      118.793457      565.433099    ;  uncertainty theta = 0.001908, k = 0.091165
        32        37        40     1      120.278885      279.054464    ;  uncertainty theta = 0.001890, k = 0.056220
        33        32        37     1      115.889549      437.881942    ;  uncertainty theta = 0.004189, k = 0.171921
        33        34        35     1      115.632858      473.415201    ;  uncertainty theta = 0.001262, k = 0.205468
        34        35        36     1      123.436020      713.792213    ;  uncertainty theta = 0.001193, k = 0.070522
        34        35        38     1      115.608444      351.413928    ;  uncertainty theta = 0.001199, k = 0.059912
        35        36        37     1      118.062668      482.700494    ;  uncertainty theta = 0.001011, k = 0.073070
        35        36        39     1      121.473953      295.172275    ;  uncertainty theta = 0.001457, k = 0.068584
        36        35        38     1      120.496071      281.627073    ;  uncertainty theta = 0.002033, k = 0.038069
        36        37        40     1      121.284744      287.122052    ;  uncertainty theta = 0.001535, k = 0.064505
        37        36        39     1      121.305031      287.895092    ;  uncertainty theta = 0.000846, k = 0.053146

[ dihedrals ] ; propers for gromacs 4.5 or higher, use funct 9
;       ai        aj        ak        al funct           phase               k        pn
         1         2         4        11     9        0.000000       -1.372022         1    ;  uncertainty k = 1.492730
         1         2         4        11     9      180.000000        2.371115         2    ;  uncertainty k = 0.300481
         1         2         4        11     9        0.000000        0.292116         3    ;  uncertainty k = 0.252771
         1         2         4        11     9      180.000000        0.155159         4    ;  uncertainty k = 0.093476
         1         2         4        42     9        0.000000        1.707823         1    ;  uncertainty k = 0.704833
         1         2         4        42     9      180.000000        3.884645         2    ;  uncertainty k = 0.565807
         1         2         4        42     9        0.000000        0.749128         3    ;  uncertainty k = 0.264976
         1         2         4        42     9      180.000000        0.174104         4    ;  uncertainty k = 0.159693
         2         4        11        10     9        0.000000        0.658377         1    ;  uncertainty k = 1.317361
         2         4        11        10     9      180.000000       11.269217         2    ;  uncertainty k = 0.349150
         2         4        11        10     9        0.000000        2.080317         3    ;  uncertainty k = 0.240036
         2         4        11        10     9      180.000000        0.676709         4    ;  uncertainty k = 0.169860
         2         4        11        12     9        0.000000        0.204707         1    ;  uncertainty k = 0.747460
         2         4        11        12     9      180.000000        9.233953         2    ;  uncertainty k = 0.447589
         2         4        11        12     9        0.000000        1.675443         3    ;  uncertainty k = 0.293006
         2         4        11        12     9      180.000000        0.426607         4    ;  uncertainty k = 0.323881
         2         4        42         5     9        0.000000       -0.464996         1    ;  uncertainty k = 2.171905
         2         4        42         5     9      180.000000        6.451221         2    ;  uncertainty k = 1.089855
         2         4        42         5     9        0.000000        1.609706         3    ;  uncertainty k = 0.687909
         2         4        42         5     9      180.000000        0.292935         4    ;  uncertainty k = 0.259665
         2         4        42        43     9        0.000000        1.253702         1    ;  uncertainty k = 2.041215
         2         4        42        43     9      180.000000        2.479090         2    ;  uncertainty k = 1.021447
         2         4        42        43     9        0.000000        1.291813         3    ;  uncertainty k = 0.578698
         2         4        42        43     9      180.000000       -0.030601         4    ;  uncertainty k = 0.146305
         3         2         4        11     9        0.000000       -1.372022         1    ;  uncertainty k = 1.492730
         3         2         4        11     9      180.000000        2.371115         2    ;  uncertainty k = 0.300481
         3         2         4        11     9        0.000000        0.292116         3    ;  uncertainty k = 0.252771
         3         2         4        11     9      180.000000        0.155159         4    ;  uncertainty k = 0.093476
         3         2         4        42     9        0.000000        1.707823         1    ;  uncertainty k = 0.704833
         3         2         4        42     9      180.000000        3.884645         2    ;  uncertainty k = 0.565807
         3         2         4        42     9        0.000000        0.749128         3    ;  uncertainty k = 0.264976
         3         2         4        42     9      180.000000        0.174104         4    ;  uncertainty k = 0.159693
         4        11        10         5     9        0.000000        0.171221         1    ;  uncertainty k = 0.432160
         4        11        10         5     9      180.000000       11.967638         2    ;  uncertainty k = 1.294698
         4        11        10         5     9        0.000000       -9.909326         3    ;  uncertainty k = 1.605977
         4        11        10         5     9      180.000000        2.102653         4    ;  uncertainty k = 0.733397
         4        11        10         9     9        0.000000        0.079803         1    ;  uncertainty k = 1.313243
         4        11        10         9     9      180.000000        5.721977         2    ;  uncertainty k = 0.321426
         4        11        10         9     9        0.000000        0.431775         3    ;  uncertainty k = 0.611745
         4        11        10         9     9      180.000000        0.952472         4    ;  uncertainty k = 0.149862
         4        11        12        13     9        0.000000       -0.349977         1    ;  uncertainty k = 1.059919
         4        11        12        13     9      180.000000        1.470981         2    ;  uncertainty k = 0.379967
         4        11        12        13     9        0.000000        0.213574         3    ;  uncertainty k = 0.480671
         4        11        12        13     9      180.000000        0.121644         4    ;  uncertainty k = 0.162938
         4        11        12        23     9        0.000000        1.439359         1    ;  uncertainty k = 0.397283
         4        11        12        23     9      180.000000        2.614208         2    ;  uncertainty k = 0.334496
         4        11        12        23     9        0.000000        0.055715         3    ;  uncertainty k = 0.092065
         4        11        12        23     9      180.000000        0.180012         4    ;  uncertainty k = 0.123046
         4        11        12        24     9        0.000000        1.439359         1    ;  uncertainty k = 0.397283
         4        11        12        24     9      180.000000        2.614208         2    ;  uncertainty k = 0.334496
         4        11        12        24     9        0.000000        0.055715         3    ;  uncertainty k = 0.092065
         4        11        12        24     9      180.000000        0.180012         4    ;  uncertainty k = 0.123046
         4        42         5         6     9        0.000000        0.779094         1    ;  uncertainty k = 1.611144
         4        42         5         6     9      180.000000        6.072861         2    ;  uncertainty k = 1.235287
         4        42         5         6     9        0.000000        0.738725         3    ;  uncertainty k = 0.606503
         4        42         5         6     9      180.000000        0.313530         4    ;  uncertainty k = 0.310389
         4        42         5        10     9        0.000000       -0.304470         1    ;  uncertainty k = 0.989395
         4        42         5        10     9      180.000000       15.047904         2    ;  uncertainty k = 1.046722
         4        42         5        10     9        0.000000       -8.395769         3    ;  uncertainty k = 1.919280
         4        42         5        10     9      180.000000        0.648753         4    ;  uncertainty k = 0.607429
         5         6         7         8     9        0.000000       -0.007204         1    ;  uncertainty k = 0.352017
         5         6         7         8     9      180.000000       16.955015         2    ;  uncertainty k = 0.265826
         5         6         7         8     9        0.000000       -0.377242         3    ;  uncertainty k = 0.370600
         5         6         7         8     9      180.000000        0.608270         4    ;  uncertainty k = 0.292320
         5         6         7        20     9        0.000000        0.031155         1    ;  uncertainty k = 0.336941
         5         6         7        20     9      180.000000       10.941245         2    ;  uncertainty k = 0.419077
         5         6         7        20     9        0.000000        1.421256         3    ;  uncertainty k = 0.272945
         5         6         7        20     9      180.000000        1.557433         4    ;  uncertainty k = 0.258138
         5        10         9         8     9        0.000000        0.010947         1    ;  uncertainty k = 0.402869
         5        10         9         8     9      180.000000       13.710034         2    ;  uncertainty k = 0.163194
         5        10         9         8     9        0.000000       -1.521568         3    ;  uncertainty k = 0.300487
         5        10         9         8     9      180.000000        0.694566         4    ;  uncertainty k = 0.283041
         5        10         9        22     9        0.000000        0.253366         1    ;  uncertainty k = 0.171030
         5        10         9        22     9      180.000000        7.059567         2    ;  uncertainty k = 0.776058
         5        10         9        22     9        0.000000        1.466229         3    ;  uncertainty k = 0.353750
         5        10         9        22     9      180.000000        1.230009         4    ;  uncertainty k = 0.397540
         5        10        11        12     9        0.000000        1.338495         1    ;  uncertainty k = 1.087086
         5        10        11        12     9      180.000000       10.551107         2    ;  uncertainty k = 0.351315
         5        10        11        12     9        0.000000        1.801678         3    ;  uncertainty k = 0.392565
         5        10        11        12     9      180.000000        0.257171         4    ;  uncertainty k = 0.352643
         5        42         4        11     9        0.000000       -0.469083         1    ;  uncertainty k = 0.858056
         5        42         4        11     9      180.000000       14.635344         2    ;  uncertainty k = 0.621845
         5        42         4        11     9        0.000000       -5.847695         3    ;  uncertainty k = 1.154312
         5        42         4        11     9      180.000000        0.763949         4    ;  uncertainty k = 0.332867
         6         5        10         9     9        0.000000       -0.557460         1    ;  uncertainty k = 0.504537
         6         5        10         9     9      180.000000        7.175498         2    ;  uncertainty k = 0.762478
         6         5        10         9     9        0.000000        0.165063         3    ;  uncertainty k = 0.420579
         6         5        10         9     9      180.000000        0.902459         4    ;  uncertainty k = 0.405275
         6         5        10        11     9        0.000000       -0.095995         1    ;  uncertainty k = 0.579181
         6         5        10        11     9      180.000000        7.141607         2    ;  uncertainty k = 0.626861
         6         5        10        11     9        0.000000        0.190981         3    ;  uncertainty k = 0.555202
         6         5        10        11     9      180.000000        1.106105         4    ;  uncertainty k = 0.382286
         6         5        42        43     9        0.000000        1.556211         1    ;  uncertainty k = 0.864778
         6         5        42        43     9      180.000000        1.456879         2    ;  uncertainty k = 0.823313
         6         5        42        43     9        0.000000        1.223414         3    ;  uncertainty k = 0.515922
         6         5        42        43     9      180.000000        0.185998         4    ;  uncertainty k = 0.197024
         6         7         8         9     9        0.000000       -0.216392         1    ;  uncertainty k = 0.203221
         6         7         8         9     9      180.000000       12.688312         2    ;  uncertainty k = 0.287115
         6         7         8         9     9        0.000000       -0.841327         3    ;  uncertainty k = 0.664749
         6         7         8         9     9      180.000000        0.649352         4    ;  uncertainty k = 0.206451
         6         7         8        21     9        0.000000        0.020527         1    ;  uncertainty k = 0.059043
         6         7         8        21     9      180.000000        6.989280         2    ;  uncertainty k = 0.437421
         6         7         8        21     9        0.000000        1.365008         3    ;  uncertainty k = 0.283914
         6         7         8        21     9      180.000000        1.623914         4    ;  uncertainty k = 0.216596
         7         6         5        10     9        0.000000       -0.061762         1    ;  uncertainty k = 0.380515
         7         6         5        10     9      180.000000       12.578003         2    ;  uncertainty k = 0.240233
         7         6         5        10     9        0.000000       -1.274715         3    ;  uncertainty k = 0.208708
         7         6         5        10     9      180.000000        0.774303         4    ;  uncertainty k = 0.287170
         7         6         5        42     9        0.000000       -0.040937         1    ;  uncertainty k = 0.255561
         7         6         5        42     9      180.000000       11.252462         2    ;  uncertainty k = 0.580599
         7         6         5        42     9        0.000000        0.539336         3    ;  uncertainty k = 0.344721
         7         6         5        42     9      180.000000        1.022385         4    ;  uncertainty k = 0.303789
         7         8         9        10     9        0.000000        0.019920         1    ;  uncertainty k = 0.483038
         7         8         9        10     9      180.000000       16.879730         2    ;  uncertainty k = 0.325142
         7         8         9        10     9        0.000000       -0.454715         3    ;  uncertainty k = 0.474507
         7         8         9        10     9      180.000000        0.578125         4    ;  uncertainty k = 0.391908
         7         8         9        22     9        0.000000        0.168636         1    ;  uncertainty k = 0.193241
         7         8         9        22     9      180.000000        8.751744         2    ;  uncertainty k = 0.517235
         7         8         9        22     9        0.000000        1.537661         3    ;  uncertainty k = 0.246200
         7         8         9        22     9      180.000000        1.882841         4    ;  uncertainty k = 0.288260
         8         7         6        19     9        0.000000        0.165182         1    ;  uncertainty k = 0.216912
         8         7         6        19     9      180.000000        8.873569         2    ;  uncertainty k = 0.614611
         8         7         6        19     9        0.000000        1.622975         3    ;  uncertainty k = 0.261540
         8         7         6        19     9      180.000000        1.905453         4    ;  uncertainty k = 0.326822
         8         9        10        11     9        0.000000        0.249754         1    ;  uncertainty k = 0.103663
         8         9        10        11     9      180.000000        9.179070         2    ;  uncertainty k = 0.411370
         8         9        10        11     9        0.000000        0.517062         3    ;  uncertainty k = 0.430347
         8         9        10        11     9      180.000000        1.153234         4    ;  uncertainty k = 0.143424
         9         8         7        20     9        0.000000       -0.030439         1    ;  uncertainty k = 0.102039
         9         8         7        20     9      180.000000        6.901166         2    ;  uncertainty k = 0.417182
         9         8         7        20     9        0.000000        1.354655         3    ;  uncertainty k = 0.214825
         9         8         7        20     9      180.000000        1.587525         4    ;  uncertainty k = 0.176781
         9        10         5        42     9        0.000000       -0.032223         1    ;  uncertainty k = 0.572800
         9        10         5        42     9      180.000000        8.643801         2    ;  uncertainty k = 0.269497
         9        10         5        42     9        0.000000       -0.453955         3    ;  uncertainty k = 0.641367
         9        10         5        42     9      180.000000        1.174833         4    ;  uncertainty k = 0.384480
         9        10        11        12     9        0.000000        0.238962         1    ;  uncertainty k = 1.397644
         9        10        11        12     9      180.000000        5.787111         2    ;  uncertainty k = 0.469516
         9        10        11        12     9        0.000000        1.699641         3    ;  uncertainty k = 0.321923
         9        10        11        12     9      180.000000        0.173483         4    ;  uncertainty k = 0.188688
        10         5         6        19     9        0.000000        0.319122         1    ;  uncertainty k = 0.490757
        10         5         6        19     9      180.000000        6.345798         2    ;  uncertainty k = 0.822340
        10         5         6        19     9        0.000000        1.324954         3    ;  uncertainty k = 0.253224
        10         5         6        19     9      180.000000        1.101595         4    ;  uncertainty k = 0.359631
        10         5        42        43     9        0.000000        6.104771         1    ;  uncertainty k = 2.118852
        10         5        42        43     9      180.000000        4.638188         2    ;  uncertainty k = 1.440061
        10         5        42        43     9        0.000000        1.257719         3    ;  uncertainty k = 0.462506
        10         5        42        43     9      180.000000        0.319292         4    ;  uncertainty k = 0.097072
        10         9         8        21     9        0.000000        0.118304         1    ;  uncertainty k = 0.391732
        10         9         8        21     9      180.000000       10.979734         2    ;  uncertainty k = 0.363860
        10         9         8        21     9        0.000000        1.498291         3    ;  uncertainty k = 0.324461
        10         9         8        21     9      180.000000        1.658170         4    ;  uncertainty k = 0.294311
        10        11         4        42     9        0.000000       -0.343459         1    ;  uncertainty k = 0.628997
        10        11         4        42     9      180.000000       19.851699         2    ;  uncertainty k = 0.337385
        10        11         4        42     9        0.000000       -6.038290         3    ;  uncertainty k = 1.696781
        10        11         4        42     9      180.000000        1.027794         4    ;  uncertainty k = 0.436841
        10        11        12        13     9        0.000000       -0.219350         1    ;  uncertainty k = 1.004792
        10        11        12        13     9      180.000000        1.088397         2    ;  uncertainty k = 0.671793
        10        11        12        13     9        0.000000        0.696652         3    ;  uncertainty k = 0.268337
        10        11        12        13     9      180.000000        0.164044         4    ;  uncertainty k = 0.059900
        10        11        12        23     9        0.000000       -0.686922         1    ;  uncertainty k = 0.448583
        10        11        12        23     9      180.000000        2.071241         2    ;  uncertainty k = 0.415244
        10        11        12        23     9        0.000000        0.779274         3    ;  uncertainty k = 0.145606
        10        11        12        23     9      180.000000        0.211883         4    ;  uncertainty k = 0.077331
        10        11        12        24     9        0.000000       -0.686922         1    ;  uncertainty k = 0.448583
        10        11        12        24     9      180.000000        2.071241         2    ;  uncertainty k = 0.415244
        10        11        12        24     9        0.000000        0.779274         3    ;  uncertainty k = 0.145606
        10        11        12        24     9      180.000000        0.211883         4    ;  uncertainty k = 0.077331
        11         4        42        43     9        0.000000        3.994328         1    ;  uncertainty k = 2.809202
        11         4        42        43     9      180.000000        7.262692         2    ;  uncertainty k = 0.379219
        11         4        42        43     9        0.000000        1.858366         3    ;  uncertainty k = 0.686233
        11         4        42        43     9      180.000000       -0.114663         4    ;  uncertainty k = 0.351651
        11        10         5        42     9        0.000000       -0.200094         1    ;  uncertainty k = 0.424326
        11        10         5        42     9      180.000000       12.998297         2    ;  uncertainty k = 0.637100
        11        10         5        42     9        0.000000       -4.487286         3    ;  uncertainty k = 1.787353
        11        10         5        42     9      180.000000        1.376048         4    ;  uncertainty k = 0.852458
        11        10         9        22     9        0.000000        0.623609         1    ;  uncertainty k = 0.818827
        11        10         9        22     9      180.000000        5.597101         2    ;  uncertainty k = 0.476520
        11        10         9        22     9        0.000000        1.146275         3    ;  uncertainty k = 0.356005
        11        10         9        22     9      180.000000        0.780142         4    ;  uncertainty k = 0.277119
        11        12        13        14     9        0.000000       -2.801316         1    ;  uncertainty k = 1.004069
        11        12        13        14     9      180.000000       -0.438589         2    ;  uncertainty k = 0.389402
        11        12        13        14     9        0.000000        1.347280         3    ;  uncertainty k = 0.125820
        11        12        13        14     9      180.000000       -0.311705         4    ;  uncertainty k = 0.110454
        11        12        13        25     9        0.000000        0.428586         1    ;  uncertainty k = 0.616137
        11        12        13        25     9      180.000000       -0.329644         2    ;  uncertainty k = 0.354692
        11        12        13        25     9        0.000000        1.117197         3    ;  uncertainty k = 0.164143
        11        12        13        25     9      180.000000        0.004866         4    ;  uncertainty k = 0.054513
        11        12        13        26     9        0.000000        0.428586         1    ;  uncertainty k = 0.616137
        11        12        13        26     9      180.000000       -0.329644         2    ;  uncertainty k = 0.354692
        11        12        13        26     9        0.000000        1.117197         3    ;  uncertainty k = 0.164143
        11        12        13        26     9      180.000000        0.004866         4    ;  uncertainty k = 0.054513
        12        11         4        42     9        0.000000        0.421908         1    ;  uncertainty k = 0.686278
        12        11         4        42     9      180.000000       16.338015         2    ;  uncertainty k = 0.475382
        12        11         4        42     9        0.000000        1.239768         3    ;  uncertainty k = 0.508644
        12        11         4        42     9      180.000000        0.759832         4    ;  uncertainty k = 0.322483
        12        13        14        15     9        0.000000       -3.925305         1    ;  uncertainty k = 1.235011
        12        13        14        15     9      180.000000       -2.470611         2    ;  uncertainty k = 0.458854
        12        13        14        15     9        0.000000        2.177975         3    ;  uncertainty k = 0.265226
        12        13        14        15     9      180.000000       -0.470336         4    ;  uncertainty k = 0.157337
        12        13        14        27     9        0.000000       -1.871136         1    ;  uncertainty k = 0.468510
        12        13        14        27     9      180.000000        0.095219         2    ;  uncertainty k = 0.232744
        12        13        14        27     9        0.000000        0.932549         3    ;  uncertainty k = 0.065164
        12        13        14        27     9      180.000000       -0.360169         4    ;  uncertainty k = 0.102632
        12        13        14        28     9        0.000000       -1.871136         1    ;  uncertainty k = 0.468510
        12        13        14        28     9      180.000000        0.095219         2    ;  uncertainty k = 0.232744
        12        13        14        28     9        0.000000        0.932549         3    ;  uncertainty k = 0.065164
        12        13        14        28     9      180.000000       -0.360169         4    ;  uncertainty k = 0.102632
        13        14        15        16     9        0.000000       -1.241399         1    ;  uncertainty k = 0.484258
        13        14        15        16     9      180.000000       -0.191650         2    ;  uncertainty k = 0.213929
        13        14        15        16     9        0.000000        0.762488         3    ;  uncertainty k = 0.088993
        13        14        15        16     9      180.000000        0.490592         4    ;  uncertainty k = 0.070365
        14        13        12        23     9        0.000000       -1.678232         1    ;  uncertainty k = 0.372686
        14        13        12        23     9      180.000000       -0.600433         2    ;  uncertainty k = 0.296124
        14        13        12        23     9        0.000000        0.946218         3    ;  uncertainty k = 0.127819
        14        13        12        23     9      180.000000       -0.352632         4    ;  uncertainty k = 0.063040
        14        13        12        24     9        0.000000       -1.678232         1    ;  uncertainty k = 0.372686
        14        13        12        24     9      180.000000       -0.600433         2    ;  uncertainty k = 0.296124
        14        13        12        24     9        0.000000        0.946218         3    ;  uncertainty k = 0.127819
        14        13        12        24     9      180.000000       -0.352632         4    ;  uncertainty k = 0.063040
        14        15        16        18     9        0.000000        1.252700         1    ;  uncertainty k = 0.547597
        14        15        16        18     9      180.000000        7.132255         2    ;  uncertainty k = 0.135752
        14        15        16        18     9        0.000000        1.021279         3    ;  uncertainty k = 0.063754
        14        15        16        18     9      180.000000        0.178494         4    ;  uncertainty k = 0.044922
        14        15        16        30     9        0.000000       -0.302608         1    ;  uncertainty k = 0.616069
        14        15        16        30     9      180.000000        7.088157         2    ;  uncertainty k = 0.098583
        14        15        16        30     9        0.000000        0.253070         3    ;  uncertainty k = 0.113297
        14        15        16        30     9      180.000000        0.194788         4    ;  uncertainty k = 0.060436
        15        14        13        25     9        0.000000        0.241708         1    ;  uncertainty k = 0.521415
        15        14        13        25     9      180.000000       -2.139064         2    ;  uncertainty k = 0.276484
        15        14        13        25     9        0.000000        1.416970         3    ;  uncertainty k = 0.091085
        15        14        13        25     9      180.000000        0.040632         4    ;  uncertainty k = 0.071522
        15        14        13        26     9        0.000000        0.241708         1    ;  uncertainty k = 0.521415
        15        14        13        26     9      180.000000       -2.139064         2    ;  uncertainty k = 0.276484
        15        14        13        26     9        0.000000        1.416970         3    ;  uncertainty k = 0.091085
        15        14        13        26     9      180.000000        0.040632         4    ;  uncertainty k = 0.071522
        15        16        18        17     9        0.000000        0.198572         1    ;  uncertainty k = 0.274557
        15        16        18        17     9      180.000000        9.497139         2    ;  uncertainty k = 0.556858
        15        16        18        17     9        0.000000        1.132617         3    ;  uncertainty k = 0.263591
        15        16        18        17     9      180.000000        1.534343         4    ;  uncertainty k = 0.222945
        15        16        18        29     9        0.000000       -0.102748         1    ;  uncertainty k = 0.242851
        15        16        18        29     9      180.000000        8.131281         2    ;  uncertainty k = 0.360460
        15        16        18        29     9        0.000000        0.674083         3    ;  uncertainty k = 0.136550
        15        16        18        29     9      180.000000        0.967463         4    ;  uncertainty k = 0.230227
        15        16        30        32     9        0.000000       -0.061661         1    ;  uncertainty k = 0.355739
        15        16        30        32     9      180.000000       13.261856         2    ;  uncertainty k = 0.202413
        15        16        30        32     9        0.000000        1.201175         3    ;  uncertainty k = 0.190921
        15        16        30        32     9      180.000000        1.535521         4    ;  uncertainty k = 0.150943
        15        16        30        41     9        0.000000       -0.075836         1    ;  uncertainty k = 0.238977
        15        16        30        41     9      180.000000        9.731214         2    ;  uncertainty k = 0.367525
        15        16        30        41     9        0.000000        0.829591         3    ;  uncertainty k = 0.115312
        15        16        30        41     9      180.000000        1.123971         4    ;  uncertainty k = 0.265502
        16        15        14        27     9        0.000000        0.521202         1    ;  uncertainty k = 0.308610
        16        15        14        27     9      180.000000       -1.203804         2    ;  uncertainty k = 0.104271
        16        15        14        27     9        0.000000        0.570074         3    ;  uncertainty k = 0.046249
        16        15        14        27     9      180.000000        0.281790         4    ;  uncertainty k = 0.056460
        16        15        14        28     9        0.000000        0.521202         1    ;  uncertainty k = 0.308610
        16        15        14        28     9      180.000000       -1.203804         2    ;  uncertainty k = 0.104271
        16        15        14        28     9        0.000000        0.570074         3    ;  uncertainty k = 0.046249
        16        15        14        28     9      180.000000        0.281790         4    ;  uncertainty k = 0.056460
        16        18        17        31     9        0.000000        0.016781         1    ;  uncertainty k = 0.158266
        16        18        17        31     9      180.000000        9.509858         2    ;  uncertainty k = 0.398208
        16        18        17        31     9        0.000000        1.325585         3    ;  uncertainty k = 0.477166
        16        18        17        31     9      180.000000        1.889128         4    ;  uncertainty k = 0.243193
        16        18        17        33     9        0.000000       -0.389265         1    ;  uncertainty k = 0.095613
        16        18        17        33     9      180.000000       15.513783         2    ;  uncertainty k = 0.338362
        16        18        17        33     9        0.000000       -0.312723         3    ;  uncertainty k = 0.407506
        16        18        17        33     9      180.000000        1.070023         4    ;  uncertainty k = 0.257928
        16        30        32        33     9        0.000000       -0.216981         1    ;  uncertainty k = 0.334955
        16        30        32        33     9      180.000000       10.452485         2    ;  uncertainty k = 0.403526
        16        30        32        33     9        0.000000       -0.006199         3    ;  uncertainty k = 0.215084
        16        30        32        33     9      180.000000        1.232961         4    ;  uncertainty k = 0.179933
        16        30        32        37     9        0.000000       -0.082332         1    ;  uncertainty k = 0.375503
        16        30        32        37     9      180.000000        9.304911         2    ;  uncertainty k = 0.388754
        16        30        32        37     9        0.000000        0.619653         3    ;  uncertainty k = 0.421081
        16        30        32        37     9      180.000000        1.394633         4    ;  uncertainty k = 0.077722
        17        18        16        30     9        0.000000        0.029599         1    ;  uncertainty k = 0.538609
        17        18        16        30     9      180.000000        6.941061         2    ;  uncertainty k = 0.736338
        17        18        16        30     9        0.000000        0.184453         3    ;  uncertainty k = 0.350010
        17        18        16        30     9      180.000000        1.220325         4    ;  uncertainty k = 0.291698
        17        33        32        30     9        0.000000       -0.099400         1    ;  uncertainty k = 0.291767
        17        33        32        30     9      180.000000        6.424642         2    ;  uncertainty k = 0.809755
        17        33        32        30     9        0.000000        0.046135         3    ;  uncertainty k = 0.241339
        17        33        32        30     9      180.000000        1.379895         4    ;  uncertainty k = 0.325888
        17        33        32        37     9        0.000000       -0.094064         1    ;  uncertainty k = 0.210392
        17        33        32        37     9      180.000000        6.287551         2    ;  uncertainty k = 0.848659
        17        33        32        37     9        0.000000        0.007028         3    ;  uncertainty k = 0.169599
        17        33        32        37     9      180.000000        1.412424         4    ;  uncertainty k = 0.289065
        17        33        34        35     9        0.000000        0.495459         1    ;  uncertainty k = 0.776593
        17        33        34        35     9      180.000000       12.838713         2    ;  uncertainty k = 0.323498
        17        33        34        35     9        0.000000        2.121378         3    ;  uncertainty k = 0.142252
        17        33        34        35     9      180.000000        1.311022         4    ;  uncertainty k = 0.075382
        18        16        30        32     9        0.000000        0.121152         1    ;  uncertainty k = 0.385766
        18        16        30        32     9      180.000000       10.452157         2    ;  uncertainty k = 0.521238
        18        16        30        32     9        0.000000        0.381951         3    ;  uncertainty k = 0.455978
        18        16        30        32     9      180.000000        1.334303         4    ;  uncertainty k = 0.365213
        18        16        30        41     9        0.000000        0.410763         1    ;  uncertainty k = 0.298742
        18        16        30        41     9      180.000000        7.078287         2    ;  uncertainty k = 0.372375
        18        16        30        41     9        0.000000        1.599853         3    ;  uncertainty k = 0.343850
        18        16        30        41     9      180.000000        1.695884         4    ;  uncertainty k = 0.103415
        18        17        33        32     9        0.000000        0.222122         1    ;  uncertainty k = 0.170819
        18        17        33        32     9      180.000000        8.913059         2    ;  uncertainty k = 0.516607
        18        17        33        32     9        0.000000       -0.378513         3    ;  uncertainty k = 0.320079
        18        17        33        32     9      180.000000        1.096895         4    ;  uncertainty k = 0.226020
        18        17        33        34     9        0.000000        0.143202         1    ;  uncertainty k = 0.349651
        18        17        33        34     9      180.000000        9.328893         2    ;  uncertainty k = 0.428338
        18        17        33        34     9        0.000000        0.580689         3    ;  uncertainty k = 0.254754
        18        17        33        34     9      180.000000        1.413358         4    ;  uncertainty k = 0.350722
        19         6         5        42     9        0.000000        0.248357         1    ;  uncertainty k = 0.309441
        19         6         5        42     9      180.000000        6.219890         2    ;  uncertainty k = 0.560809
        19         6         5        42     9        0.000000        1.223843         3    ;  uncertainty k = 0.395076
        19         6         5        42     9      180.000000        0.794522         4    ;  uncertainty k = 0.403871
        19         6         7        20     9        0.000000        0.067635         1    ;  uncertainty k = 0.257851
        19         6         7        20     9      180.000000        7.678575         2    ;  uncertainty k = 0.249764
        19         6         7        20     9        0.000000       -0.249177         3    ;  uncertainty k = 0.224083
        19         6         7        20     9      180.000000        0.128053         4    ;  uncertainty k = 0.127116
        20         7         8        21     9        0.000000        0.024825         1    ;  uncertainty k = 0.154580
        20         7         8        21     9      180.000000        6.825472         2    ;  uncertainty k = 0.478217
        20         7         8        21     9        0.000000       -0.239724         3    ;  uncertainty k = 0.197508
        20         7         8        21     9      180.000000        0.091582         4    ;  uncertainty k = 0.138206
        21         8         9        22     9        0.000000        0.081241         1    ;  uncertainty k = 0.094303
        21         8         9        22     9      180.000000        7.822591         2    ;  uncertainty k = 0.225676
        21         8         9        22     9        0.000000       -0.195366         3    ;  uncertainty k = 0.265935
        21         8         9        22     9      180.000000        0.166865         4    ;  uncertainty k = 0.178529
        23        12        13        25     9        0.000000        0.852998         1    ;  uncertainty k = 0.162312
        23        12        13        25     9      180.000000       -0.684815         2    ;  uncertainty k = 0.290805
        23        12        13        25     9        0.000000        0.190526         3    ;  uncertainty k = 0.067767
        23        12        13        25     9      180.000000        0.009351         4    ;  uncertainty k = 0.042473
        23        12        13        26     9        0.000000        0.852998         1    ;  uncertainty k = 0.162312
        23        12        13        26     9      180.000000       -0.684815         2    ;  uncertainty k = 0.290805
        23        12        13        26     9        0.000000        0.190526         3    ;  uncertainty k = 0.067767
        23        12        13        26     9      180.000000        0.009351         4    ;  uncertainty k = 0.042473
        24        12        13        25     9        0.000000        0.852998         1    ;  uncertainty k = 0.162312
        24        12        13        25     9      180.000000       -0.684815         2    ;  uncertainty k = 0.290805
        24        12        13        25     9        0.000000        0.190526         3    ;  uncertainty k = 0.067767
        24        12        13        25     9      180.000000        0.009351         4    ;  uncertainty k = 0.042473
        24        12        13        26     9        0.000000        0.852998         1    ;  uncertainty k = 0.162312
        24        12        13        26     9      180.000000       -0.684815         2    ;  uncertainty k = 0.290805
        24        12        13        26     9        0.000000        0.190526         3    ;  uncertainty k = 0.067767
        24        12        13        26     9      180.000000        0.009351         4    ;  uncertainty k = 0.042473
        25        13        14        27     9        0.000000        0.460521         1    ;  uncertainty k = 0.143278
        25        13        14        27     9      180.000000       -0.427398         2    ;  uncertainty k = 0.142610
        25        13        14        27     9        0.000000        0.096106         3    ;  uncertainty k = 0.072629
        25        13        14        27     9      180.000000       -0.037865         4    ;  uncertainty k = 0.076001
        25        13        14        28     9        0.000000        0.460521         1    ;  uncertainty k = 0.143278
        25        13        14        28     9      180.000000       -0.427398         2    ;  uncertainty k = 0.142610
        25        13        14        28     9        0.000000        0.096106         3    ;  uncertainty k = 0.072629
        25        13        14        28     9      180.000000       -0.037865         4    ;  uncertainty k = 0.076001
        26        13        14        27     9        0.000000        0.460521         1    ;  uncertainty k = 0.143278
        26        13        14        27     9      180.000000       -0.427398         2    ;  uncertainty k = 0.142610
        26        13        14        27     9        0.000000        0.096106         3    ;  uncertainty k = 0.072629
        26        13        14        27     9      180.000000       -0.037865         4    ;  uncertainty k = 0.076001
        26        13        14        28     9        0.000000        0.460521         1    ;  uncertainty k = 0.143278
        26        13        14        28     9      180.000000       -0.427398         2    ;  uncertainty k = 0.142610
        26        13        14        28     9        0.000000        0.096106         3    ;  uncertainty k = 0.072629
        26        13        14        28     9      180.000000       -0.037865         4    ;  uncertainty k = 0.076001
        29        18        16        30     9        0.000000        0.142788         1    ;  uncertainty k = 0.238961
        29        18        16        30     9      180.000000        5.437466         2    ;  uncertainty k = 0.687286
        29        18        16        30     9        0.000000        1.256230         3    ;  uncertainty k = 0.212542
        29        18        16        30     9      180.000000        1.413941         4    ;  uncertainty k = 0.115771
        29        18        17        31     9        0.000000       -0.000449         1    ;  uncertainty k = 0.272874
        29        18        17        31     9      180.000000        8.345111         2    ;  uncertainty k = 0.346178
        29        18        17        31     9        0.000000       -0.239077         3    ;  uncertainty k = 0.291424
        29        18        17        31     9      180.000000        0.292089         4    ;  uncertainty k = 0.194549
        29        18        17        33     9        0.000000        0.056597         1    ;  uncertainty k = 0.271973
        29        18        17        33     9      180.000000       10.301269         2    ;  uncertainty k = 0.183968
        29        18        17        33     9        0.000000        1.423010         3    ;  uncertainty k = 0.177873
        29        18        17        33     9      180.000000        1.736105         4    ;  uncertainty k = 0.134550
        30        32        33        34     9        0.000000       -0.007976         1    ;  uncertainty k = 0.117964
        30        32        33        34     9      180.000000        7.507027         2    ;  uncertainty k = 0.750805
        30        32        33        34     9        0.000000        0.171989         3    ;  uncertainty k = 0.098639
        30        32        33        34     9      180.000000        1.373931         4    ;  uncertainty k = 0.338167
        30        32        37        36     9        0.000000       -0.013818         1    ;  uncertainty k = 0.517573
        30        32        37        36     9      180.000000        9.522832         2    ;  uncertainty k = 0.102305
        30        32        37        36     9        0.000000        0.385399         3    ;  uncertainty k = 0.315021
        30        32        37        36     9      180.000000        1.415399         4    ;  uncertainty k = 0.127547
        30        32        37        40     9        0.000000       -0.050250         1    ;  uncertainty k = 0.186884
        30        32        37        40     9      180.000000        6.295332         2    ;  uncertainty k = 0.319140
        30        32        37        40     9        0.000000        1.226513         3    ;  uncertainty k = 0.283800
        30        32        37        40     9      180.000000        1.224137         4    ;  uncertainty k = 0.177672
        31        17        33        32     9        0.000000       -0.243091         1    ;  uncertainty k = 0.410865
        31        17        33        32     9      180.000000        5.207548         2    ;  uncertainty k = 0.473566
        31        17        33        32     9        0.000000        1.128606         3    ;  uncertainty k = 0.282266
        31        17        33        32     9      180.000000        1.056870         4    ;  uncertainty k = 0.189468
        31        17        33        34     9        0.000000       -0.087043         1    ;  uncertainty k = 0.144925
        31        17        33        34     9      180.000000        7.411554         2    ;  uncertainty k = 0.396046
        31        17        33        34     9        0.000000        0.946382         3    ;  uncertainty k = 0.304717
        31        17        33        34     9      180.000000        1.173105         4    ;  uncertainty k = 0.180977
        32        33        34        35     9        0.000000        0.498342         1    ;  uncertainty k = 0.724755
        32        33        34        35     9      180.000000       12.982685         2    ;  uncertainty k = 0.372643
        32        33        34        35     9        0.000000        1.472839         3    ;  uncertainty k = 0.316725
        32        33        34        35     9      180.000000        1.290486         4    ;  uncertainty k = 0.188516
        32        37        36        35     9        0.000000        0.078956         1    ;  uncertainty k = 0.134579
        32        37        36        35     9      180.000000       16.834483         2    ;  uncertainty k = 0.132030
        32        37        36        35     9        0.000000       -0.846394         3    ;  uncertainty k = 0.624557
        32        37        36        35     9      180.000000        0.609377         4    ;  uncertainty k = 0.311507
        32        37        36        39     9        0.000000        0.241164         1    ;  uncertainty k = 0.358759
        32        37        36        39     9      180.000000       10.790209         2    ;  uncertainty k = 0.239157
        32        37        36        39     9        0.000000        1.617387         3    ;  uncertainty k = 0.436953
        32        37        36        39     9      180.000000        1.792552         4    ;  uncertainty k = 0.230120
        33        32        30        41     9        0.000000       -0.139320         1    ;  uncertainty k = 0.618566
        33        32        30        41     9      180.000000        6.709024         2    ;  uncertainty k = 0.621267
        33        32        30        41     9        0.000000        1.245236         3    ;  uncertainty k = 0.133523
        33        32        30        41     9      180.000000        1.243385         4    ;  uncertainty k = 0.301816
        33        32        37        36     9        0.000000        0.129293         1    ;  uncertainty k = 0.375602
        33        32        37        36     9      180.000000       10.742324         2    ;  uncertainty k = 0.261951
        33        32        37        36     9        0.000000       -0.600127         3    ;  uncertainty k = 0.181463
        33        32        37        36     9      180.000000        1.104637         4    ;  uncertainty k = 0.141586
        33        32        37        40     9        0.000000       -0.306047         1    ;  uncertainty k = 0.849263
        33        32        37        40     9      180.000000        6.350322         2    ;  uncertainty k = 0.581586
        33        32        37        40     9        0.000000        1.211165         3    ;  uncertainty k = 0.152663
        33        32        37        40     9      180.000000        1.226801         4    ;  uncertainty k = 0.160977
        33        34        35        36     9        0.000000       -0.107706         1    ;  uncertainty k = 0.407773
        33        34        35        36     9      180.000000       17.899774         2    ;  uncertainty k = 0.143719
        33        34        35        36     9        0.000000        1.236473         3    ;  uncertainty k = 0.452195
        33        34        35        36     9      180.000000        1.464961         4    ;  uncertainty k = 0.091842
        33        34        35        38     9        0.000000        0.154292         1    ;  uncertainty k = 0.343487
        33        34        35        38     9      180.000000       18.171668         2    ;  uncertainty k = 0.410220
        33        34        35        38     9        0.000000        2.468602         3    ;  uncertainty k = 0.435723
        33        34        35        38     9      180.000000        1.501849         4    ;  uncertainty k = 0.325707
        34        33        32        37     9        0.000000       -0.057088         1    ;  uncertainty k = 0.189015
        34        33        32        37     9      180.000000        7.324768         2    ;  uncertainty k = 0.828030
        34        33        32        37     9        0.000000        0.124979         3    ;  uncertainty k = 0.181965
        34        33        32        37     9      180.000000        1.375903         4    ;  uncertainty k = 0.278484
        34        35        36        37     9        0.000000       -0.170869         1    ;  uncertainty k = 0.418009
        34        35        36        37     9      180.000000       11.998250         2    ;  uncertainty k = 0.373135
        34        35        36        37     9        0.000000       -1.214710         3    ;  uncertainty k = 0.700183
        34        35        36        37     9      180.000000        0.932001         4    ;  uncertainty k = 0.153030
        34        35        36        39     9        0.000000        0.105104         1    ;  uncertainty k = 0.350064
        34        35        36        39     9      180.000000        7.717512         2    ;  uncertainty k = 0.694159
        34        35        36        39     9        0.000000        0.829649         3    ;  uncertainty k = 0.208595
        34        35        36        39     9      180.000000        1.475812         4    ;  uncertainty k = 0.192005
        35        36        37        40     9        0.000000       -0.126623         1    ;  uncertainty k = 0.336814
        35        36        37        40     9      180.000000        9.544765         2    ;  uncertainty k = 0.310554
        35        36        37        40     9        0.000000        1.389820         3    ;  uncertainty k = 0.257611
        35        36        37        40     9      180.000000        1.769115         4    ;  uncertainty k = 0.237121
        37        32        30        41     9        0.000000       -0.106738         1    ;  uncertainty k = 0.234709
        37        32        30        41     9      180.000000        6.466208         2    ;  uncertainty k = 0.566561
        37        32        30        41     9        0.000000        1.196862         3    ;  uncertainty k = 0.225062
        37        32        30        41     9      180.000000        1.172046         4    ;  uncertainty k = 0.171791
        37        36        35        38     9        0.000000       -0.144582         1    ;  uncertainty k = 0.284747
        37        36        35        38     9      180.000000        5.379528         2    ;  uncertainty k = 0.267447
        37        36        35        38     9        0.000000        0.990603         3    ;  uncertainty k = 0.204764
        37        36        35        38     9      180.000000        1.203906         4    ;  uncertainty k = 0.250094
        38        35        36        39     9        0.000000       -0.217702         1    ;  uncertainty k = 0.358769
        38        35        36        39     9      180.000000        6.010238         2    ;  uncertainty k = 0.472575
        38        35        36        39     9        0.000000        0.067029         3    ;  uncertainty k = 0.126224
        38        35        36        39     9      180.000000        0.285715         4    ;  uncertainty k = 0.122562
        39        36        37        40     9        0.000000        0.048987         1    ;  uncertainty k = 0.337331
        39        36        37        40     9      180.000000        9.023215         2    ;  uncertainty k = 0.300571
        39        36        37        40     9        0.000000       -0.251971         3    ;  uncertainty k = 0.303248
        39        36        37        40     9      180.000000        0.232891         4    ;  uncertainty k = 0.210588

[ dihedrals ] ; impropers
;       ai        aj        ak        al funct           phase               k        pn
         2         1         3         4     4      180.000000       64.265870         2    ;  uncertainty k = 0.050254
         2         3         4         1     4      180.000000       64.265870         2    ;  uncertainty k = 0.050254
         2         4         1         3     4      180.000000       64.265870         2    ;  uncertainty k = 0.050254
         4         2        11        42     4      180.000000        5.876962         2    ;  uncertainty k = 0.526652
         4        11        42         2     4      180.000000        5.876962         2    ;  uncertainty k = 0.526652
         4        42         2        11     4      180.000000        5.876962         2    ;  uncertainty k = 0.526652
         5         6        10        42     4      180.000000        1.057351         2    ;  uncertainty k = 0.904203
         5        10        42         6     4      180.000000        1.057351         2    ;  uncertainty k = 0.904203
         5        42         6        10     4      180.000000        1.057351         2    ;  uncertainty k = 0.904203
         6         5         7        19     4      180.000000        2.336038         2    ;  uncertainty k = 0.300690
         6         7        19         5     4      180.000000        2.336038         2    ;  uncertainty k = 0.300690
         6        19         5         7     4      180.000000        2.336038         2    ;  uncertainty k = 0.300690
         7         6         8        20     4      180.000000        3.761580         2    ;  uncertainty k = 0.188540
         7         8        20         6     4      180.000000        3.761580         2    ;  uncertainty k = 0.188540
         7        20         6         8     4      180.000000        3.761580         2    ;  uncertainty k = 0.188540
         8         7         9        21     4      180.000000        3.007353         2    ;  uncertainty k = 0.125347
         8         9        21         7     4      180.000000        3.007353         2    ;  uncertainty k = 0.125347
         8        21         7         9     4      180.000000        3.007353         2    ;  uncertainty k = 0.125347
         9         8        10        22     4      180.000000        4.051630         2    ;  uncertainty k = 0.159442
         9        10        22         8     4      180.000000        4.051630         2    ;  uncertainty k = 0.159442
         9        22         8        10     4      180.000000        4.051630         2    ;  uncertainty k = 0.159442
        11         4        10        12     4      180.000000        2.099179         2    ;  uncertainty k = 0.534872
        11        10        12         4     4      180.000000        2.099179         2    ;  uncertainty k = 0.534872
        11        12         4        10     4      180.000000        2.099179         2    ;  uncertainty k = 0.534872
        16        15        18        30     4      180.000000       19.550176         2    ;  uncertainty k = 0.066876
        16        18        30        15     4      180.000000       19.550176         2    ;  uncertainty k = 0.066876
        16        30        15        18     4      180.000000       19.550176         2    ;  uncertainty k = 0.066876
        17        18        31        33     4      180.000000        3.864914         2    ;  uncertainty k = 0.132003
        17        31        33        18     4      180.000000        3.864914         2    ;  uncertainty k = 0.132003
        17        33        18        31     4      180.000000        3.864914         2    ;  uncertainty k = 0.132003
        18        16        17        29     4      180.000000        3.193572         2    ;  uncertainty k = 0.268107
        18        17        29        16     4      180.000000        3.193572         2    ;  uncertainty k = 0.268107
        18        29        16        17     4      180.000000        3.193572         2    ;  uncertainty k = 0.268107
        30        16        32        41     4      180.000000        2.683171         2    ;  uncertainty k = 0.351534
        30        32        41        16     4      180.000000        2.683171         2    ;  uncertainty k = 0.351534
        30        41        16        32     4      180.000000        2.683171         2    ;  uncertainty k = 0.351534
        32        30        33        37     4      180.000000        8.681413         2    ;  uncertainty k = 0.268967
        32        33        37        30     4      180.000000        8.681413         2    ;  uncertainty k = 0.268967
        32        37        30        33     4      180.000000        8.681413         2    ;  uncertainty k = 0.268967
        33        17        32        34     4      180.000000       15.934084         2    ;  uncertainty k = 0.109565
        33        32        34        17     4      180.000000       15.934084         2    ;  uncertainty k = 0.109565
        33        34        17        32     4      180.000000       15.934084         2    ;  uncertainty k = 0.109565
        35        34        36        38     4      180.000000       14.167563         2    ;  uncertainty k = 0.055837
        35        36        38        34     4      180.000000       14.167563         2    ;  uncertainty k = 0.055837
        35        38        34        36     4      180.000000       14.167563         2    ;  uncertainty k = 0.055837
        36        35        37        39     4      180.000000        3.117834         2    ;  uncertainty k = 0.104785
        36        37        39        35     4      180.000000        3.117834         2    ;  uncertainty k = 0.104785
        36        39        35        37     4      180.000000        3.117834         2    ;  uncertainty k = 0.104785
        37        32        36        40     4      180.000000        5.877172         2    ;  uncertainty k = 0.235356
        37        36        40        32     4      180.000000        5.877172         2    ;  uncertainty k = 0.235356
        37        40        32        36     4      180.000000        5.877172         2    ;  uncertainty k = 0.235356

[ pairs ]
;       ai        aj funct
         1        11     1
         1        42     1
         2         5     1
         2        10     1
         2        12     1
         2        43     1
         3        11     1
         3        42     1
         4         6     1
         4         9     1
         4        13     1
         4        23     1
         4        24     1
         5         8     1
         5        12     1
         5        20     1
         5        22     1
         6         9     1
         6        11     1
         6        21     1
         6        43     1
         7        10     1
         7        22     1
         7        42     1
         8        11     1
         8        19     1
         9        12     1
         9        20     1
         9        42     1
        10        13     1
        10        19     1
        10        21     1
        10        23     1
        10        24     1
        10        43     1
        11        14     1
        11        22     1
        11        25     1
        11        26     1
        11        43     1
        12        15     1
        12        27     1
        12        28     1
        12        42     1
        13        16     1
        14        18     1
        14        23     1
        14        24     1
        14        30     1
        15        17     1
        15        25     1
        15        26     1
        15        29     1
        15        32     1
        15        41     1
        16        27     1
        16        28     1
        16        31     1
        16        33     1
        16        37     1
        17        30     1
        17        35     1
        17        37     1
        18        32     1
        18        34     1
        18        41     1
        19        20     1
        19        42     1
        20        21     1
        21        22     1
        23        25     1
        23        26     1
        24        25     1
        24        26     1
        25        27     1
        25        28     1
        26        27     1
        26        28     1
        29        30     1
        29        31     1
        29        33     1
        30        34     1
        30        36     1
        30        40     1
        31        32     1
        31        34     1
        32        35     1
        32        39     1
        33        36     1
        33        38     1
        33        40     1
        33        41     1
        34        37     1
        34        39     1
        35        40     1
        37        38     1
        37        41     1
        38        39     1
        39        40     1
