; ITP file created by ByteFF-joint-25, 2026-02-17 09:15:48.898881

[ atomtypes ]
;name           bonded.type        at.num        mass        charge   ptype           sigma         epsilon
 o0bf                                   8      0.0000       0.00000       A     3.04807e-01     6.12065e-01    ;  uncertainty sigma = 0.000018, epsilon = 0.000616
 c1bf                                   6      0.0000       0.00000       A     3.31436e-01     4.13701e-01    ;  uncertainty sigma = 0.000034, epsilon = 0.002275
 o2bf                                   8      0.0000       0.00000       A     3.04807e-01     6.12065e-01    ;  uncertainty sigma = 0.000018, epsilon = 0.000616
 c3bf                                   6      0.0000       0.00000       A     3.31527e-01     4.12548e-01    ;  uncertainty sigma = 0.000053, epsilon = 0.002675
 c4bf                                   6      0.0000       0.00000       A     3.31556e-01     4.13605e-01    ;  uncertainty sigma = 0.000009, epsilon = 0.001072
 c5bf                                   6      0.0000       0.00000       A     3.31528e-01     4.13216e-01    ;  uncertainty sigma = 0.000006, epsilon = 0.000735
 c6bf                                   6      0.0000       0.00000       A     3.31524e-01     4.13323e-01    ;  uncertainty sigma = 0.000005, epsilon = 0.000518
 c7bf                                   6      0.0000       0.00000       A     3.31524e-01     4.13320e-01    ;  uncertainty sigma = 0.000004, epsilon = 0.000654
 c8bf                                   6      0.0000       0.00000       A     3.31525e-01     4.13140e-01    ;  uncertainty sigma = 0.000007, epsilon = 0.000627
 c9bf                                   6      0.0000       0.00000       A     3.31543e-01     4.12994e-01    ;  uncertainty sigma = 0.000008, epsilon = 0.001189
 c10bf                                  6      0.0000       0.00000       A     3.31576e-01     4.13309e-01    ;  uncertainty sigma = 0.000008, epsilon = 0.001192
 c11bf                                  6      0.0000       0.00000       A     3.39773e-01     4.50718e-01    ;  uncertainty sigma = 0.000020, epsilon = 0.000757
 c12bf                                  6      0.0000       0.00000       A     3.39754e-01     4.50603e-01    ;  uncertainty sigma = 0.000006, epsilon = 0.000963
 c13bf                                  6      0.0000       0.00000       A     3.39781e-01     4.50534e-01    ;  uncertainty sigma = 0.000006, epsilon = 0.000793
 o14bf                                  8      0.0000       0.00000       A     3.15646e-01     3.02774e-01    ;  uncertainty sigma = 0.000025, epsilon = 0.001687
 c15bf                                  6      0.0000       0.00000       A     3.31532e-01     4.13460e-01    ;  uncertainty sigma = 0.000010, epsilon = 0.000464
 c16bf                                  6      0.0000       0.00000       A     3.31528e-01     4.13133e-01    ;  uncertainty sigma = 0.000004, epsilon = 0.000631
 c17bf                                  6      0.0000       0.00000       A     3.31532e-01     4.13399e-01    ;  uncertainty sigma = 0.000006, epsilon = 0.000516
 c18bf                                  6      0.0000       0.00000       A     3.31515e-01     4.13242e-01    ;  uncertainty sigma = 0.000008, epsilon = 0.000701
 h19bf                                  1      0.0000       0.00000       A     2.62573e-01     6.69665e-02    ;  uncertainty sigma = 0.000008, epsilon = 0.000474
 h20bf                                  1      0.0000       0.00000       A     2.62567e-01     6.69871e-02    ;  uncertainty sigma = 0.000012, epsilon = 0.000553
 h21bf                                  1      0.0000       0.00000       A     2.62563e-01     6.69792e-02    ;  uncertainty sigma = 0.000011, epsilon = 0.000555
 h22bf                                  1      0.0000       0.00000       A     2.62566e-01     6.69359e-02    ;  uncertainty sigma = 0.000011, epsilon = 0.000323
 h23bf                                  1      0.0000       0.00000       A     2.60038e-01     8.64862e-02    ;  uncertainty sigma = 0.000012, epsilon = 0.000717
 h24bf                                  1      0.0000       0.00000       A     2.60038e-01     8.64862e-02    ;  uncertainty sigma = 0.000012, epsilon = 0.000717
 h25bf                                  1      0.0000       0.00000       A     2.60032e-01     8.63750e-02    ;  uncertainty sigma = 0.000011, epsilon = 0.000877
 h26bf                                  1      0.0000       0.00000       A     2.60032e-01     8.63750e-02    ;  uncertainty sigma = 0.000011, epsilon = 0.000877
 h27bf                                  1      0.0000       0.00000       A     2.42194e-01     8.69817e-02    ;  uncertainty sigma = 0.000029, epsilon = 0.000475
 h28bf                                  1      0.0000       0.00000       A     2.42194e-01     8.69817e-02    ;  uncertainty sigma = 0.000029, epsilon = 0.000475
 h29bf                                  1      0.0000       0.00000       A     2.62565e-01     6.70180e-02    ;  uncertainty sigma = 0.000008, epsilon = 0.000464
 h30bf                                  1      0.0000       0.00000       A     2.62582e-01     6.69700e-02    ;  uncertainty sigma = 0.000013, epsilon = 0.000481
 h31bf                                  1      0.0000       0.00000       A     2.62573e-01     6.69666e-02    ;  uncertainty sigma = 0.000008, epsilon = 0.000474
 n32bf                                  7      0.0000       0.00000       A     3.20754e-01     8.52244e-01    ;  uncertainty sigma = 0.000047, epsilon = 0.002451
 h33bf                                  1      0.0000       0.00000       A     1.10620e-01     4.09732e-02    ;  uncertainty sigma = 0.000138, epsilon = 0.001729
 c34bf                                  6      0.0000       0.00000       A     3.31520e-01     4.13010e-01    ;  uncertainty sigma = 0.000005, epsilon = 0.000878
 n35bf                                  7      0.0000       0.00000       A     3.20596e-01     8.53295e-01    ;  uncertainty sigma = 0.000011, epsilon = 0.001418
 c36bf                                  6      0.0000       0.00000       A     3.31533e-01     4.13186e-01    ;  uncertainty sigma = 0.000008, epsilon = 0.000869
 c37bf                                  6      0.0000       0.00000       A     3.31519e-01     4.12949e-01    ;  uncertainty sigma = 0.000014, epsilon = 0.000509
 c38bf                                  6      0.0000       0.00000       A     3.31525e-01     4.13376e-01    ;  uncertainty sigma = 0.000003, epsilon = 0.000655
 h39bf                                  1      0.0000       0.00000       A     1.10686e-01     4.13939e-02    ;  uncertainty sigma = 0.000068, epsilon = 0.000559
 h40bf                                  1      0.0000       0.00000       A     2.62542e-01     6.72059e-02    ;  uncertainty sigma = 0.000009, epsilon = 0.000369
 h41bf                                  1      0.0000       0.00000       A     2.53650e-01     6.69353e-02    ;  uncertainty sigma = 0.000022, epsilon = 0.000689

[ moleculetype ]
;name             nrexcl
 MOL                   3

[ atoms ]
;       nr            type      resi   res      atom      cgnr      charge          mass ; qtot
         1            o0bf         1   UNL        o0         1    -0.82702       15.9990 ; qtot   -0.827
         2            c1bf         1   UNL        c1         2     0.92126       12.0110 ; qtot    0.094
         3            o2bf         1   UNL        o2         3    -0.82702       15.9990 ; qtot   -0.733
         4            c3bf         1   UNL        c3         4    -0.10822       12.0110 ; qtot   -0.841
         5            c4bf         1   UNL        c4         5    -0.06744       12.0110 ; qtot   -0.908
         6            c5bf         1   UNL        c5         6    -0.16684       12.0110 ; qtot   -1.075
         7            c6bf         1   UNL        c6         7    -0.11194       12.0110 ; qtot   -1.187
         8            c7bf         1   UNL        c7         8    -0.15971       12.0110 ; qtot   -1.347
         9            c8bf         1   UNL        c8         9    -0.09713       12.0110 ; qtot   -1.444
        10            c9bf         1   UNL        c9        10    -0.10135       12.0110 ; qtot   -1.545
        11           c10bf         1   UNL       c10        11    -0.18594       12.0110 ; qtot   -1.731
        12           c11bf         1   UNL       c11        12    -0.00834       12.0110 ; qtot   -1.740
        13           c12bf         1   UNL       c12        13    -0.09578       12.0110 ; qtot   -1.835
        14           c13bf         1   UNL       c13        14     0.13666       12.0110 ; qtot   -1.699
        15           o14bf         1   UNL       o14        15    -0.33254       15.9990 ; qtot   -2.031
        16           c15bf         1   UNL       c15        16     0.17638       12.0110 ; qtot   -1.855
        17           c16bf         1   UNL       c16        17    -0.16698       12.0110 ; qtot   -2.022
        18           c17bf         1   UNL       c17        18    -0.07859       12.0110 ; qtot   -2.101
        19           c18bf         1   UNL       c18        19    -0.23510       12.0110 ; qtot   -2.336
        20           h19bf         1   UNL       h19        20     0.13216        1.0080 ; qtot   -2.203
        21           h20bf         1   UNL       h20        21     0.12950        1.0080 ; qtot   -2.074
        22           h21bf         1   UNL       h21        22     0.12900        1.0080 ; qtot   -1.945
        23           h22bf         1   UNL       h22        23     0.13303        1.0080 ; qtot   -1.812
        24           h23bf         1   UNL       h23        24     0.04354        1.0080 ; qtot   -1.768
        25           h24bf         1   UNL       h24        25     0.04354        1.0080 ; qtot   -1.725
        26           h25bf         1   UNL       h25        26     0.05430        1.0080 ; qtot   -1.671
        27           h26bf         1   UNL       h26        27     0.05430        1.0080 ; qtot   -1.616
        28           h27bf         1   UNL       h27        28     0.04619        1.0080 ; qtot   -1.570
        29           h28bf         1   UNL       h28        29     0.04619        1.0080 ; qtot   -1.524
        30           h29bf         1   UNL       h29        30     0.13931        1.0080 ; qtot   -1.385
        31           h30bf         1   UNL       h30        31     0.13204        1.0080 ; qtot   -1.253
        32           h31bf         1   UNL       h31        32     0.13417        1.0080 ; qtot   -1.118
        33           n32bf         1   UNL       n32        33    -0.18585       14.0070 ; qtot   -1.304
        34           h33bf         1   UNL       h33        34     0.31616        1.0080 ; qtot   -0.988
        35           c34bf         1   UNL       c34        35    -0.11732       12.0110 ; qtot   -1.105
        36           n35bf         1   UNL       n35        36    -0.19400       14.0070 ; qtot   -1.299
        37           c36bf         1   UNL       c36        37    -0.02695       12.0110 ; qtot   -1.326
        38           c37bf         1   UNL       c37        38    -0.12743       12.0110 ; qtot   -1.454
        39           c38bf         1   UNL       c38        39    -0.17052       12.0110 ; qtot   -1.624
        40           h39bf         1   UNL       h39        40     0.30010        1.0080 ; qtot   -1.324
        41           h40bf         1   UNL       h40        41     0.16036        1.0080 ; qtot   -1.164
        42           h41bf         1   UNL       h41        42     0.16382        1.0080 ; qtot   -1.000

[ bonds ]
;       ai        aj funct               r               k
         1         2     1        0.126489   553283.027930    ;  uncertainty r = 0.000115, k = 9.491850
         2         3     1        0.126489   553283.027930    ;  uncertainty r = 0.000115, k = 9.491850
         2         4     1        0.152875   178456.869971    ;  uncertainty r = 0.000109, k = 53.157083
         4        11     1        0.138845   388969.962598    ;  uncertainty r = 0.000116, k = 35.597318
         4        33     1        0.138411   296910.956104    ;  uncertainty r = 0.000116, k = 16.653525
         5         6     1        0.139909   370024.083301    ;  uncertainty r = 0.000068, k = 3.273406
         5        10     1        0.143429   333658.830957    ;  uncertainty r = 0.000101, k = 12.925109
         5        33     1        0.137190   323439.748047    ;  uncertainty r = 0.000109, k = 15.720627
         6         7     1        0.139204   373030.439502    ;  uncertainty r = 0.000031, k = 1.532197
         6        20     1        0.108908   337826.589355    ;  uncertainty r = 0.000007, k = 0.915296
         7         8     1        0.141248   347880.881299    ;  uncertainty r = 0.000048, k = 2.727051
         7        21     1        0.108787   335143.149902    ;  uncertainty r = 0.000015, k = 1.282440
         8         9     1        0.139156   366705.382715    ;  uncertainty r = 0.000016, k = 3.013067
         8        22     1        0.108813   335291.367285    ;  uncertainty r = 0.000018, k = 0.841713
         9        10     1        0.140712   363994.363184    ;  uncertainty r = 0.000090, k = 9.392181
         9        23     1        0.108826   337192.119873    ;  uncertainty r = 0.000025, k = 2.686180
        10        11     1        0.143927   250387.756689    ;  uncertainty r = 0.000100, k = 20.205925
        11        12     1        0.150056   234448.846484    ;  uncertainty r = 0.000153, k = 11.938075
        12        13     1        0.153883   206303.274609    ;  uncertainty r = 0.000106, k = 7.126202
        12        24     1        0.109683   309037.278027    ;  uncertainty r = 0.000026, k = 1.364430
        12        25     1        0.109683   309037.278027    ;  uncertainty r = 0.000026, k = 1.364430
        13        14     1        0.152158   210151.716992    ;  uncertainty r = 0.000024, k = 3.206416
        13        26     1        0.109663   307664.786084    ;  uncertainty r = 0.000026, k = 1.435244
        13        27     1        0.109663   307664.786084    ;  uncertainty r = 0.000026, k = 1.435244
        14        15     1        0.142596   231641.654199    ;  uncertainty r = 0.000051, k = 9.964754
        14        28     1        0.109728   307993.116699    ;  uncertainty r = 0.000013, k = 1.245050
        14        29     1        0.109728   307993.116699    ;  uncertainty r = 0.000013, k = 1.245050
        15        16     1        0.136944   325731.805762    ;  uncertainty r = 0.000033, k = 7.503287
        16        19     1        0.139104   350093.263232    ;  uncertainty r = 0.000071, k = 2.923407
        16        38     1        0.140579   359846.881250    ;  uncertainty r = 0.000064, k = 6.802355
        17        18     1        0.139029   376352.153467    ;  uncertainty r = 0.000053, k = 1.064964
        17        32     1        0.108855   337427.010205    ;  uncertainty r = 0.000008, k = 1.081292
        17        37     1        0.139937   367213.903174    ;  uncertainty r = 0.000053, k = 5.102040
        18        19     1        0.141242   347854.399316    ;  uncertainty r = 0.000082, k = 4.742297
        18        31     1        0.108714   333660.567480    ;  uncertainty r = 0.000020, k = 1.711582
        19        30     1        0.108734   338742.656543    ;  uncertainty r = 0.000044, k = 1.250759
        33        34     1        0.101525   411016.174658    ;  uncertainty r = 0.000192, k = 19.532863
        35        36     1        0.138710   317858.970313    ;  uncertainty r = 0.000035, k = 5.201934
        35        39     1        0.137681   440506.760547    ;  uncertainty r = 0.000052, k = 5.430168
        35        42     1        0.108199   341156.321973    ;  uncertainty r = 0.000028, k = 1.361421
        36        37     1        0.138599   334634.654980    ;  uncertainty r = 0.000071, k = 4.116826
        36        40     1        0.101056   412049.687012    ;  uncertainty r = 0.000035, k = 2.086148
        37        38     1        0.142249   375293.206152    ;  uncertainty r = 0.000037, k = 7.752842
        38        39     1        0.143974   251324.074805    ;  uncertainty r = 0.000090, k = 9.036004
        39        41     1        0.108149   339289.635889    ;  uncertainty r = 0.000024, k = 1.505836

[ angles ]
;       ai        aj        ak funct           theta             cth
         1         2         3     1      131.490799      799.912859    ;  uncertainty theta = 0.007122, k = 0.161146
         1         2         4     1      115.643898      409.958900    ;  uncertainty theta = 0.009941, k = 0.278481
         2         4        11     1      129.691666      294.711298    ;  uncertainty theta = 0.010379, k = 0.154712
         2         4        33     1      117.855209      349.663901    ;  uncertainty theta = 0.005899, k = 0.287676
         3         2         4     1      115.643898      409.958900    ;  uncertainty theta = 0.009941, k = 0.278481
         4        11        10     1      107.813744      761.507600    ;  uncertainty theta = 0.003114, k = 0.233379
         4        11        12     1      125.834373      348.251252    ;  uncertainty theta = 0.008524, k = 0.203092
         4        33         5     1      106.686867      870.555270    ;  uncertainty theta = 0.004731, k = 0.157374
         4        33        34     1      118.324951      293.095597    ;  uncertainty theta = 0.017038, k = 0.289786
         5         6         7     1      117.288712      532.685108    ;  uncertainty theta = 0.002732, k = 0.138286
         5         6        20     1      122.416870      294.044173    ;  uncertainty theta = 0.002439, k = 0.026234
         5        10         9     1      116.726723      409.397211    ;  uncertainty theta = 0.004491, k = 0.081187
         5        10        11     1      107.622475      685.489179    ;  uncertainty theta = 0.004472, k = 0.334622
         5        33        34     1      119.518555      279.940091    ;  uncertainty theta = 0.027559, k = 0.287070
         6         5        10     1      120.341995      378.416324    ;  uncertainty theta = 0.003053, k = 0.079333
         6         5        33     1      130.070251      406.372596    ;  uncertainty theta = 0.003047, k = 0.189160
         6         7         8     1      122.110641      522.210041    ;  uncertainty theta = 0.001703, k = 0.050914
         6         7        21     1      119.408218      283.874626    ;  uncertainty theta = 0.001884, k = 0.037783
         7         6        20     1      121.416527      285.300171    ;  uncertainty theta = 0.001028, k = 0.037490
         7         8         9     1      121.942673      521.393620    ;  uncertainty theta = 0.001697, k = 0.032913
         7         8        22     1      119.651100      288.114903    ;  uncertainty theta = 0.001746, k = 0.035440
         8         7        21     1      119.801102      287.497128    ;  uncertainty theta = 0.001585, k = 0.046675
         8         9        10     1      119.165207      547.786701    ;  uncertainty theta = 0.003326, k = 0.038562
         8         9        23     1      120.508347      285.672566    ;  uncertainty theta = 0.001453, k = 0.031601
         9         8        22     1      119.815613      287.517590    ;  uncertainty theta = 0.001890, k = 0.024499
         9        10        11     1      132.186111      358.431813    ;  uncertainty theta = 0.003911, k = 0.091946
        10         5        33     1      107.610229      677.054783    ;  uncertainty theta = 0.004088, k = 0.326769
        10         9        23     1      121.598999      289.048093    ;  uncertainty theta = 0.003949, k = 0.074173
        10        11        12     1      125.270729      364.592289    ;  uncertainty theta = 0.008077, k = 0.215292
        11         4        33     1      110.824791      694.108082    ;  uncertainty theta = 0.003478, k = 0.245195
        11        12        13     1      111.532791      545.882910    ;  uncertainty theta = 0.004638, k = 0.049974
        11        12        24     1      107.023758      409.119878    ;  uncertainty theta = 0.002156, k = 0.076181
        11        12        25     1      107.023758      409.119878    ;  uncertainty theta = 0.002156, k = 0.076181
        12        13        14     1      109.862671      550.183615    ;  uncertainty theta = 0.002706, k = 0.060192
        12        13        26     1      107.784752      395.420688    ;  uncertainty theta = 0.002692, k = 0.060867
        12        13        27     1      107.784752      395.420688    ;  uncertainty theta = 0.002692, k = 0.060867
        13        12        24     1      106.922226      401.093182    ;  uncertainty theta = 0.002511, k = 0.097106
        13        12        25     1      106.922226      401.093182    ;  uncertainty theta = 0.002511, k = 0.097106
        13        14        15     1      109.061844      595.398407    ;  uncertainty theta = 0.001731, k = 0.062311
        13        14        28     1      109.910301      407.257968    ;  uncertainty theta = 0.001655, k = 0.044362
        13        14        29     1      109.910301      407.257968    ;  uncertainty theta = 0.001655, k = 0.044362
        14        13        26     1      106.746811      397.930411    ;  uncertainty theta = 0.001478, k = 0.024245
        14        13        27     1      106.746811      397.930411    ;  uncertainty theta = 0.001478, k = 0.024245
        14        15        16     1      110.740028      503.373359    ;  uncertainty theta = 0.001607, k = 0.051081
        15        14        28     1      106.879578      431.615263    ;  uncertainty theta = 0.001633, k = 0.029478
        15        14        29     1      106.879578      431.615263    ;  uncertainty theta = 0.001633, k = 0.029478
        15        16        19     1      121.306175      434.134020    ;  uncertainty theta = 0.004732, k = 0.188631
        15        16        38     1      119.140732      429.454408    ;  uncertainty theta = 0.003618, k = 0.148308
        16        19        18     1      121.788940      516.816604    ;  uncertainty theta = 0.002365, k = 0.075607
        16        19        30     1      118.292870      270.443032    ;  uncertainty theta = 0.002965, k = 0.079365
        16        38        37     1      116.296829      410.665065    ;  uncertainty theta = 0.005695, k = 0.154699
        16        38        39     1      130.635956      351.150832    ;  uncertainty theta = 0.006767, k = 0.254433
        17        18        19     1      123.046471      512.384830    ;  uncertainty theta = 0.001477, k = 0.092711
        17        18        31     1      119.490906      280.514485    ;  uncertainty theta = 0.001684, k = 0.027423
        17        37        36     1      129.980331      402.458364    ;  uncertainty theta = 0.002778, k = 0.069391
        17        37        38     1      121.634079      381.383864    ;  uncertainty theta = 0.002177, k = 0.152685
        18        17        32     1      121.543190      283.019962    ;  uncertainty theta = 0.001242, k = 0.084563
        18        17        37     1      115.979172      528.441543    ;  uncertainty theta = 0.002545, k = 0.118192
        18        19        30     1      120.095360      287.925897    ;  uncertainty theta = 0.001621, k = 0.033250
        19        16        38     1      120.934242      410.155791    ;  uncertainty theta = 0.004588, k = 0.122868
        19        18        31     1      119.431496      281.404932    ;  uncertainty theta = 0.001181, k = 0.052879
        24        12        25     1      104.532631      313.868120    ;  uncertainty theta = 0.003533, k = 0.064476
        26        13        27     1      105.098106      317.606083    ;  uncertainty theta = 0.002592, k = 0.027173
        28        14        29     1      107.554054      332.087379    ;  uncertainty theta = 0.001395, k = 0.039095
        32        17        37     1      122.522499      293.396424    ;  uncertainty theta = 0.001412, k = 0.057223
        35        36        37     1      106.154808      860.717418    ;  uncertainty theta = 0.002834, k = 0.034778
        35        36        40     1      115.509109      291.458700    ;  uncertainty theta = 0.003733, k = 0.111817
        35        39        38     1      107.132889      821.402974    ;  uncertainty theta = 0.003267, k = 0.071655
        35        39        41     1      123.549339      249.457082    ;  uncertainty theta = 0.003282, k = 0.029938
        36        35        39     1      110.623863      744.769557    ;  uncertainty theta = 0.003710, k = 0.055569
        36        35        42     1      117.793442      292.015952    ;  uncertainty theta = 0.001945, k = 0.065711
        36        37        38     1      107.541245      678.245834    ;  uncertainty theta = 0.001650, k = 0.107384
        37        36        40     1      116.922462      298.572924    ;  uncertainty theta = 0.003415, k = 0.143164
        37        38        39     1      106.913010      672.814218    ;  uncertainty theta = 0.002875, k = 0.116585
        38        39        41     1      124.847801      248.575318    ;  uncertainty theta = 0.001987, k = 0.077313
        39        35        42     1      128.381393      237.728016    ;  uncertainty theta = 0.002401, k = 0.116884

[ dihedrals ] ; propers for gromacs 4.5 or higher, use funct 9
;       ai        aj        ak        al funct           phase               k        pn
         1         2         4        11     9        0.000000       -1.372021         1    ;  uncertainty k = 1.492730
         1         2         4        11     9      180.000000        2.371115         2    ;  uncertainty k = 0.300482
         1         2         4        11     9        0.000000        0.292116         3    ;  uncertainty k = 0.252771
         1         2         4        11     9      180.000000        0.155159         4    ;  uncertainty k = 0.093475
         1         2         4        33     9        0.000000        1.707823         1    ;  uncertainty k = 0.704832
         1         2         4        33     9      180.000000        3.884647         2    ;  uncertainty k = 0.565808
         1         2         4        33     9        0.000000        0.749129         3    ;  uncertainty k = 0.264976
         1         2         4        33     9      180.000000        0.174104         4    ;  uncertainty k = 0.159693
         2         4        11        10     9        0.000000        0.658377         1    ;  uncertainty k = 1.317360
         2         4        11        10     9      180.000000       11.269219         2    ;  uncertainty k = 0.349150
         2         4        11        10     9        0.000000        2.080317         3    ;  uncertainty k = 0.240036
         2         4        11        10     9      180.000000        0.676709         4    ;  uncertainty k = 0.169861
         2         4        11        12     9        0.000000        0.204708         1    ;  uncertainty k = 0.747460
         2         4        11        12     9      180.000000        9.233953         2    ;  uncertainty k = 0.447590
         2         4        11        12     9        0.000000        1.675443         3    ;  uncertainty k = 0.293006
         2         4        11        12     9      180.000000        0.426607         4    ;  uncertainty k = 0.323880
         2         4        33         5     9        0.000000       -0.464998         1    ;  uncertainty k = 2.171907
         2         4        33         5     9      180.000000        6.451220         2    ;  uncertainty k = 1.089854
         2         4        33         5     9        0.000000        1.609707         3    ;  uncertainty k = 0.687909
         2         4        33         5     9      180.000000        0.292935         4    ;  uncertainty k = 0.259665
         2         4        33        34     9        0.000000        1.253701         1    ;  uncertainty k = 2.041217
         2         4        33        34     9      180.000000        2.479089         2    ;  uncertainty k = 1.021447
         2         4        33        34     9        0.000000        1.291813         3    ;  uncertainty k = 0.578698
         2         4        33        34     9      180.000000       -0.030601         4    ;  uncertainty k = 0.146306
         3         2         4        11     9        0.000000       -1.372021         1    ;  uncertainty k = 1.492730
         3         2         4        11     9      180.000000        2.371115         2    ;  uncertainty k = 0.300482
         3         2         4        11     9        0.000000        0.292116         3    ;  uncertainty k = 0.252771
         3         2         4        11     9      180.000000        0.155159         4    ;  uncertainty k = 0.093475
         3         2         4        33     9        0.000000        1.707823         1    ;  uncertainty k = 0.704832
         3         2         4        33     9      180.000000        3.884647         2    ;  uncertainty k = 0.565808
         3         2         4        33     9        0.000000        0.749129         3    ;  uncertainty k = 0.264976
         3         2         4        33     9      180.000000        0.174104         4    ;  uncertainty k = 0.159693
         4        11        10         5     9        0.000000        0.171220         1    ;  uncertainty k = 0.432161
         4        11        10         5     9      180.000000       11.967638         2    ;  uncertainty k = 1.294698
         4        11        10         5     9        0.000000       -9.909327         3    ;  uncertainty k = 1.605977
         4        11        10         5     9      180.000000        2.102653         4    ;  uncertainty k = 0.733398
         4        11        10         9     9        0.000000        0.079803         1    ;  uncertainty k = 1.313243
         4        11        10         9     9      180.000000        5.721978         2    ;  uncertainty k = 0.321426
         4        11        10         9     9        0.000000        0.431775         3    ;  uncertainty k = 0.611745
         4        11        10         9     9      180.000000        0.952472         4    ;  uncertainty k = 0.149862
         4        11        12        13     9        0.000000       -0.353916         1    ;  uncertainty k = 1.059339
         4        11        12        13     9      180.000000        1.470276         2    ;  uncertainty k = 0.380172
         4        11        12        13     9        0.000000        0.216179         3    ;  uncertainty k = 0.481673
         4        11        12        13     9      180.000000        0.121807         4    ;  uncertainty k = 0.162187
         4        11        12        24     9        0.000000        1.439359         1    ;  uncertainty k = 0.397283
         4        11        12        24     9      180.000000        2.614207         2    ;  uncertainty k = 0.334496
         4        11        12        24     9        0.000000        0.055715         3    ;  uncertainty k = 0.092065
         4        11        12        24     9      180.000000        0.180012         4    ;  uncertainty k = 0.123046
         4        11        12        25     9        0.000000        1.439359         1    ;  uncertainty k = 0.397283
         4        11        12        25     9      180.000000        2.614207         2    ;  uncertainty k = 0.334496
         4        11        12        25     9        0.000000        0.055715         3    ;  uncertainty k = 0.092065
         4        11        12        25     9      180.000000        0.180012         4    ;  uncertainty k = 0.123046
         4        33         5         6     9        0.000000        0.779094         1    ;  uncertainty k = 1.611142
         4        33         5         6     9      180.000000        6.072861         2    ;  uncertainty k = 1.235288
         4        33         5         6     9        0.000000        0.738725         3    ;  uncertainty k = 0.606503
         4        33         5         6     9      180.000000        0.313530         4    ;  uncertainty k = 0.310389
         4        33         5        10     9        0.000000       -0.304471         1    ;  uncertainty k = 0.989395
         4        33         5        10     9      180.000000       15.047901         2    ;  uncertainty k = 1.046721
         4        33         5        10     9        0.000000       -8.395770         3    ;  uncertainty k = 1.919282
         4        33         5        10     9      180.000000        0.648752         4    ;  uncertainty k = 0.607428
         5         6         7         8     9        0.000000       -0.007204         1    ;  uncertainty k = 0.352017
         5         6         7         8     9      180.000000       16.955015         2    ;  uncertainty k = 0.265826
         5         6         7         8     9        0.000000       -0.377243         3    ;  uncertainty k = 0.370601
         5         6         7         8     9      180.000000        0.608270         4    ;  uncertainty k = 0.292320
         5         6         7        21     9        0.000000        0.031156         1    ;  uncertainty k = 0.336940
         5         6         7        21     9      180.000000       10.941246         2    ;  uncertainty k = 0.419077
         5         6         7        21     9        0.000000        1.421256         3    ;  uncertainty k = 0.272944
         5         6         7        21     9      180.000000        1.557433         4    ;  uncertainty k = 0.258138
         5        10         9         8     9        0.000000        0.010948         1    ;  uncertainty k = 0.402869
         5        10         9         8     9      180.000000       13.710034         2    ;  uncertainty k = 0.163194
         5        10         9         8     9        0.000000       -1.521568         3    ;  uncertainty k = 0.300487
         5        10         9         8     9      180.000000        0.694567         4    ;  uncertainty k = 0.283041
         5        10         9        23     9        0.000000        0.253366         1    ;  uncertainty k = 0.171030
         5        10         9        23     9      180.000000        7.059567         2    ;  uncertainty k = 0.776058
         5        10         9        23     9        0.000000        1.466229         3    ;  uncertainty k = 0.353750
         5        10         9        23     9      180.000000        1.230009         4    ;  uncertainty k = 0.397540
         5        10        11        12     9        0.000000        1.338495         1    ;  uncertainty k = 1.087086
         5        10        11        12     9      180.000000       10.551108         2    ;  uncertainty k = 0.351316
         5        10        11        12     9        0.000000        1.801678         3    ;  uncertainty k = 0.392566
         5        10        11        12     9      180.000000        0.257171         4    ;  uncertainty k = 0.352643
         5        33         4        11     9        0.000000       -0.469081         1    ;  uncertainty k = 0.858054
         5        33         4        11     9      180.000000       14.635346         2    ;  uncertainty k = 0.621844
         5        33         4        11     9        0.000000       -5.847696         3    ;  uncertainty k = 1.154312
         5        33         4        11     9      180.000000        0.763949         4    ;  uncertainty k = 0.332867
         6         5        10         9     9        0.000000       -0.557459         1    ;  uncertainty k = 0.504536
         6         5        10         9     9      180.000000        7.175498         2    ;  uncertainty k = 0.762478
         6         5        10         9     9        0.000000        0.165063         3    ;  uncertainty k = 0.420578
         6         5        10         9     9      180.000000        0.902459         4    ;  uncertainty k = 0.405275
         6         5        10        11     9        0.000000       -0.095996         1    ;  uncertainty k = 0.579182
         6         5        10        11     9      180.000000        7.141608         2    ;  uncertainty k = 0.626861
         6         5        10        11     9        0.000000        0.190982         3    ;  uncertainty k = 0.555203
         6         5        10        11     9      180.000000        1.106105         4    ;  uncertainty k = 0.382286
         6         5        33        34     9        0.000000        1.556211         1    ;  uncertainty k = 0.864779
         6         5        33        34     9      180.000000        1.456879         2    ;  uncertainty k = 0.823313
         6         5        33        34     9        0.000000        1.223414         3    ;  uncertainty k = 0.515923
         6         5        33        34     9      180.000000        0.185999         4    ;  uncertainty k = 0.197024
         6         7         8         9     9        0.000000       -0.216392         1    ;  uncertainty k = 0.203221
         6         7         8         9     9      180.000000       12.688314         2    ;  uncertainty k = 0.287114
         6         7         8         9     9        0.000000       -0.841327         3    ;  uncertainty k = 0.664749
         6         7         8         9     9      180.000000        0.649352         4    ;  uncertainty k = 0.206451
         6         7         8        22     9        0.000000        0.020527         1    ;  uncertainty k = 0.059042
         6         7         8        22     9      180.000000        6.989280         2    ;  uncertainty k = 0.437421
         6         7         8        22     9        0.000000        1.365009         3    ;  uncertainty k = 0.283914
         6         7         8        22     9      180.000000        1.623914         4    ;  uncertainty k = 0.216596
         7         6         5        10     9        0.000000       -0.061762         1    ;  uncertainty k = 0.380516
         7         6         5        10     9      180.000000       12.578005         2    ;  uncertainty k = 0.240233
         7         6         5        10     9        0.000000       -1.274716         3    ;  uncertainty k = 0.208709
         7         6         5        10     9      180.000000        0.774303         4    ;  uncertainty k = 0.287170
         7         6         5        33     9        0.000000       -0.040937         1    ;  uncertainty k = 0.255560
         7         6         5        33     9      180.000000       11.252463         2    ;  uncertainty k = 0.580598
         7         6         5        33     9        0.000000        0.539336         3    ;  uncertainty k = 0.344721
         7         6         5        33     9      180.000000        1.022385         4    ;  uncertainty k = 0.303790
         7         8         9        10     9        0.000000        0.019920         1    ;  uncertainty k = 0.483038
         7         8         9        10     9      180.000000       16.879730         2    ;  uncertainty k = 0.325142
         7         8         9        10     9        0.000000       -0.454716         3    ;  uncertainty k = 0.474507
         7         8         9        10     9      180.000000        0.578125         4    ;  uncertainty k = 0.391909
         7         8         9        23     9        0.000000        0.168636         1    ;  uncertainty k = 0.193240
         7         8         9        23     9      180.000000        8.751745         2    ;  uncertainty k = 0.517235
         7         8         9        23     9        0.000000        1.537662         3    ;  uncertainty k = 0.246200
         7         8         9        23     9      180.000000        1.882842         4    ;  uncertainty k = 0.288260
         8         7         6        20     9        0.000000        0.165182         1    ;  uncertainty k = 0.216912
         8         7         6        20     9      180.000000        8.873569         2    ;  uncertainty k = 0.614610
         8         7         6        20     9        0.000000        1.622975         3    ;  uncertainty k = 0.261540
         8         7         6        20     9      180.000000        1.905453         4    ;  uncertainty k = 0.326822
         8         9        10        11     9        0.000000        0.249753         1    ;  uncertainty k = 0.103663
         8         9        10        11     9      180.000000        9.179070         2    ;  uncertainty k = 0.411370
         8         9        10        11     9        0.000000        0.517062         3    ;  uncertainty k = 0.430347
         8         9        10        11     9      180.000000        1.153234         4    ;  uncertainty k = 0.143424
         9         8         7        21     9        0.000000       -0.030439         1    ;  uncertainty k = 0.102038
         9         8         7        21     9      180.000000        6.901165         2    ;  uncertainty k = 0.417183
         9         8         7        21     9        0.000000        1.354655         3    ;  uncertainty k = 0.214825
         9         8         7        21     9      180.000000        1.587525         4    ;  uncertainty k = 0.176781
         9        10         5        33     9        0.000000       -0.032223         1    ;  uncertainty k = 0.572800
         9        10         5        33     9      180.000000        8.643799         2    ;  uncertainty k = 0.269496
         9        10         5        33     9        0.000000       -0.453955         3    ;  uncertainty k = 0.641368
         9        10         5        33     9      180.000000        1.174833         4    ;  uncertainty k = 0.384480
         9        10        11        12     9        0.000000        0.238961         1    ;  uncertainty k = 1.397644
         9        10        11        12     9      180.000000        5.787109         2    ;  uncertainty k = 0.469515
         9        10        11        12     9        0.000000        1.699642         3    ;  uncertainty k = 0.321923
         9        10        11        12     9      180.000000        0.173483         4    ;  uncertainty k = 0.188688
        10         5         6        20     9        0.000000        0.319122         1    ;  uncertainty k = 0.490757
        10         5         6        20     9      180.000000        6.345798         2    ;  uncertainty k = 0.822340
        10         5         6        20     9        0.000000        1.324954         3    ;  uncertainty k = 0.253224
        10         5         6        20     9      180.000000        1.101595         4    ;  uncertainty k = 0.359631
        10         5        33        34     9        0.000000        6.104771         1    ;  uncertainty k = 2.118850
        10         5        33        34     9      180.000000        4.638186         2    ;  uncertainty k = 1.440061
        10         5        33        34     9        0.000000        1.257718         3    ;  uncertainty k = 0.462506
        10         5        33        34     9      180.000000        0.319293         4    ;  uncertainty k = 0.097073
        10         9         8        22     9        0.000000        0.118303         1    ;  uncertainty k = 0.391732
        10         9         8        22     9      180.000000       10.979734         2    ;  uncertainty k = 0.363860
        10         9         8        22     9        0.000000        1.498292         3    ;  uncertainty k = 0.324461
        10         9         8        22     9      180.000000        1.658169         4    ;  uncertainty k = 0.294311
        10        11         4        33     9        0.000000       -0.343459         1    ;  uncertainty k = 0.628998
        10        11         4        33     9      180.000000       19.851697         2    ;  uncertainty k = 0.337386
        10        11         4        33     9        0.000000       -6.038290         3    ;  uncertainty k = 1.696783
        10        11         4        33     9      180.000000        1.027795         4    ;  uncertainty k = 0.436841
        10        11        12        13     9        0.000000       -0.215868         1    ;  uncertainty k = 1.013513
        10        11        12        13     9      180.000000        1.086163         2    ;  uncertainty k = 0.673769
        10        11        12        13     9        0.000000        0.696275         3    ;  uncertainty k = 0.269501
        10        11        12        13     9      180.000000        0.163945         4    ;  uncertainty k = 0.059978
        10        11        12        24     9        0.000000       -0.686921         1    ;  uncertainty k = 0.448582
        10        11        12        24     9      180.000000        2.071241         2    ;  uncertainty k = 0.415243
        10        11        12        24     9        0.000000        0.779274         3    ;  uncertainty k = 0.145606
        10        11        12        24     9      180.000000        0.211883         4    ;  uncertainty k = 0.077331
        10        11        12        25     9        0.000000       -0.686921         1    ;  uncertainty k = 0.448582
        10        11        12        25     9      180.000000        2.071241         2    ;  uncertainty k = 0.415243
        10        11        12        25     9        0.000000        0.779274         3    ;  uncertainty k = 0.145606
        10        11        12        25     9      180.000000        0.211883         4    ;  uncertainty k = 0.077331
        11         4        33        34     9        0.000000        3.994326         1    ;  uncertainty k = 2.809201
        11         4        33        34     9      180.000000        7.262693         2    ;  uncertainty k = 0.379220
        11         4        33        34     9        0.000000        1.858365         3    ;  uncertainty k = 0.686233
        11         4        33        34     9      180.000000       -0.114664         4    ;  uncertainty k = 0.351651
        11        10         5        33     9        0.000000       -0.200093         1    ;  uncertainty k = 0.424326
        11        10         5        33     9      180.000000       12.998296         2    ;  uncertainty k = 0.637101
        11        10         5        33     9        0.000000       -4.487286         3    ;  uncertainty k = 1.787354
        11        10         5        33     9      180.000000        1.376048         4    ;  uncertainty k = 0.852459
        11        10         9        23     9        0.000000        0.623609         1    ;  uncertainty k = 0.818827
        11        10         9        23     9      180.000000        5.597100         2    ;  uncertainty k = 0.476519
        11        10         9        23     9        0.000000        1.146276         3    ;  uncertainty k = 0.356005
        11        10         9        23     9      180.000000        0.780142         4    ;  uncertainty k = 0.277118
        11        12        13        14     9        0.000000       -2.773499         1    ;  uncertainty k = 1.020668
        11        12        13        14     9      180.000000       -0.440658         2    ;  uncertainty k = 0.374449
        11        12        13        14     9        0.000000        1.345082         3    ;  uncertainty k = 0.116651
        11        12        13        14     9      180.000000       -0.317427         4    ;  uncertainty k = 0.107837
        11        12        13        26     9        0.000000        0.430590         1    ;  uncertainty k = 0.617096
        11        12        13        26     9      180.000000       -0.327591         2    ;  uncertainty k = 0.354600
        11        12        13        26     9        0.000000        1.116941         3    ;  uncertainty k = 0.164543
        11        12        13        26     9      180.000000        0.004933         4    ;  uncertainty k = 0.053762
        11        12        13        27     9        0.000000        0.430590         1    ;  uncertainty k = 0.617096
        11        12        13        27     9      180.000000       -0.327591         2    ;  uncertainty k = 0.354600
        11        12        13        27     9        0.000000        1.116941         3    ;  uncertainty k = 0.164543
        11        12        13        27     9      180.000000        0.004933         4    ;  uncertainty k = 0.053762
        12        11         4        33     9        0.000000        0.421908         1    ;  uncertainty k = 0.686279
        12        11         4        33     9      180.000000       16.338015         2    ;  uncertainty k = 0.475382
        12        11         4        33     9        0.000000        1.239769         3    ;  uncertainty k = 0.508643
        12        11         4        33     9      180.000000        0.759832         4    ;  uncertainty k = 0.322483
        12        13        14        15     9        0.000000       -4.162829         1    ;  uncertainty k = 0.911854
        12        13        14        15     9      180.000000       -2.490920         2    ;  uncertainty k = 0.614243
        12        13        14        15     9        0.000000        2.122350         3    ;  uncertainty k = 0.270719
        12        13        14        15     9      180.000000       -0.438011         4    ;  uncertainty k = 0.167688
        12        13        14        28     9        0.000000       -1.902968         1    ;  uncertainty k = 0.484023
        12        13        14        28     9      180.000000        0.101216         2    ;  uncertainty k = 0.224852
        12        13        14        28     9        0.000000        0.914342         3    ;  uncertainty k = 0.061444
        12        13        14        28     9      180.000000       -0.365283         4    ;  uncertainty k = 0.109112
        12        13        14        29     9        0.000000       -1.902968         1    ;  uncertainty k = 0.484023
        12        13        14        29     9      180.000000        0.101216         2    ;  uncertainty k = 0.224852
        12        13        14        29     9        0.000000        0.914342         3    ;  uncertainty k = 0.061444
        12        13        14        29     9      180.000000       -0.365283         4    ;  uncertainty k = 0.109112
        13        14        15        16     9        0.000000       -1.107504         1    ;  uncertainty k = 0.749906
        13        14        15        16     9      180.000000       -0.334235         2    ;  uncertainty k = 0.325813
        13        14        15        16     9        0.000000        0.730802         3    ;  uncertainty k = 0.036216
        13        14        15        16     9      180.000000        0.513659         4    ;  uncertainty k = 0.071744
        14        13        12        24     9        0.000000       -1.672446         1    ;  uncertainty k = 0.376153
        14        13        12        24     9      180.000000       -0.606777         2    ;  uncertainty k = 0.284488
        14        13        12        24     9        0.000000        0.952916         3    ;  uncertainty k = 0.127266
        14        13        12        24     9      180.000000       -0.351326         4    ;  uncertainty k = 0.057947
        14        13        12        25     9        0.000000       -1.672446         1    ;  uncertainty k = 0.376153
        14        13        12        25     9      180.000000       -0.606777         2    ;  uncertainty k = 0.284488
        14        13        12        25     9        0.000000        0.952916         3    ;  uncertainty k = 0.127266
        14        13        12        25     9      180.000000       -0.351326         4    ;  uncertainty k = 0.057947
        14        15        16        19     9        0.000000        2.437456         1    ;  uncertainty k = 0.641031
        14        15        16        19     9      180.000000        6.818996         2    ;  uncertainty k = 0.144879
        14        15        16        19     9        0.000000        0.319400         3    ;  uncertainty k = 0.180547
        14        15        16        19     9      180.000000        0.135339         4    ;  uncertainty k = 0.103581
        14        15        16        38     9        0.000000        2.087384         1    ;  uncertainty k = 0.440163
        14        15        16        38     9      180.000000        6.506559         2    ;  uncertainty k = 0.190628
        14        15        16        38     9        0.000000        0.668590         3    ;  uncertainty k = 0.109007
        14        15        16        38     9      180.000000        0.204988         4    ;  uncertainty k = 0.079691
        15        14        13        26     9        0.000000        0.334191         1    ;  uncertainty k = 0.568487
        15        14        13        26     9      180.000000       -2.202603         2    ;  uncertainty k = 0.265896
        15        14        13        26     9        0.000000        1.428123         3    ;  uncertainty k = 0.128101
        15        14        13        26     9      180.000000        0.052383         4    ;  uncertainty k = 0.071548
        15        14        13        27     9        0.000000        0.334191         1    ;  uncertainty k = 0.568487
        15        14        13        27     9      180.000000       -2.202603         2    ;  uncertainty k = 0.265896
        15        14        13        27     9        0.000000        1.428123         3    ;  uncertainty k = 0.128101
        15        14        13        27     9      180.000000        0.052383         4    ;  uncertainty k = 0.071548
        15        16        19        18     9        0.000000        0.025859         1    ;  uncertainty k = 0.298564
        15        16        19        18     9      180.000000       12.698170         2    ;  uncertainty k = 0.433051
        15        16        19        18     9        0.000000        1.338388         3    ;  uncertainty k = 0.239082
        15        16        19        18     9      180.000000        1.621415         4    ;  uncertainty k = 0.293407
        15        16        19        30     9        0.000000       -0.197304         1    ;  uncertainty k = 0.239304
        15        16        19        30     9      180.000000        9.802443         2    ;  uncertainty k = 0.455932
        15        16        19        30     9        0.000000        0.873681         3    ;  uncertainty k = 0.154754
        15        16        19        30     9      180.000000        1.224391         4    ;  uncertainty k = 0.444065
        15        16        38        37     9        0.000000       -0.032491         1    ;  uncertainty k = 0.517427
        15        16        38        37     9      180.000000       10.205113         2    ;  uncertainty k = 0.463716
        15        16        38        37     9        0.000000        1.252274         3    ;  uncertainty k = 0.390308
        15        16        38        37     9      180.000000        1.300025         4    ;  uncertainty k = 0.360332
        15        16        38        39     9        0.000000        0.343884         1    ;  uncertainty k = 0.635484
        15        16        38        39     9      180.000000        7.515883         2    ;  uncertainty k = 0.496600
        15        16        38        39     9        0.000000        1.259874         3    ;  uncertainty k = 0.302693
        15        16        38        39     9      180.000000        1.232863         4    ;  uncertainty k = 0.288199
        16        15        14        28     9        0.000000        0.962302         1    ;  uncertainty k = 0.539464
        16        15        14        28     9      180.000000       -1.159051         2    ;  uncertainty k = 0.169448
        16        15        14        28     9        0.000000        0.673192         3    ;  uncertainty k = 0.075784
        16        15        14        28     9      180.000000        0.226939         4    ;  uncertainty k = 0.047193
        16        15        14        29     9        0.000000        0.962302         1    ;  uncertainty k = 0.539464
        16        15        14        29     9      180.000000       -1.159051         2    ;  uncertainty k = 0.169448
        16        15        14        29     9        0.000000        0.673192         3    ;  uncertainty k = 0.075784
        16        15        14        29     9      180.000000        0.226939         4    ;  uncertainty k = 0.047193
        16        19        18        17     9        0.000000       -0.342497         1    ;  uncertainty k = 0.315199
        16        19        18        17     9      180.000000       12.546589         2    ;  uncertainty k = 0.421730
        16        19        18        17     9        0.000000       -0.695750         3    ;  uncertainty k = 0.559961
        16        19        18        17     9      180.000000        0.865221         4    ;  uncertainty k = 0.208688
        16        19        18        31     9        0.000000       -0.092461         1    ;  uncertainty k = 0.177028
        16        19        18        31     9      180.000000        6.946740         2    ;  uncertainty k = 0.402976
        16        19        18        31     9        0.000000        1.315334         3    ;  uncertainty k = 0.271234
        16        19        18        31     9      180.000000        1.578815         4    ;  uncertainty k = 0.183556
        16        38        37        17     9        0.000000       -0.447195         1    ;  uncertainty k = 0.529409
        16        38        37        17     9      180.000000        7.760475         2    ;  uncertainty k = 0.666900
        16        38        37        17     9        0.000000        0.064301         3    ;  uncertainty k = 0.217288
        16        38        37        17     9      180.000000        1.013120         4    ;  uncertainty k = 0.331041
        16        38        37        36     9        0.000000        0.014894         1    ;  uncertainty k = 0.243181
        16        38        37        36     9      180.000000        8.026816         2    ;  uncertainty k = 0.331297
        16        38        37        36     9        0.000000       -0.156030         3    ;  uncertainty k = 0.523096
        16        38        37        36     9      180.000000        1.155865         4    ;  uncertainty k = 0.377996
        16        38        39        35     9        0.000000        0.973724         1    ;  uncertainty k = 0.362898
        16        38        39        35     9      180.000000        5.846857         2    ;  uncertainty k = 0.489207
        16        38        39        35     9        0.000000        0.402164         3    ;  uncertainty k = 0.433482
        16        38        39        35     9      180.000000        0.864577         4    ;  uncertainty k = 0.209206
        16        38        39        41     9        0.000000        0.800750         1    ;  uncertainty k = 2.059638
        16        38        39        41     9      180.000000        3.580237         2    ;  uncertainty k = 1.015602
        16        38        39        41     9        0.000000        1.304064         3    ;  uncertainty k = 0.213611
        16        38        39        41     9      180.000000        0.049151         4    ;  uncertainty k = 0.123156
        17        18        19        30     9        0.000000        0.160969         1    ;  uncertainty k = 0.191610
        17        18        19        30     9      180.000000        6.941597         2    ;  uncertainty k = 0.388302
        17        18        19        30     9        0.000000        1.381979         3    ;  uncertainty k = 0.358342
        17        18        19        30     9      180.000000        1.673035         4    ;  uncertainty k = 0.212298
        17        37        36        35     9        0.000000        1.152153         1    ;  uncertainty k = 0.860412
        17        37        36        35     9      180.000000        5.579019         2    ;  uncertainty k = 0.388358
        17        37        36        35     9        0.000000        0.670502         3    ;  uncertainty k = 0.407208
        17        37        36        35     9      180.000000        0.309201         4    ;  uncertainty k = 0.239526
        17        37        36        40     9        0.000000        1.675174         1    ;  uncertainty k = 0.653670
        17        37        36        40     9      180.000000        1.742110         2    ;  uncertainty k = 0.899994
        17        37        36        40     9        0.000000        1.241587         3    ;  uncertainty k = 0.450402
        17        37        36        40     9      180.000000        0.092892         4    ;  uncertainty k = 0.235950
        17        37        38        39     9        0.000000        0.028046         1    ;  uncertainty k = 0.436240
        17        37        38        39     9      180.000000        7.635786         2    ;  uncertainty k = 0.299796
        17        37        38        39     9        0.000000        0.245364         3    ;  uncertainty k = 0.531725
        17        37        38        39     9      180.000000        1.258112         4    ;  uncertainty k = 0.169343
        18        17        37        36     9        0.000000        0.101602         1    ;  uncertainty k = 0.366134
        18        17        37        36     9      180.000000       10.720066         2    ;  uncertainty k = 0.591437
        18        17        37        36     9        0.000000        0.874708         3    ;  uncertainty k = 0.244826
        18        17        37        36     9      180.000000        1.274115         4    ;  uncertainty k = 0.329337
        18        17        37        38     9        0.000000       -0.003870         1    ;  uncertainty k = 0.386469
        18        17        37        38     9      180.000000       12.804860         2    ;  uncertainty k = 0.112248
        18        17        37        38     9        0.000000       -1.412296         3    ;  uncertainty k = 0.251884
        18        17        37        38     9      180.000000        0.759585         4    ;  uncertainty k = 0.151404
        18        19        16        38     9        0.000000        0.104465         1    ;  uncertainty k = 0.203828
        18        19        16        38     9      180.000000       11.833475         2    ;  uncertainty k = 0.527055
        18        19        16        38     9        0.000000        0.038502         3    ;  uncertainty k = 0.579401
        18        19        16        38     9      180.000000        1.075788         4    ;  uncertainty k = 0.391505
        19        16        38        37     9        0.000000       -0.004000         1    ;  uncertainty k = 0.602126
        19        16        38        37     9      180.000000        9.450925         2    ;  uncertainty k = 0.539158
        19        16        38        37     9        0.000000       -0.793052         3    ;  uncertainty k = 0.472909
        19        16        38        37     9      180.000000        1.021301         4    ;  uncertainty k = 0.193755
        19        16        38        39     9        0.000000       -0.121052         1    ;  uncertainty k = 0.671849
        19        16        38        39     9      180.000000        5.557826         2    ;  uncertainty k = 0.567081
        19        16        38        39     9        0.000000        0.732124         3    ;  uncertainty k = 0.348235
        19        16        38        39     9      180.000000        1.386922         4    ;  uncertainty k = 0.086076
        19        18        17        32     9        0.000000        0.241420         1    ;  uncertainty k = 0.275086
        19        18        17        32     9      180.000000        8.814638         2    ;  uncertainty k = 0.681984
        19        18        17        32     9        0.000000        1.642643         3    ;  uncertainty k = 0.272764
        19        18        17        32     9      180.000000        1.912258         4    ;  uncertainty k = 0.313676
        19        18        17        37     9        0.000000       -0.010098         1    ;  uncertainty k = 0.367197
        19        18        17        37     9      180.000000       16.987489         2    ;  uncertainty k = 0.157128
        19        18        17        37     9        0.000000       -0.517041         3    ;  uncertainty k = 0.238568
        19        18        17        37     9      180.000000        0.633575         4    ;  uncertainty k = 0.238819
        20         6         5        33     9        0.000000        0.248356         1    ;  uncertainty k = 0.309441
        20         6         5        33     9      180.000000        6.219890         2    ;  uncertainty k = 0.560809
        20         6         5        33     9        0.000000        1.223843         3    ;  uncertainty k = 0.395076
        20         6         5        33     9      180.000000        0.794522         4    ;  uncertainty k = 0.403871
        20         6         7        21     9        0.000000        0.067635         1    ;  uncertainty k = 0.257851
        20         6         7        21     9      180.000000        7.678575         2    ;  uncertainty k = 0.249765
        20         6         7        21     9        0.000000       -0.249178         3    ;  uncertainty k = 0.224083
        20         6         7        21     9      180.000000        0.128053         4    ;  uncertainty k = 0.127116
        21         7         8        22     9        0.000000        0.024825         1    ;  uncertainty k = 0.154579
        21         7         8        22     9      180.000000        6.825470         2    ;  uncertainty k = 0.478217
        21         7         8        22     9        0.000000       -0.239724         3    ;  uncertainty k = 0.197508
        21         7         8        22     9      180.000000        0.091582         4    ;  uncertainty k = 0.138206
        22         8         9        23     9        0.000000        0.081241         1    ;  uncertainty k = 0.094303
        22         8         9        23     9      180.000000        7.822590         2    ;  uncertainty k = 0.225676
        22         8         9        23     9        0.000000       -0.195366         3    ;  uncertainty k = 0.265935
        22         8         9        23     9      180.000000        0.166865         4    ;  uncertainty k = 0.178530
        24        12        13        26     9        0.000000        0.854124         1    ;  uncertainty k = 0.154236
        24        12        13        26     9      180.000000       -0.684568         2    ;  uncertainty k = 0.290825
        24        12        13        26     9        0.000000        0.190893         3    ;  uncertainty k = 0.067501
        24        12        13        26     9      180.000000        0.008974         4    ;  uncertainty k = 0.042764
        24        12        13        27     9        0.000000        0.854124         1    ;  uncertainty k = 0.154236
        24        12        13        27     9      180.000000       -0.684568         2    ;  uncertainty k = 0.290825
        24        12        13        27     9        0.000000        0.190893         3    ;  uncertainty k = 0.067501
        24        12        13        27     9      180.000000        0.008974         4    ;  uncertainty k = 0.042764
        25        12        13        26     9        0.000000        0.854124         1    ;  uncertainty k = 0.154236
        25        12        13        26     9      180.000000       -0.684568         2    ;  uncertainty k = 0.290825
        25        12        13        26     9        0.000000        0.190893         3    ;  uncertainty k = 0.067501
        25        12        13        26     9      180.000000        0.008974         4    ;  uncertainty k = 0.042764
        25        12        13        27     9        0.000000        0.854124         1    ;  uncertainty k = 0.154236
        25        12        13        27     9      180.000000       -0.684568         2    ;  uncertainty k = 0.290825
        25        12        13        27     9        0.000000        0.190893         3    ;  uncertainty k = 0.067501
        25        12        13        27     9      180.000000        0.008974         4    ;  uncertainty k = 0.042764
        26        13        14        28     9        0.000000        0.453942         1    ;  uncertainty k = 0.133152
        26        13        14        28     9      180.000000       -0.428653         2    ;  uncertainty k = 0.139422
        26        13        14        28     9        0.000000        0.107552         3    ;  uncertainty k = 0.080173
        26        13        14        28     9      180.000000       -0.039799         4    ;  uncertainty k = 0.072465
        26        13        14        29     9        0.000000        0.453942         1    ;  uncertainty k = 0.133152
        26        13        14        29     9      180.000000       -0.428653         2    ;  uncertainty k = 0.139422
        26        13        14        29     9        0.000000        0.107552         3    ;  uncertainty k = 0.080173
        26        13        14        29     9      180.000000       -0.039799         4    ;  uncertainty k = 0.072465
        27        13        14        28     9        0.000000        0.453942         1    ;  uncertainty k = 0.133152
        27        13        14        28     9      180.000000       -0.428653         2    ;  uncertainty k = 0.139422
        27        13        14        28     9        0.000000        0.107552         3    ;  uncertainty k = 0.080173
        27        13        14        28     9      180.000000       -0.039799         4    ;  uncertainty k = 0.072465
        27        13        14        29     9        0.000000        0.453942         1    ;  uncertainty k = 0.133152
        27        13        14        29     9      180.000000       -0.428653         2    ;  uncertainty k = 0.139422
        27        13        14        29     9        0.000000        0.107552         3    ;  uncertainty k = 0.080173
        27        13        14        29     9      180.000000       -0.039799         4    ;  uncertainty k = 0.072465
        30        19        16        38     9        0.000000        0.315404         1    ;  uncertainty k = 0.397507
        30        19        16        38     9      180.000000        8.024292         2    ;  uncertainty k = 0.117997
        30        19        16        38     9        0.000000        1.438934         3    ;  uncertainty k = 0.496985
        30        19        16        38     9      180.000000        1.617872         4    ;  uncertainty k = 0.086953
        30        19        18        31     9        0.000000       -0.090478         1    ;  uncertainty k = 0.262256
        30        19        18        31     9      180.000000        6.748841         2    ;  uncertainty k = 0.477955
        30        19        18        31     9        0.000000       -0.189248         3    ;  uncertainty k = 0.242091
        30        19        18        31     9      180.000000        0.168557         4    ;  uncertainty k = 0.169928
        31        18        17        32     9        0.000000        0.131129         1    ;  uncertainty k = 0.378239
        31        18        17        32     9      180.000000        7.650209         2    ;  uncertainty k = 0.228344
        31        18        17        32     9        0.000000       -0.198498         3    ;  uncertainty k = 0.269834
        31        18        17        32     9      180.000000        0.108128         4    ;  uncertainty k = 0.166073
        31        18        17        37     9        0.000000        0.022299         1    ;  uncertainty k = 0.391746
        31        18        17        37     9      180.000000       10.946074         2    ;  uncertainty k = 0.477993
        31        18        17        37     9        0.000000        1.459606         3    ;  uncertainty k = 0.308055
        31        18        17        37     9      180.000000        1.526459         4    ;  uncertainty k = 0.377482
        32        17        37        36     9        0.000000        0.321708         1    ;  uncertainty k = 0.521614
        32        17        37        36     9      180.000000        5.677528         2    ;  uncertainty k = 0.387826
        32        17        37        36     9        0.000000        1.185090         3    ;  uncertainty k = 0.394345
        32        17        37        36     9      180.000000        0.782290         4    ;  uncertainty k = 0.347329
        32        17        37        38     9        0.000000       -0.069442         1    ;  uncertainty k = 0.304382
        32        17        37        38     9      180.000000        6.599149         2    ;  uncertainty k = 0.981138
        32        17        37        38     9        0.000000        1.245070         3    ;  uncertainty k = 0.320368
        32        17        37        38     9      180.000000        1.169080         4    ;  uncertainty k = 0.341197
        35        36        37        38     9        0.000000        0.487835         1    ;  uncertainty k = 0.346267
        35        36        37        38     9      180.000000       15.438148         2    ;  uncertainty k = 0.660988
        35        36        37        38     9        0.000000       -7.552916         3    ;  uncertainty k = 1.430866
        35        36        37        38     9      180.000000        0.636932         4    ;  uncertainty k = 0.406498
        35        39        38        37     9        0.000000        1.110492         1    ;  uncertainty k = 1.409206
        35        39        38        37     9      180.000000       12.913449         2    ;  uncertainty k = 0.810198
        35        39        38        37     9        0.000000      -11.058983         3    ;  uncertainty k = 2.430180
        35        39        38        37     9      180.000000        1.926949         4    ;  uncertainty k = 0.707808
        36        35        39        38     9        0.000000       -0.113007         1    ;  uncertainty k = 0.236399
        36        35        39        38     9      180.000000       22.853442         2    ;  uncertainty k = 0.325662
        36        35        39        38     9        0.000000       -6.386154         3    ;  uncertainty k = 0.817967
        36        35        39        38     9      180.000000        1.265289         4    ;  uncertainty k = 0.415659
        36        35        39        41     9        0.000000        0.577514         1    ;  uncertainty k = 0.740190
        36        35        39        41     9      180.000000       15.216510         2    ;  uncertainty k = 0.272358
        36        35        39        41     9        0.000000        1.722107         3    ;  uncertainty k = 0.583512
        36        35        39        41     9      180.000000        0.774527         4    ;  uncertainty k = 0.290640
        36        37        38        39     9        0.000000       -0.276541         1    ;  uncertainty k = 0.287494
        36        37        38        39     9      180.000000       12.420513         2    ;  uncertainty k = 0.855829
        36        37        38        39     9        0.000000       -3.065406         3    ;  uncertainty k = 1.311812
        36        37        38        39     9      180.000000        1.525551         4    ;  uncertainty k = 0.648023
        37        36        35        39     9        0.000000        0.092074         1    ;  uncertainty k = 0.469105
        37        36        35        39     9      180.000000       16.377159         2    ;  uncertainty k = 0.340861
        37        36        35        39     9        0.000000       -7.091594         3    ;  uncertainty k = 1.213279
        37        36        35        39     9      180.000000        0.828937         4    ;  uncertainty k = 0.597168
        37        36        35        42     9        0.000000        1.537077         1    ;  uncertainty k = 0.998807
        37        36        35        42     9      180.000000        7.013427         2    ;  uncertainty k = 0.851247
        37        36        35        42     9        0.000000        1.475014         3    ;  uncertainty k = 0.260476
        37        36        35        42     9      180.000000        0.088775         4    ;  uncertainty k = 0.220337
        37        38        39        41     9        0.000000        0.402644         1    ;  uncertainty k = 0.942294
        37        38        39        41     9      180.000000        7.532974         2    ;  uncertainty k = 0.439774
        37        38        39        41     9        0.000000        1.344009         3    ;  uncertainty k = 0.301362
        37        38        39        41     9      180.000000        0.154457         4    ;  uncertainty k = 0.183883
        38        37        36        40     9        0.000000        5.343008         1    ;  uncertainty k = 1.719888
        38        37        36        40     9      180.000000        4.951400         2    ;  uncertainty k = 1.324718
        38        37        36        40     9        0.000000        1.024021         3    ;  uncertainty k = 0.327386
        38        37        36        40     9      180.000000        0.244312         4    ;  uncertainty k = 0.235201
        38        39        35        42     9        0.000000        0.117315         1    ;  uncertainty k = 0.621998
        38        39        35        42     9      180.000000       13.240378         2    ;  uncertainty k = 0.140233
        38        39        35        42     9        0.000000        1.744823         3    ;  uncertainty k = 0.206936
        38        39        35        42     9      180.000000        0.918157         4    ;  uncertainty k = 0.132347
        39        35        36        40     9        0.000000        2.839358         1    ;  uncertainty k = 1.052832
        39        35        36        40     9      180.000000        8.352683         2    ;  uncertainty k = 0.624944
        39        35        36        40     9        0.000000        1.630425         3    ;  uncertainty k = 0.701765
        39        35        36        40     9      180.000000       -0.100908         4    ;  uncertainty k = 0.194825
        40        36        35        42     9        0.000000       -0.771769         1    ;  uncertainty k = 1.148744
        40        36        35        42     9      180.000000        1.367231         2    ;  uncertainty k = 0.248049
        40        36        35        42     9        0.000000        1.034186         3    ;  uncertainty k = 0.418693
        40        36        35        42     9      180.000000        0.091801         4    ;  uncertainty k = 0.139911
        41        39        35        42     9        0.000000       -0.031097         1    ;  uncertainty k = 0.411832
        41        39        35        42     9      180.000000        6.045708         2    ;  uncertainty k = 0.747546
        41        39        35        42     9        0.000000        1.130719         3    ;  uncertainty k = 0.435267
        41        39        35        42     9      180.000000        0.310593         4    ;  uncertainty k = 0.118042

[ dihedrals ] ; impropers
;       ai        aj        ak        al funct           phase               k        pn
         2         1         3         4     4      180.000000       64.265870         2    ;  uncertainty k = 0.050254
         2         3         4         1     4      180.000000       64.265870         2    ;  uncertainty k = 0.050254
         2         4         1         3     4      180.000000       64.265870         2    ;  uncertainty k = 0.050254
         4         2        11        33     4      180.000000        5.876961         2    ;  uncertainty k = 0.526652
         4        11        33         2     4      180.000000        5.876961         2    ;  uncertainty k = 0.526652
         4        33         2        11     4      180.000000        5.876961         2    ;  uncertainty k = 0.526652
         5         6        10        33     4      180.000000        1.057348         2    ;  uncertainty k = 0.904202
         5        10        33         6     4      180.000000        1.057348         2    ;  uncertainty k = 0.904202
         5        33         6        10     4      180.000000        1.057348         2    ;  uncertainty k = 0.904202
         6         5         7        20     4      180.000000        2.336037         2    ;  uncertainty k = 0.300690
         6         7        20         5     4      180.000000        2.336037         2    ;  uncertainty k = 0.300690
         6        20         5         7     4      180.000000        2.336037         2    ;  uncertainty k = 0.300690
         7         6         8        21     4      180.000000        3.761581         2    ;  uncertainty k = 0.188539
         7         8        21         6     4      180.000000        3.761581         2    ;  uncertainty k = 0.188539
         7        21         6         8     4      180.000000        3.761581         2    ;  uncertainty k = 0.188539
         8         7         9        22     4      180.000000        3.007353         2    ;  uncertainty k = 0.125347
         8         9        22         7     4      180.000000        3.007353         2    ;  uncertainty k = 0.125347
         8        22         7         9     4      180.000000        3.007353         2    ;  uncertainty k = 0.125347
         9         8        10        23     4      180.000000        4.051631         2    ;  uncertainty k = 0.159442
         9        10        23         8     4      180.000000        4.051631         2    ;  uncertainty k = 0.159442
         9        23         8        10     4      180.000000        4.051631         2    ;  uncertainty k = 0.159442
        11         4        10        12     4      180.000000        2.099178         2    ;  uncertainty k = 0.534873
        11        10        12         4     4      180.000000        2.099178         2    ;  uncertainty k = 0.534873
        11        12         4        10     4      180.000000        2.099178         2    ;  uncertainty k = 0.534873
        16        15        19        38     4      180.000000       16.918397         2    ;  uncertainty k = 0.072305
        16        19        38        15     4      180.000000       16.918397         2    ;  uncertainty k = 0.072305
        16        38        15        19     4      180.000000       16.918397         2    ;  uncertainty k = 0.072305
        17        18        32        37     4      180.000000        2.101341         2    ;  uncertainty k = 0.258101
        17        32        37        18     4      180.000000        2.101341         2    ;  uncertainty k = 0.258101
        17        37        18        32     4      180.000000        2.101341         2    ;  uncertainty k = 0.258101
        18        17        19        31     4      180.000000        3.974407         2    ;  uncertainty k = 0.219506
        18        19        31        17     4      180.000000        3.974407         2    ;  uncertainty k = 0.219506
        18        31        17        19     4      180.000000        3.974407         2    ;  uncertainty k = 0.219506
        19        16        18        30     4      180.000000        1.577917         2    ;  uncertainty k = 0.096804
        19        18        30        16     4      180.000000        1.577917         2    ;  uncertainty k = 0.096804
        19        30        16        18     4      180.000000        1.577917         2    ;  uncertainty k = 0.096804
        35        36        39        42     4      180.000000        1.325802         2    ;  uncertainty k = 0.587000
        35        39        42        36     4      180.000000        1.325802         2    ;  uncertainty k = 0.587000
        35        42        36        39     4      180.000000        1.325802         2    ;  uncertainty k = 0.587000
        37        17        36        38     4      180.000000        1.113204         2    ;  uncertainty k = 0.830977
        37        36        38        17     4      180.000000        1.113204         2    ;  uncertainty k = 0.830977
        37        38        17        36     4      180.000000        1.113204         2    ;  uncertainty k = 0.830977
        39        35        38        41     4      180.000000        0.359946         2    ;  uncertainty k = 0.804864
        39        38        41        35     4      180.000000        0.359946         2    ;  uncertainty k = 0.804864
        39        41        35        38     4      180.000000        0.359946         2    ;  uncertainty k = 0.804864

[ pairs ]
;       ai        aj funct
         1        11     1
         1        33     1
         2         5     1
         2        10     1
         2        12     1
         2        34     1
         3        11     1
         3        33     1
         4         6     1
         4         9     1
         4        13     1
         4        24     1
         4        25     1
         5         8     1
         5        12     1
         5        21     1
         5        23     1
         6         9     1
         6        11     1
         6        22     1
         6        34     1
         7        10     1
         7        23     1
         7        33     1
         8        11     1
         8        20     1
         9        12     1
         9        21     1
         9        33     1
        10        13     1
        10        20     1
        10        22     1
        10        24     1
        10        25     1
        10        34     1
        11        14     1
        11        23     1
        11        26     1
        11        27     1
        11        34     1
        12        15     1
        12        28     1
        12        29     1
        12        33     1
        13        16     1
        14        19     1
        14        24     1
        14        25     1
        14        38     1
        15        18     1
        15        26     1
        15        27     1
        15        30     1
        15        37     1
        15        39     1
        16        17     1
        16        28     1
        16        29     1
        16        31     1
        16        35     1
        16        36     1
        16        41     1
        17        30     1
        17        35     1
        17        39     1
        17        40     1
        18        36     1
        18        38     1
        19        32     1
        19        37     1
        19        39     1
        20        21     1
        20        33     1
        21        22     1
        22        23     1
        24        26     1
        24        27     1
        25        26     1
        25        27     1
        26        28     1
        26        29     1
        27        28     1
        27        29     1
        30        31     1
        30        38     1
        31        32     1
        31        37     1
        32        36     1
        32        38     1
        36        41     1
        37        41     1
        37        42     1
        38        40     1
        38        42     1
        39        40     1
        40        42     1
        41        42     1
