; ITP file created by ByteFF-joint-25, 2026-02-17 09:15:21.194896

[ atomtypes ]
;name           bonded.type        at.num        mass        charge   ptype           sigma         epsilon
 o0bf                                   8      0.0000       0.00000       A     3.04807e-01     6.12065e-01    ;  uncertainty sigma = 0.000018, epsilon = 0.000616
 c1bf                                   6      0.0000       0.00000       A     3.31436e-01     4.13701e-01    ;  uncertainty sigma = 0.000034, epsilon = 0.002275
 o2bf                                   8      0.0000       0.00000       A     3.04807e-01     6.12065e-01    ;  uncertainty sigma = 0.000018, epsilon = 0.000616
 c3bf                                   6      0.0000       0.00000       A     3.31539e-01     4.12760e-01    ;  uncertainty sigma = 0.000046, epsilon = 0.002412
 c4bf                                   6      0.0000       0.00000       A     3.31537e-01     4.13149e-01    ;  uncertainty sigma = 0.000011, epsilon = 0.001670
 c5bf                                   6      0.0000       0.00000       A     3.31527e-01     4.13270e-01    ;  uncertainty sigma = 0.000005, epsilon = 0.000688
 c6bf                                   6      0.0000       0.00000       A     3.31524e-01     4.13373e-01    ;  uncertainty sigma = 0.000004, epsilon = 0.000511
 c7bf                                   6      0.0000       0.00000       A     3.31525e-01     4.13404e-01    ;  uncertainty sigma = 0.000006, epsilon = 0.000712
 c8bf                                   6      0.0000       0.00000       A     3.31531e-01     4.13536e-01    ;  uncertainty sigma = 0.000011, epsilon = 0.001018
 c9bf                                   6      0.0000       0.00000       A     3.31500e-01     4.13273e-01    ;  uncertainty sigma = 0.000020, epsilon = 0.001606
 c10bf                                  6      0.0000       0.00000       A     3.31604e-01     4.13218e-01    ;  uncertainty sigma = 0.000006, epsilon = 0.001633
 c11bf                                  6      0.0000       0.00000       A     3.39774e-01     4.50628e-01    ;  uncertainty sigma = 0.000024, epsilon = 0.000998
 c12bf                                  6      0.0000       0.00000       A     3.39755e-01     4.50608e-01    ;  uncertainty sigma = 0.000006, epsilon = 0.000953
 c13bf                                  6      0.0000       0.00000       A     3.39779e-01     4.50532e-01    ;  uncertainty sigma = 0.000006, epsilon = 0.000794
 o14bf                                  8      0.0000       0.00000       A     3.15616e-01     3.03468e-01    ;  uncertainty sigma = 0.000013, epsilon = 0.000483
 c15bf                                  6      0.0000       0.00000       A     3.31524e-01     4.13343e-01    ;  uncertainty sigma = 0.000005, epsilon = 0.000620
 c16bf                                  6      0.0000       0.00000       A     3.31522e-01     4.13168e-01    ;  uncertainty sigma = 0.000005, epsilon = 0.000798
 c17bf                                  6      0.0000       0.00000       A     3.31520e-01     4.13169e-01    ;  uncertainty sigma = 0.000006, epsilon = 0.000471
 c18bf                                  6      0.0000       0.00000       A     3.39773e-01     4.51051e-01    ;  uncertainty sigma = 0.000004, epsilon = 0.000502
 c19bf                                  6      0.0000       0.00000       A     3.31532e-01     4.13368e-01    ;  uncertainty sigma = 0.000007, epsilon = 0.000499
 cl20bf                                17      0.0000       0.00000       A     3.46651e-01     1.10482e+00    ;  uncertainty sigma = 0.000010, epsilon = 0.001219
 c21bf                                  6      0.0000       0.00000       A     3.31524e-01     4.13446e-01    ;  uncertainty sigma = 0.000004, epsilon = 0.000673
 c22bf                                  6      0.0000       0.00000       A     3.31514e-01     4.13350e-01    ;  uncertainty sigma = 0.000004, epsilon = 0.000670
 h23bf                                  1      0.0000       0.00000       A     2.62573e-01     6.69665e-02    ;  uncertainty sigma = 0.000008, epsilon = 0.000474
 h24bf                                  1      0.0000       0.00000       A     2.62576e-01     6.69563e-02    ;  uncertainty sigma = 0.000011, epsilon = 0.000524
 h25bf                                  1      0.0000       0.00000       A     2.62558e-01     6.69856e-02    ;  uncertainty sigma = 0.000008, epsilon = 0.000695
 cl26bf                                17      0.0000       0.00000       A     3.46605e-01     1.10436e+00    ;  uncertainty sigma = 0.000016, epsilon = 0.002323
 h27bf                                  1      0.0000       0.00000       A     2.60038e-01     8.64862e-02    ;  uncertainty sigma = 0.000012, epsilon = 0.000717
 h28bf                                  1      0.0000       0.00000       A     2.60038e-01     8.64862e-02    ;  uncertainty sigma = 0.000012, epsilon = 0.000717
 h29bf                                  1      0.0000       0.00000       A     2.60032e-01     8.63750e-02    ;  uncertainty sigma = 0.000011, epsilon = 0.000877
 h30bf                                  1      0.0000       0.00000       A     2.60032e-01     8.63750e-02    ;  uncertainty sigma = 0.000011, epsilon = 0.000877
 h31bf                                  1      0.0000       0.00000       A     2.42190e-01     8.69771e-02    ;  uncertainty sigma = 0.000031, epsilon = 0.000462
 h32bf                                  1      0.0000       0.00000       A     2.42190e-01     8.69771e-02    ;  uncertainty sigma = 0.000031, epsilon = 0.000462
 h33bf                                  1      0.0000       0.00000       A     2.62561e-01     6.71446e-02    ;  uncertainty sigma = 0.000003, epsilon = 0.000531
 h34bf                                  1      0.0000       0.00000       A     2.60030e-01     8.67435e-02    ;  uncertainty sigma = 0.000006, epsilon = 0.000502
 h35bf                                  1      0.0000       0.00000       A     2.60030e-01     8.67435e-02    ;  uncertainty sigma = 0.000006, epsilon = 0.000502
 h36bf                                  1      0.0000       0.00000       A     2.60030e-01     8.67435e-02    ;  uncertainty sigma = 0.000006, epsilon = 0.000502
 h37bf                                  1      0.0000       0.00000       A     2.62556e-01     6.70982e-02    ;  uncertainty sigma = 0.000004, epsilon = 0.000469
 h38bf                                  1      0.0000       0.00000       A     2.62570e-01     6.70306e-02    ;  uncertainty sigma = 0.000011, epsilon = 0.000584
 n39bf                                  7      0.0000       0.00000       A     3.20752e-01     8.52606e-01    ;  uncertainty sigma = 0.000045, epsilon = 0.001915
 h40bf                                  1      0.0000       0.00000       A     1.10620e-01     4.09733e-02    ;  uncertainty sigma = 0.000138, epsilon = 0.001729

[ moleculetype ]
;name             nrexcl
 MOL                   3

[ atoms ]
;       nr            type      resi   res      atom      cgnr      charge          mass ; qtot
         1            o0bf         1   UNL        o0         1    -0.82702       15.9990 ; qtot   -0.827
         2            c1bf         1   UNL        c1         2     0.92221       12.0110 ; qtot    0.095
         3            o2bf         1   UNL        o2         3    -0.82702       15.9990 ; qtot   -0.732
         4            c3bf         1   UNL        c3         4    -0.11188       12.0110 ; qtot   -0.844
         5            c4bf         1   UNL        c4         5    -0.06476       12.0110 ; qtot   -0.908
         6            c5bf         1   UNL        c5         6    -0.15966       12.0110 ; qtot   -1.068
         7            c6bf         1   UNL        c6         7    -0.10497       12.0110 ; qtot   -1.173
         8            c7bf         1   UNL        c7         8    -0.14887       12.0110 ; qtot   -1.322
         9            c8bf         1   UNL        c8         9     0.06954       12.0110 ; qtot   -1.252
        10            c9bf         1   UNL        c9        10    -0.09129       12.0110 ; qtot   -1.344
        11           c10bf         1   UNL       c10        11    -0.17224       12.0110 ; qtot   -1.516
        12           c11bf         1   UNL       c11        12    -0.01226       12.0110 ; qtot   -1.528
        13           c12bf         1   UNL       c12        13    -0.09472       12.0110 ; qtot   -1.623
        14           c13bf         1   UNL       c13        14     0.13818       12.0110 ; qtot   -1.485
        15           o14bf         1   UNL       o14        15    -0.33405       15.9990 ; qtot   -1.819
        16           c15bf         1   UNL       c15        16     0.14313       12.0110 ; qtot   -1.676
        17           c16bf         1   UNL       c16        17    -0.18177       12.0110 ; qtot   -1.857
        18           c17bf         1   UNL       c17        18    -0.03175       12.0110 ; qtot   -1.889
        19           c18bf         1   UNL       c18        19    -0.04894       12.0110 ; qtot   -1.938
        20           c19bf         1   UNL       c19        20     0.00823       12.0110 ; qtot   -1.930
        21          cl20bf         1   UNL      cl20        21    -0.12527       35.4530 ; qtot   -2.055
        22           c21bf         1   UNL       c21        22    -0.08474       12.0110 ; qtot   -2.140
        23           c22bf         1   UNL       c22        23    -0.18491       12.0110 ; qtot   -2.325
        24           h23bf         1   UNL       h23        24     0.13639        1.0080 ; qtot   -2.188
        25           h24bf         1   UNL       h24        25     0.13559        1.0080 ; qtot   -2.053
        26           h25bf         1   UNL       h25        26     0.14757        1.0080 ; qtot   -1.905
        27          cl26bf         1   UNL      cl26        27    -0.12737       35.4530 ; qtot   -2.033
        28           h27bf         1   UNL       h27        28     0.05000        1.0080 ; qtot   -1.983
        29           h28bf         1   UNL       h28        29     0.05000        1.0080 ; qtot   -1.933
        30           h29bf         1   UNL       h29        30     0.05420        1.0080 ; qtot   -1.878
        31           h30bf         1   UNL       h30        31     0.05420        1.0080 ; qtot   -1.824
        32           h31bf         1   UNL       h31        32     0.04465        1.0080 ; qtot   -1.780
        33           h32bf         1   UNL       h32        33     0.04465        1.0080 ; qtot   -1.735
        34           h33bf         1   UNL       h33        34     0.14483        1.0080 ; qtot   -1.590
        35           h34bf         1   UNL       h34        35     0.05199        1.0080 ; qtot   -1.538
        36           h35bf         1   UNL       h35        36     0.05199        1.0080 ; qtot   -1.486
        37           h36bf         1   UNL       h36        37     0.05199        1.0080 ; qtot   -1.434
        38           h37bf         1   UNL       h37        38     0.14726        1.0080 ; qtot   -1.287
        39           h38bf         1   UNL       h38        39     0.15074        1.0080 ; qtot   -1.136
        40           n39bf         1   UNL       n39        40    -0.18240       14.0070 ; qtot   -1.319
        41           h40bf         1   UNL       h40        41     0.31855        1.0080 ; qtot   -1.000

[ bonds ]
;       ai        aj funct               r               k
         1         2     1        0.126489   553283.027930    ;  uncertainty r = 0.000115, k = 9.491850
         2         3     1        0.126489   553283.027930    ;  uncertainty r = 0.000115, k = 9.491850
         2         4     1        0.153152   173711.219556    ;  uncertainty r = 0.000104, k = 52.114444
         4        11     1        0.138958   381129.099609    ;  uncertainty r = 0.000202, k = 43.228768
         4        40     1        0.138208   298899.071143    ;  uncertainty r = 0.000109, k = 13.882664
         5         6     1        0.139936   370256.215625    ;  uncertainty r = 0.000063, k = 5.925967
         5        10     1        0.143877   338396.373340    ;  uncertainty r = 0.000128, k = 16.917132
         5        40     1        0.136835   322052.572266    ;  uncertainty r = 0.000123, k = 21.676564
         6         7     1        0.139003   377192.707422    ;  uncertainty r = 0.000046, k = 2.691530
         6        24     1        0.108859   337002.353613    ;  uncertainty r = 0.000007, k = 0.899498
         7         8     1        0.140893   353340.510986    ;  uncertainty r = 0.000092, k = 4.974789
         7        25     1        0.108721   334762.927881    ;  uncertainty r = 0.000013, k = 1.663861
         8         9     1        0.138991   355966.721777    ;  uncertainty r = 0.000065, k = 7.981382
         8        26     1        0.108685   335887.454492    ;  uncertainty r = 0.000005, k = 0.360521
         9        10     1        0.140703   357267.990723    ;  uncertainty r = 0.000111, k = 6.921955
         9        27     1        0.176351   194444.785889    ;  uncertainty r = 0.000072, k = 7.706583
        10        11     1        0.144202   236190.221973    ;  uncertainty r = 0.000115, k = 25.989092
        11        12     1        0.150091   233699.076953    ;  uncertainty r = 0.000182, k = 9.743182
        12        13     1        0.153811   204354.307959    ;  uncertainty r = 0.000114, k = 8.179687
        12        28     1        0.109592   309634.080273    ;  uncertainty r = 0.000028, k = 1.863577
        12        29     1        0.109592   309634.080273    ;  uncertainty r = 0.000028, k = 1.863577
        13        14     1        0.152189   210087.899756    ;  uncertainty r = 0.000032, k = 1.940794
        13        30     1        0.109664   307643.385986    ;  uncertainty r = 0.000028, k = 1.424205
        13        31     1        0.109664   307643.385986    ;  uncertainty r = 0.000028, k = 1.424205
        14        15     1        0.142377   234080.473682    ;  uncertainty r = 0.000037, k = 5.321553
        14        32     1        0.109775   308073.507520    ;  uncertainty r = 0.000024, k = 1.219206
        14        33     1        0.109775   308073.507520    ;  uncertainty r = 0.000024, k = 1.219206
        15        16     1        0.136578   321265.365332    ;  uncertainty r = 0.000024, k = 2.725129
        16        17     1        0.139841   361262.709668    ;  uncertainty r = 0.000040, k = 4.379956
        16        23     1        0.139735   363817.033496    ;  uncertainty r = 0.000038, k = 2.468664
        17        18     1        0.139914   357952.232031    ;  uncertainty r = 0.000032, k = 4.820809
        17        34     1        0.108775   338174.813379    ;  uncertainty r = 0.000019, k = 1.073177
        18        19     1        0.150769   237989.566699    ;  uncertainty r = 0.000024, k = 5.263177
        18        20     1        0.140357   346197.194141    ;  uncertainty r = 0.000049, k = 7.515435
        19        35     1        0.109441   309155.974512    ;  uncertainty r = 0.000006, k = 1.899021
        19        36     1        0.109441   309155.974512    ;  uncertainty r = 0.000006, k = 1.899021
        19        37     1        0.109441   309155.974512    ;  uncertainty r = 0.000006, k = 1.899021
        20        21     1        0.176354   188631.977979    ;  uncertainty r = 0.000045, k = 4.958258
        20        22     1        0.139474   360555.178516    ;  uncertainty r = 0.000022, k = 2.647740
        22        23     1        0.139218   374046.790918    ;  uncertainty r = 0.000023, k = 2.011226
        22        39     1        0.108659   335061.660986    ;  uncertainty r = 0.000022, k = 1.199769
        23        38     1        0.108773   337465.698926    ;  uncertainty r = 0.000017, k = 0.945613
        40        41     1        0.101549   410166.835937    ;  uncertainty r = 0.000185, k = 18.933717

[ angles ]
;       ai        aj        ak funct           theta             cth
         1         2         3     1      131.490799      799.912795    ;  uncertainty theta = 0.007122, k = 0.161146
         1         2         4     1      115.398148      405.205167    ;  uncertainty theta = 0.010891, k = 0.287097
         2         4        11     1      129.817230      292.849962    ;  uncertainty theta = 0.014072, k = 0.199623
         2         4        40     1      117.545792      348.387716    ;  uncertainty theta = 0.006086, k = 0.300353
         3         2         4     1      115.398148      405.205167    ;  uncertainty theta = 0.010891, k = 0.287097
         4        11        10     1      108.724571      733.367748    ;  uncertainty theta = 0.004658, k = 0.336264
         4        11        12     1      125.129150      355.487480    ;  uncertainty theta = 0.006136, k = 0.178102
         4        40         5     1      106.675026      867.052473    ;  uncertainty theta = 0.006333, k = 0.180828
         4        40        41     1      118.338318      291.522032    ;  uncertainty theta = 0.017775, k = 0.291223
         5         6         7     1      116.909134      530.239451    ;  uncertainty theta = 0.002583, k = 0.145093
         5         6        24     1      122.318954      295.593573    ;  uncertainty theta = 0.002545, k = 0.035180
         5        10         9     1      116.376991      399.498964    ;  uncertainty theta = 0.006580, k = 0.066314
         5        10        11     1      109.264137      658.350893    ;  uncertainty theta = 0.003710, k = 0.217488
         5        40        41     1      119.637779      280.220840    ;  uncertainty theta = 0.033414, k = 0.279152
         6         5        10     1      121.849686      371.846648    ;  uncertainty theta = 0.003308, k = 0.092958
         6         5        40     1      129.534424      410.536422    ;  uncertainty theta = 0.002727, k = 0.182023
         6         7         8     1      121.977333      513.543449    ;  uncertainty theta = 0.001931, k = 0.075751
         6         7        25     1      119.547913      281.592566    ;  uncertainty theta = 0.001640, k = 0.021853
         7         6        24     1      121.558029      283.682299    ;  uncertainty theta = 0.000731, k = 0.040998
         7         8         9     1      121.232101      496.744691    ;  uncertainty theta = 0.002195, k = 0.075731
         7         8        26     1      120.591003      282.914590    ;  uncertainty theta = 0.000454, k = 0.070582
         8         7        25     1      119.120041      283.999279    ;  uncertainty theta = 0.001086, k = 0.043249
         8         9        10     1      122.850868      424.985574    ;  uncertainty theta = 0.003432, k = 0.147741
         8         9        27     1      120.508957      465.191901    ;  uncertainty theta = 0.003854, k = 0.110311
         9         8        26     1      120.102646      284.353095    ;  uncertainty theta = 0.001383, k = 0.103959
         9        10        11     1      131.080139      341.941703    ;  uncertainty theta = 0.003486, k = 0.244112
        10         5        40     1      107.514061      660.419655    ;  uncertainty theta = 0.005308, k = 0.332571
        10         9        27     1      119.894028      392.322717    ;  uncertainty theta = 0.006850, k = 0.083138
        10        11        12     1      124.236855      357.844204    ;  uncertainty theta = 0.008108, k = 0.212312
        11         4        40     1      110.903793      681.324141    ;  uncertainty theta = 0.003173, k = 0.289398
        11        12        13     1      111.475525      545.869503    ;  uncertainty theta = 0.005319, k = 0.061338
        11        12        28     1      106.760269      410.990248    ;  uncertainty theta = 0.002937, k = 0.059478
        11        12        29     1      106.760269      410.990248    ;  uncertainty theta = 0.002937, k = 0.059478
        12        13        14     1      109.709373      548.113832    ;  uncertainty theta = 0.002989, k = 0.064466
        12        13        30     1      107.651779      393.848623    ;  uncertainty theta = 0.002986, k = 0.046376
        12        13        31     1      107.651779      393.848623    ;  uncertainty theta = 0.002986, k = 0.046376
        13        12        28     1      106.948524      403.042844    ;  uncertainty theta = 0.002113, k = 0.107243
        13        12        29     1      106.948524      403.042844    ;  uncertainty theta = 0.002113, k = 0.107243
        13        14        15     1      109.196335      594.491585    ;  uncertainty theta = 0.001681, k = 0.046631
        13        14        32     1      109.835693      407.619765    ;  uncertainty theta = 0.001604, k = 0.043274
        13        14        33     1      109.835693      407.619765    ;  uncertainty theta = 0.001604, k = 0.043274
        14        13        30     1      106.754715      398.540907    ;  uncertainty theta = 0.001622, k = 0.024398
        14        13        31     1      106.754715      398.540907    ;  uncertainty theta = 0.001622, k = 0.024398
        14        15        16     1      110.111084      506.661357    ;  uncertainty theta = 0.001019, k = 0.040829
        15        14        32     1      106.854492      432.681565    ;  uncertainty theta = 0.001778, k = 0.027280
        15        14        33     1      106.854492      432.681565    ;  uncertainty theta = 0.001778, k = 0.027280
        15        16        17     1      119.766968      428.069307    ;  uncertainty theta = 0.003655, k = 0.049509
        15        16        23     1      120.202042      427.890133    ;  uncertainty theta = 0.003027, k = 0.035792
        16        17        18     1      121.621506      513.423999    ;  uncertainty theta = 0.001523, k = 0.045748
        16        17        34     1      119.270813      271.464804    ;  uncertainty theta = 0.003083, k = 0.025047
        16        23        22     1      118.542885      521.536532    ;  uncertainty theta = 0.001800, k = 0.044731
        16        23        38     1      120.088196      268.856124    ;  uncertainty theta = 0.001351, k = 0.024116
        17        16        23     1      120.825577      386.665545    ;  uncertainty theta = 0.003899, k = 0.085895
        17        18        19     1      120.371811      399.904174    ;  uncertainty theta = 0.001117, k = 0.098171
        17        18        20     1      119.233200      438.726166    ;  uncertainty theta = 0.002518, k = 0.211468
        18        17        34     1      118.361267      273.505474    ;  uncertainty theta = 0.003210, k = 0.098461
        18        19        35     1      109.617088      396.978292    ;  uncertainty theta = 0.000826, k = 0.034200
        18        19        36     1      109.617088      396.978292    ;  uncertainty theta = 0.000826, k = 0.034200
        18        19        37     1      109.617088      396.978292    ;  uncertainty theta = 0.000826, k = 0.034200
        18        20        21     1      118.622452      427.111538    ;  uncertainty theta = 0.001984, k = 0.081578
        18        20        22     1      122.983597      384.569459    ;  uncertainty theta = 0.002449, k = 0.155020
        19        18        20     1      120.487755      406.731680    ;  uncertainty theta = 0.002123, k = 0.155939
        20        22        23     1      120.261963      497.357678    ;  uncertainty theta = 0.001456, k = 0.059849
        20        22        39     1      120.400467      283.600421    ;  uncertainty theta = 0.001473, k = 0.059963
        21        20        22     1      119.541039      450.834523    ;  uncertainty theta = 0.000395, k = 0.082007
        22        23        38     1      120.558937      285.050322    ;  uncertainty theta = 0.001747, k = 0.019534
        23        22        39     1      120.459366      276.352957    ;  uncertainty theta = 0.001967, k = 0.029779
        28        12        29     1      104.718544      312.737465    ;  uncertainty theta = 0.004394, k = 0.075590
        30        13        31     1      105.092697      317.561425    ;  uncertainty theta = 0.002566, k = 0.027591
        32        14        33     1      107.450478      331.956853    ;  uncertainty theta = 0.001998, k = 0.040678
        35        19        36     1      106.795128      316.585907    ;  uncertainty theta = 0.000813, k = 0.021702
        35        19        37     1      106.795128      316.585907    ;  uncertainty theta = 0.000813, k = 0.021702
        36        19        37     1      106.795128      316.585907    ;  uncertainty theta = 0.000813, k = 0.021702

[ dihedrals ] ; propers for gromacs 4.5 or higher, use funct 9
;       ai        aj        ak        al funct           phase               k        pn
         1         2         4        11     9        0.000000       -1.105059         1    ;  uncertainty k = 1.501952
         1         2         4        11     9      180.000000        2.224427         2    ;  uncertainty k = 0.223549
         1         2         4        11     9        0.000000        0.319483         3    ;  uncertainty k = 0.231019
         1         2         4        11     9      180.000000        0.149888         4    ;  uncertainty k = 0.084314
         1         2         4        40     9        0.000000        1.829338         1    ;  uncertainty k = 0.803721
         1         2         4        40     9      180.000000        3.751953         2    ;  uncertainty k = 0.583855
         1         2         4        40     9        0.000000        0.762050         3    ;  uncertainty k = 0.250206
         1         2         4        40     9      180.000000        0.177475         4    ;  uncertainty k = 0.153758
         2         4        11        10     9        0.000000        0.970417         1    ;  uncertainty k = 1.108960
         2         4        11        10     9      180.000000       10.576718         2    ;  uncertainty k = 0.334393
         2         4        11        10     9        0.000000        2.233034         3    ;  uncertainty k = 0.182821
         2         4        11        10     9      180.000000        0.719969         4    ;  uncertainty k = 0.191287
         2         4        11        12     9        0.000000        0.417534         1    ;  uncertainty k = 0.643682
         2         4        11        12     9      180.000000        9.399159         2    ;  uncertainty k = 0.526567
         2         4        11        12     9        0.000000        1.699491         3    ;  uncertainty k = 0.368199
         2         4        11        12     9      180.000000        0.415840         4    ;  uncertainty k = 0.319098
         2         4        40         5     9        0.000000       -0.501285         1    ;  uncertainty k = 2.275273
         2         4        40         5     9      180.000000        6.565957         2    ;  uncertainty k = 1.054448
         2         4        40         5     9        0.000000        1.573724         3    ;  uncertainty k = 0.712028
         2         4        40         5     9      180.000000        0.278678         4    ;  uncertainty k = 0.223176
         2         4        40        41     9        0.000000        1.367414         1    ;  uncertainty k = 2.129697
         2         4        40        41     9      180.000000        2.627527         2    ;  uncertainty k = 0.991888
         2         4        40        41     9        0.000000        1.309947         3    ;  uncertainty k = 0.584939
         2         4        40        41     9      180.000000       -0.041056         4    ;  uncertainty k = 0.144474
         3         2         4        11     9        0.000000       -1.105059         1    ;  uncertainty k = 1.501952
         3         2         4        11     9      180.000000        2.224427         2    ;  uncertainty k = 0.223549
         3         2         4        11     9        0.000000        0.319483         3    ;  uncertainty k = 0.231019
         3         2         4        11     9      180.000000        0.149888         4    ;  uncertainty k = 0.084314
         3         2         4        40     9        0.000000        1.829338         1    ;  uncertainty k = 0.803721
         3         2         4        40     9      180.000000        3.751953         2    ;  uncertainty k = 0.583855
         3         2         4        40     9        0.000000        0.762050         3    ;  uncertainty k = 0.250206
         3         2         4        40     9      180.000000        0.177475         4    ;  uncertainty k = 0.153758
         4        11        10         5     9        0.000000        0.375865         1    ;  uncertainty k = 0.748998
         4        11        10         5     9      180.000000       12.439477         2    ;  uncertainty k = 1.087258
         4        11        10         5     9        0.000000       -9.771837         3    ;  uncertainty k = 2.100101
         4        11        10         5     9      180.000000        1.914765         4    ;  uncertainty k = 0.800855
         4        11        10         9     9        0.000000        0.249093         1    ;  uncertainty k = 1.562666
         4        11        10         9     9      180.000000        5.543824         2    ;  uncertainty k = 0.295770
         4        11        10         9     9        0.000000        1.216322         3    ;  uncertainty k = 0.467118
         4        11        10         9     9      180.000000        0.708665         4    ;  uncertainty k = 0.246430
         4        11        12        13     9        0.000000       -0.288872         1    ;  uncertainty k = 0.867382
         4        11        12        13     9      180.000000        1.560327         2    ;  uncertainty k = 0.350266
         4        11        12        13     9        0.000000        0.138271         3    ;  uncertainty k = 0.521751
         4        11        12        13     9      180.000000        0.102363         4    ;  uncertainty k = 0.232989
         4        11        12        28     9        0.000000        1.455411         1    ;  uncertainty k = 0.511526
         4        11        12        28     9      180.000000        3.060124         2    ;  uncertainty k = 0.315987
         4        11        12        28     9        0.000000        0.094021         3    ;  uncertainty k = 0.131703
         4        11        12        28     9      180.000000        0.277591         4    ;  uncertainty k = 0.139493
         4        11        12        29     9        0.000000        1.455411         1    ;  uncertainty k = 0.511526
         4        11        12        29     9      180.000000        3.060124         2    ;  uncertainty k = 0.315987
         4        11        12        29     9        0.000000        0.094021         3    ;  uncertainty k = 0.131703
         4        11        12        29     9      180.000000        0.277591         4    ;  uncertainty k = 0.139493
         4        40         5         6     9        0.000000        0.610082         1    ;  uncertainty k = 1.409709
         4        40         5         6     9      180.000000        6.562015         2    ;  uncertainty k = 1.287978
         4        40         5         6     9        0.000000        0.633522         3    ;  uncertainty k = 0.659543
         4        40         5         6     9      180.000000        0.298903         4    ;  uncertainty k = 0.319552
         4        40         5        10     9        0.000000       -0.323679         1    ;  uncertainty k = 0.735620
         4        40         5        10     9      180.000000       15.029701         2    ;  uncertainty k = 0.884814
         4        40         5        10     9        0.000000       -7.974923         3    ;  uncertainty k = 1.812623
         4        40         5        10     9      180.000000        0.609868         4    ;  uncertainty k = 0.747181
         5         6         7         8     9        0.000000        0.058609         1    ;  uncertainty k = 0.408281
         5         6         7         8     9      180.000000       16.949446         2    ;  uncertainty k = 0.220379
         5         6         7         8     9        0.000000       -0.407847         3    ;  uncertainty k = 0.349105
         5         6         7         8     9      180.000000        0.595078         4    ;  uncertainty k = 0.257602
         5         6         7        25     9        0.000000        0.103569         1    ;  uncertainty k = 0.349834
         5         6         7        25     9      180.000000       10.939590         2    ;  uncertainty k = 0.457199
         5         6         7        25     9        0.000000        1.438306         3    ;  uncertainty k = 0.306712
         5         6         7        25     9      180.000000        1.554711         4    ;  uncertainty k = 0.256481
         5        10         9         8     9        0.000000       -0.180387         1    ;  uncertainty k = 0.350033
         5        10         9         8     9      180.000000        9.970202         2    ;  uncertainty k = 0.312629
         5        10         9         8     9        0.000000       -0.730481         3    ;  uncertainty k = 0.275595
         5        10         9         8     9      180.000000        0.995146         4    ;  uncertainty k = 0.190321
         5        10         9        27     9        0.000000        0.247294         1    ;  uncertainty k = 0.737257
         5        10         9        27     9      180.000000        7.741270         2    ;  uncertainty k = 0.392668
         5        10         9        27     9        0.000000        1.499120         3    ;  uncertainty k = 0.229078
         5        10         9        27     9      180.000000        1.131755         4    ;  uncertainty k = 0.315823
         5        10        11        12     9        0.000000        1.158212         1    ;  uncertainty k = 1.082961
         5        10        11        12     9      180.000000        9.881451         2    ;  uncertainty k = 0.518841
         5        10        11        12     9        0.000000        1.842610         3    ;  uncertainty k = 0.421274
         5        10        11        12     9      180.000000        0.228544         4    ;  uncertainty k = 0.374229
         5        40         4        11     9        0.000000       -0.473817         1    ;  uncertainty k = 0.863766
         5        40         4        11     9      180.000000       14.541506         2    ;  uncertainty k = 0.615543
         5        40         4        11     9        0.000000       -5.622927         3    ;  uncertainty k = 1.326299
         5        40         4        11     9      180.000000        0.827720         4    ;  uncertainty k = 0.332610
         6         5        10         9     9        0.000000       -0.543962         1    ;  uncertainty k = 0.706982
         6         5        10         9     9      180.000000        7.434105         2    ;  uncertainty k = 0.714440
         6         5        10         9     9        0.000000        0.180320         3    ;  uncertainty k = 0.327910
         6         5        10         9     9      180.000000        0.995031         4    ;  uncertainty k = 0.387082
         6         5        10        11     9        0.000000       -0.054106         1    ;  uncertainty k = 0.273841
         6         5        10        11     9      180.000000        6.898575         2    ;  uncertainty k = 0.371317
         6         5        10        11     9        0.000000        0.325999         3    ;  uncertainty k = 0.446089
         6         5        10        11     9      180.000000        1.127592         4    ;  uncertainty k = 0.201778
         6         5        40        41     9        0.000000        1.747282         1    ;  uncertainty k = 1.028334
         6         5        40        41     9      180.000000        1.798645         2    ;  uncertainty k = 0.681278
         6         5        40        41     9        0.000000        1.240345         3    ;  uncertainty k = 0.458471
         6         5        40        41     9      180.000000        0.170925         4    ;  uncertainty k = 0.174613
         6         7         8         9     9        0.000000       -0.192028         1    ;  uncertainty k = 0.247397
         6         7         8         9     9      180.000000       12.967850         2    ;  uncertainty k = 0.308587
         6         7         8         9     9        0.000000       -0.869362         3    ;  uncertainty k = 0.736332
         6         7         8         9     9      180.000000        0.763538         4    ;  uncertainty k = 0.199484
         6         7         8        26     9        0.000000        0.065427         1    ;  uncertainty k = 0.104277
         6         7         8        26     9      180.000000        7.151986         2    ;  uncertainty k = 0.438860
         6         7         8        26     9        0.000000        1.357512         3    ;  uncertainty k = 0.297835
         6         7         8        26     9      180.000000        1.637776         4    ;  uncertainty k = 0.239467
         7         6         5        10     9        0.000000       -0.040306         1    ;  uncertainty k = 0.532494
         7         6         5        10     9      180.000000       12.317791         2    ;  uncertainty k = 0.317961
         7         6         5        10     9        0.000000       -1.241511         3    ;  uncertainty k = 0.411456
         7         6         5        10     9      180.000000        0.728390         4    ;  uncertainty k = 0.292441
         7         6         5        40     9        0.000000       -0.120117         1    ;  uncertainty k = 0.330808
         7         6         5        40     9      180.000000       11.238964         2    ;  uncertainty k = 0.477963
         7         6         5        40     9        0.000000        0.531681         3    ;  uncertainty k = 0.406808
         7         6         5        40     9      180.000000        1.036991         4    ;  uncertainty k = 0.318147
         7         8         9        10     9        0.000000        0.072631         1    ;  uncertainty k = 0.226016
         7         8         9        10     9      180.000000       12.128962         2    ;  uncertainty k = 0.418745
         7         8         9        10     9        0.000000        0.032303         3    ;  uncertainty k = 0.636757
         7         8         9        10     9      180.000000        1.003555         4    ;  uncertainty k = 0.420730
         7         8         9        27     9        0.000000       -0.102406         1    ;  uncertainty k = 0.215480
         7         8         9        27     9      180.000000       10.773575         2    ;  uncertainty k = 0.649233
         7         8         9        27     9        0.000000        1.569662         3    ;  uncertainty k = 0.356947
         7         8         9        27     9      180.000000        1.638076         4    ;  uncertainty k = 0.208860
         8         7         6        24     9        0.000000        0.143071         1    ;  uncertainty k = 0.220784
         8         7         6        24     9      180.000000        8.815710         2    ;  uncertainty k = 0.654517
         8         7         6        24     9        0.000000        1.653777         3    ;  uncertainty k = 0.260244
         8         7         6        24     9      180.000000        1.889284         4    ;  uncertainty k = 0.303547
         8         9        10        11     9        0.000000        0.144666         1    ;  uncertainty k = 0.914715
         8         9        10        11     9      180.000000        6.132618         2    ;  uncertainty k = 0.355063
         8         9        10        11     9        0.000000        0.833489         3    ;  uncertainty k = 0.262553
         8         9        10        11     9      180.000000        1.135294         4    ;  uncertainty k = 0.122797
         9         8         7        25     9        0.000000       -0.012665         1    ;  uncertainty k = 0.238641
         9         8         7        25     9      180.000000        7.010431         2    ;  uncertainty k = 0.420023
         9         8         7        25     9        0.000000        1.431792         3    ;  uncertainty k = 0.271182
         9         8         7        25     9      180.000000        1.688545         4    ;  uncertainty k = 0.139902
         9        10         5        40     9        0.000000       -0.114952         1    ;  uncertainty k = 0.601140
         9        10         5        40     9      180.000000        8.861970         2    ;  uncertainty k = 0.532397
         9        10         5        40     9        0.000000       -0.388563         3    ;  uncertainty k = 0.837085
         9        10         5        40     9      180.000000        1.046023         4    ;  uncertainty k = 0.369751
         9        10        11        12     9        0.000000        0.212442         1    ;  uncertainty k = 1.695689
         9        10        11        12     9      180.000000        5.614745         2    ;  uncertainty k = 1.310106
         9        10        11        12     9        0.000000        1.620864         3    ;  uncertainty k = 0.305331
         9        10        11        12     9      180.000000        0.115029         4    ;  uncertainty k = 0.116458
        10         5         6        24     9        0.000000        0.155031         1    ;  uncertainty k = 0.455389
        10         5         6        24     9      180.000000        6.489723         2    ;  uncertainty k = 0.967017
        10         5         6        24     9        0.000000        1.247494         3    ;  uncertainty k = 0.336936
        10         5         6        24     9      180.000000        1.117373         4    ;  uncertainty k = 0.310893
        10         5        40        41     9        0.000000        5.912692         1    ;  uncertainty k = 1.859298
        10         5        40        41     9      180.000000        4.719646         2    ;  uncertainty k = 1.215816
        10         5        40        41     9        0.000000        1.203073         3    ;  uncertainty k = 0.476782
        10         5        40        41     9      180.000000        0.263848         4    ;  uncertainty k = 0.161189
        10         9         8        26     9        0.000000        0.039844         1    ;  uncertainty k = 0.340055
        10         9         8        26     9      180.000000        8.369500         2    ;  uncertainty k = 0.305913
        10         9         8        26     9        0.000000        1.470606         3    ;  uncertainty k = 0.458190
        10         9         8        26     9      180.000000        1.543511         4    ;  uncertainty k = 0.149320
        10        11         4        40     9        0.000000       -0.227439         1    ;  uncertainty k = 0.677991
        10        11         4        40     9      180.000000       20.432852         2    ;  uncertainty k = 0.251719
        10        11         4        40     9        0.000000       -5.176575         3    ;  uncertainty k = 1.637096
        10        11         4        40     9      180.000000        0.971724         4    ;  uncertainty k = 0.541610
        10        11        12        13     9        0.000000       -0.328291         1    ;  uncertainty k = 0.822971
        10        11        12        13     9      180.000000        0.626357         2    ;  uncertainty k = 0.579557
        10        11        12        13     9        0.000000        0.921434         3    ;  uncertainty k = 0.285070
        10        11        12        13     9      180.000000        0.158642         4    ;  uncertainty k = 0.093618
        10        11        12        28     9        0.000000       -0.269487         1    ;  uncertainty k = 0.319011
        10        11        12        28     9      180.000000        2.797990         2    ;  uncertainty k = 0.402140
        10        11        12        28     9        0.000000        0.676408         3    ;  uncertainty k = 0.206965
        10        11        12        28     9      180.000000        0.375211         4    ;  uncertainty k = 0.090928
        10        11        12        29     9        0.000000       -0.269487         1    ;  uncertainty k = 0.319011
        10        11        12        29     9      180.000000        2.797990         2    ;  uncertainty k = 0.402140
        10        11        12        29     9        0.000000        0.676408         3    ;  uncertainty k = 0.206965
        10        11        12        29     9      180.000000        0.375211         4    ;  uncertainty k = 0.090928
        11         4        40        41     9        0.000000        3.762360         1    ;  uncertainty k = 2.382846
        11         4        40        41     9      180.000000        7.522903         2    ;  uncertainty k = 0.300219
        11         4        40        41     9        0.000000        1.885799         3    ;  uncertainty k = 0.795199
        11         4        40        41     9      180.000000       -0.132906         4    ;  uncertainty k = 0.292974
        11        10         5        40     9        0.000000       -0.262058         1    ;  uncertainty k = 0.252819
        11        10         5        40     9      180.000000       12.037802         2    ;  uncertainty k = 1.049350
        11        10         5        40     9        0.000000       -3.859551         3    ;  uncertainty k = 1.791735
        11        10         5        40     9      180.000000        1.414876         4    ;  uncertainty k = 0.899563
        11        10         9        27     9        0.000000       -0.152949         1    ;  uncertainty k = 0.418336
        11        10         9        27     9      180.000000        5.740074         2    ;  uncertainty k = 0.495233
        11        10         9        27     9        0.000000        1.250121         3    ;  uncertainty k = 0.416460
        11        10         9        27     9      180.000000        0.901538         4    ;  uncertainty k = 0.328839
        11        12        13        14     9        0.000000       -2.674191         1    ;  uncertainty k = 0.901481
        11        12        13        14     9      180.000000       -0.642954         2    ;  uncertainty k = 0.545775
        11        12        13        14     9        0.000000        1.339427         3    ;  uncertainty k = 0.180688
        11        12        13        14     9      180.000000       -0.290403         4    ;  uncertainty k = 0.118618
        11        12        13        30     9        0.000000        0.591030         1    ;  uncertainty k = 0.472533
        11        12        13        30     9      180.000000       -0.571553         2    ;  uncertainty k = 0.449982
        11        12        13        30     9        0.000000        1.130664         3    ;  uncertainty k = 0.150271
        11        12        13        30     9      180.000000        0.003229         4    ;  uncertainty k = 0.047638
        11        12        13        31     9        0.000000        0.591030         1    ;  uncertainty k = 0.472533
        11        12        13        31     9      180.000000       -0.571553         2    ;  uncertainty k = 0.449982
        11        12        13        31     9        0.000000        1.130664         3    ;  uncertainty k = 0.150271
        11        12        13        31     9      180.000000        0.003229         4    ;  uncertainty k = 0.047638
        12        11         4        40     9        0.000000        0.320890         1    ;  uncertainty k = 0.700814
        12        11         4        40     9      180.000000       16.555032         2    ;  uncertainty k = 0.385962
        12        11         4        40     9        0.000000        1.348822         3    ;  uncertainty k = 0.454368
        12        11         4        40     9      180.000000        0.759035         4    ;  uncertainty k = 0.322998
        12        13        14        15     9        0.000000       -3.748990         1    ;  uncertainty k = 1.127000
        12        13        14        15     9      180.000000       -2.388476         2    ;  uncertainty k = 0.486220
        12        13        14        15     9        0.000000        2.150613         3    ;  uncertainty k = 0.276844
        12        13        14        15     9      180.000000       -0.482433         4    ;  uncertainty k = 0.136989
        12        13        14        32     9        0.000000       -1.824223         1    ;  uncertainty k = 0.555989
        12        13        14        32     9      180.000000        0.065390         2    ;  uncertainty k = 0.235559
        12        13        14        32     9        0.000000        0.936322         3    ;  uncertainty k = 0.066411
        12        13        14        32     9      180.000000       -0.326780         4    ;  uncertainty k = 0.104397
        12        13        14        33     9        0.000000       -1.824223         1    ;  uncertainty k = 0.555989
        12        13        14        33     9      180.000000        0.065390         2    ;  uncertainty k = 0.235559
        12        13        14        33     9        0.000000        0.936322         3    ;  uncertainty k = 0.066411
        12        13        14        33     9      180.000000       -0.326780         4    ;  uncertainty k = 0.104397
        13        14        15        16     9        0.000000       -1.282294         1    ;  uncertainty k = 0.540550
        13        14        15        16     9      180.000000       -0.202914         2    ;  uncertainty k = 0.247418
        13        14        15        16     9        0.000000        0.760689         3    ;  uncertainty k = 0.094362
        13        14        15        16     9      180.000000        0.495322         4    ;  uncertainty k = 0.066296
        14        13        12        28     9        0.000000       -1.722473         1    ;  uncertainty k = 0.401919
        14        13        12        28     9      180.000000       -0.542288         2    ;  uncertainty k = 0.261384
        14        13        12        28     9        0.000000        0.909863         3    ;  uncertainty k = 0.130330
        14        13        12        28     9      180.000000       -0.357798         4    ;  uncertainty k = 0.054364
        14        13        12        29     9        0.000000       -1.722473         1    ;  uncertainty k = 0.401919
        14        13        12        29     9      180.000000       -0.542288         2    ;  uncertainty k = 0.261384
        14        13        12        29     9        0.000000        0.909863         3    ;  uncertainty k = 0.130330
        14        13        12        29     9      180.000000       -0.357798         4    ;  uncertainty k = 0.054364
        14        15        16        17     9        0.000000        0.454263         1    ;  uncertainty k = 0.408854
        14        15        16        17     9      180.000000        6.978256         2    ;  uncertainty k = 0.104983
        14        15        16        17     9        0.000000        0.612483         3    ;  uncertainty k = 0.094432
        14        15        16        17     9      180.000000        0.201902         4    ;  uncertainty k = 0.034340
        14        15        16        23     9        0.000000        0.994549         1    ;  uncertainty k = 0.434399
        14        15        16        23     9      180.000000        7.033604         2    ;  uncertainty k = 0.119628
        14        15        16        23     9        0.000000        0.700462         3    ;  uncertainty k = 0.095968
        14        15        16        23     9      180.000000        0.183241         4    ;  uncertainty k = 0.036361
        15        14        13        30     9        0.000000        0.252324         1    ;  uncertainty k = 0.546753
        15        14        13        30     9      180.000000       -2.139395         2    ;  uncertainty k = 0.273196
        15        14        13        30     9        0.000000        1.417025         3    ;  uncertainty k = 0.099728
        15        14        13        30     9      180.000000        0.041653         4    ;  uncertainty k = 0.069324
        15        14        13        31     9        0.000000        0.252324         1    ;  uncertainty k = 0.546753
        15        14        13        31     9      180.000000       -2.139395         2    ;  uncertainty k = 0.273196
        15        14        13        31     9        0.000000        1.417025         3    ;  uncertainty k = 0.099728
        15        14        13        31     9      180.000000        0.041653         4    ;  uncertainty k = 0.069324
        15        16        17        18     9        0.000000       -0.015216         1    ;  uncertainty k = 0.276894
        15        16        17        18     9      180.000000       10.118111         2    ;  uncertainty k = 0.497195
        15        16        17        18     9        0.000000        1.169777         3    ;  uncertainty k = 0.329691
        15        16        17        18     9      180.000000        1.632726         4    ;  uncertainty k = 0.200129
        15        16        17        34     9        0.000000       -0.265145         1    ;  uncertainty k = 0.297305
        15        16        17        34     9      180.000000        8.584295         2    ;  uncertainty k = 0.267172
        15        16        17        34     9        0.000000        0.675391         3    ;  uncertainty k = 0.113760
        15        16        17        34     9      180.000000        1.035235         4    ;  uncertainty k = 0.214005
        15        16        23        22     9        0.000000        0.075250         1    ;  uncertainty k = 0.259205
        15        16        23        22     9      180.000000       10.529195         2    ;  uncertainty k = 0.494111
        15        16        23        22     9        0.000000        1.188790         3    ;  uncertainty k = 0.233826
        15        16        23        22     9      180.000000        1.632322         4    ;  uncertainty k = 0.146629
        15        16        23        38     9        0.000000       -0.228334         1    ;  uncertainty k = 0.219821
        15        16        23        38     9      180.000000        8.359245         2    ;  uncertainty k = 0.333331
        15        16        23        38     9        0.000000        0.697218         3    ;  uncertainty k = 0.139643
        15        16        23        38     9      180.000000        1.017357         4    ;  uncertainty k = 0.212753
        16        15        14        32     9        0.000000        0.628241         1    ;  uncertainty k = 0.426528
        16        15        14        32     9      180.000000       -1.190475         2    ;  uncertainty k = 0.124746
        16        15        14        32     9        0.000000        0.543551         3    ;  uncertainty k = 0.049593
        16        15        14        32     9      180.000000        0.259489         4    ;  uncertainty k = 0.055277
        16        15        14        33     9        0.000000        0.628241         1    ;  uncertainty k = 0.426528
        16        15        14        33     9      180.000000       -1.190475         2    ;  uncertainty k = 0.124746
        16        15        14        33     9        0.000000        0.543551         3    ;  uncertainty k = 0.049593
        16        15        14        33     9      180.000000        0.259489         4    ;  uncertainty k = 0.055277
        16        17        18        19     9        0.000000        0.146448         1    ;  uncertainty k = 0.130585
        16        17        18        19     9      180.000000       10.388139         2    ;  uncertainty k = 0.459564
        16        17        18        19     9        0.000000        1.339140         3    ;  uncertainty k = 0.241056
        16        17        18        19     9      180.000000        1.763809         4    ;  uncertainty k = 0.129544
        16        17        18        20     9        0.000000       -0.038794         1    ;  uncertainty k = 0.217431
        16        17        18        20     9      180.000000       11.528164         2    ;  uncertainty k = 0.331096
        16        17        18        20     9        0.000000        0.173026         3    ;  uncertainty k = 0.337089
        16        17        18        20     9      180.000000        1.146418         4    ;  uncertainty k = 0.239514
        16        23        22        20     9        0.000000       -0.129296         1    ;  uncertainty k = 0.258528
        16        23        22        20     9      180.000000       14.468275         2    ;  uncertainty k = 0.287830
        16        23        22        20     9        0.000000       -0.784637         3    ;  uncertainty k = 0.527807
        16        23        22        20     9      180.000000        0.826354         4    ;  uncertainty k = 0.321924
        16        23        22        39     9        0.000000        0.033863         1    ;  uncertainty k = 0.228268
        16        23        22        39     9      180.000000        7.872633         2    ;  uncertainty k = 0.333425
        16        23        22        39     9        0.000000        1.339326         3    ;  uncertainty k = 0.305860
        16        23        22        39     9      180.000000        1.774294         4    ;  uncertainty k = 0.156406
        17        16        23        22     9        0.000000       -0.039246         1    ;  uncertainty k = 0.104061
        17        16        23        22     9      180.000000        9.343732         2    ;  uncertainty k = 0.552851
        17        16        23        22     9        0.000000       -0.098593         3    ;  uncertainty k = 0.405704
        17        16        23        22     9      180.000000        1.192268         4    ;  uncertainty k = 0.324816
        17        16        23        38     9        0.000000        0.241317         1    ;  uncertainty k = 0.260604
        17        16        23        38     9      180.000000        6.127600         2    ;  uncertainty k = 0.601185
        17        16        23        38     9        0.000000        1.472990         3    ;  uncertainty k = 0.317273
        17        16        23        38     9      180.000000        1.579916         4    ;  uncertainty k = 0.102141
        17        18        19        35     9        0.000000        0.096999         1    ;  uncertainty k = 0.207397
        17        18        19        35     9      180.000000        1.756141         2    ;  uncertainty k = 0.077858
        17        18        19        35     9        0.000000        0.222574         3    ;  uncertainty k = 0.083022
        17        18        19        35     9      180.000000        0.218643         4    ;  uncertainty k = 0.028725
        17        18        19        36     9        0.000000        0.096999         1    ;  uncertainty k = 0.207397
        17        18        19        36     9      180.000000        1.756141         2    ;  uncertainty k = 0.077858
        17        18        19        36     9        0.000000        0.222574         3    ;  uncertainty k = 0.083022
        17        18        19        36     9      180.000000        0.218643         4    ;  uncertainty k = 0.028725
        17        18        19        37     9        0.000000        0.096999         1    ;  uncertainty k = 0.207397
        17        18        19        37     9      180.000000        1.756141         2    ;  uncertainty k = 0.077858
        17        18        19        37     9        0.000000        0.222574         3    ;  uncertainty k = 0.083022
        17        18        19        37     9      180.000000        0.218643         4    ;  uncertainty k = 0.028725
        17        18        20        21     9        0.000000        0.072646         1    ;  uncertainty k = 0.078163
        17        18        20        21     9      180.000000        8.761529         2    ;  uncertainty k = 0.552983
        17        18        20        21     9        0.000000        1.495073         3    ;  uncertainty k = 0.360180
        17        18        20        21     9      180.000000        1.515253         4    ;  uncertainty k = 0.174686
        17        18        20        22     9        0.000000       -0.187021         1    ;  uncertainty k = 0.184237
        17        18        20        22     9      180.000000        7.660986         2    ;  uncertainty k = 0.769636
        17        18        20        22     9        0.000000        0.242168         3    ;  uncertainty k = 0.567484
        17        18        20        22     9      180.000000        1.133333         4    ;  uncertainty k = 0.474071
        18        17        16        23     9        0.000000       -0.096387         1    ;  uncertainty k = 0.205212
        18        17        16        23     9      180.000000        8.460155         2    ;  uncertainty k = 0.558298
        18        17        16        23     9        0.000000        0.121372         3    ;  uncertainty k = 0.430508
        18        17        16        23     9      180.000000        1.258040         4    ;  uncertainty k = 0.327180
        18        20        22        23     9        0.000000        0.093016         1    ;  uncertainty k = 0.176449
        18        20        22        23     9      180.000000        9.485266         2    ;  uncertainty k = 0.443358
        18        20        22        23     9        0.000000        0.064355         3    ;  uncertainty k = 0.452911
        18        20        22        23     9      180.000000        1.238090         4    ;  uncertainty k = 0.273377
        18        20        22        39     9        0.000000        0.017422         1    ;  uncertainty k = 0.198039
        18        20        22        39     9      180.000000        5.908701         2    ;  uncertainty k = 0.681413
        18        20        22        39     9        0.000000        1.402705         3    ;  uncertainty k = 0.332303
        18        20        22        39     9      180.000000        1.501343         4    ;  uncertainty k = 0.147712
        19        18        17        34     9        0.000000       -0.254081         1    ;  uncertainty k = 0.220525
        19        18        17        34     9      180.000000        8.385790         2    ;  uncertainty k = 0.234804
        19        18        17        34     9        0.000000        0.507913         3    ;  uncertainty k = 0.325685
        19        18        17        34     9      180.000000        1.010066         4    ;  uncertainty k = 0.177059
        19        18        20        21     9        0.000000       -0.125413         1    ;  uncertainty k = 0.278230
        19        18        20        21     9      180.000000        8.966499         2    ;  uncertainty k = 0.334696
        19        18        20        21     9        0.000000        1.013206         3    ;  uncertainty k = 0.262986
        19        18        20        21     9      180.000000        1.197231         4    ;  uncertainty k = 0.293531
        19        18        20        22     9        0.000000        0.344918         1    ;  uncertainty k = 0.241091
        19        18        20        22     9      180.000000        7.079855         2    ;  uncertainty k = 0.308176
        19        18        20        22     9        0.000000        1.262900         3    ;  uncertainty k = 0.184123
        19        18        20        22     9      180.000000        1.670628         4    ;  uncertainty k = 0.223811
        20        18        17        34     9        0.000000        0.258210         1    ;  uncertainty k = 0.135898
        20        18        17        34     9      180.000000        7.558995         2    ;  uncertainty k = 0.255264
        20        18        17        34     9        0.000000        1.662808         3    ;  uncertainty k = 0.336442
        20        18        17        34     9      180.000000        1.769724         4    ;  uncertainty k = 0.131595
        20        18        19        35     9        0.000000       -0.175720         1    ;  uncertainty k = 0.379228
        20        18        19        35     9      180.000000        2.215294         2    ;  uncertainty k = 0.228754
        20        18        19        35     9        0.000000        0.540843         3    ;  uncertainty k = 0.051540
        20        18        19        35     9      180.000000        0.360095         4    ;  uncertainty k = 0.047196
        20        18        19        36     9        0.000000       -0.175720         1    ;  uncertainty k = 0.379228
        20        18        19        36     9      180.000000        2.215294         2    ;  uncertainty k = 0.228754
        20        18        19        36     9        0.000000        0.540843         3    ;  uncertainty k = 0.051540
        20        18        19        36     9      180.000000        0.360095         4    ;  uncertainty k = 0.047196
        20        18        19        37     9        0.000000       -0.175720         1    ;  uncertainty k = 0.379228
        20        18        19        37     9      180.000000        2.215294         2    ;  uncertainty k = 0.228754
        20        18        19        37     9        0.000000        0.540843         3    ;  uncertainty k = 0.051540
        20        18        19        37     9      180.000000        0.360095         4    ;  uncertainty k = 0.047196
        20        22        23        38     9        0.000000        0.075748         1    ;  uncertainty k = 0.107255
        20        22        23        38     9      180.000000        7.959031         2    ;  uncertainty k = 0.348672
        20        22        23        38     9        0.000000        1.510773         3    ;  uncertainty k = 0.261710
        20        22        23        38     9      180.000000        1.877223         4    ;  uncertainty k = 0.151031
        21        20        22        23     9        0.000000       -0.031230         1    ;  uncertainty k = 0.220761
        21        20        22        23     9      180.000000        9.639538         2    ;  uncertainty k = 0.541210
        21        20        22        23     9        0.000000        1.524864         3    ;  uncertainty k = 0.435745
        21        20        22        23     9      180.000000        1.663662         4    ;  uncertainty k = 0.170560
        21        20        22        39     9        0.000000       -0.193788         1    ;  uncertainty k = 0.194282
        21        20        22        39     9      180.000000        7.473303         2    ;  uncertainty k = 0.366069
        21        20        22        39     9        0.000000        0.677307         3    ;  uncertainty k = 0.298538
        21        20        22        39     9      180.000000        1.032933         4    ;  uncertainty k = 0.213982
        23        16        17        34     9        0.000000        0.251552         1    ;  uncertainty k = 0.316339
        23        16        17        34     9      180.000000        6.206325         2    ;  uncertainty k = 0.513480
        23        16        17        34     9        0.000000        1.481480         3    ;  uncertainty k = 0.337671
        23        16        17        34     9      180.000000        1.616456         4    ;  uncertainty k = 0.093730
        24         6         5        40     9        0.000000        0.224887         1    ;  uncertainty k = 0.306718
        24         6         5        40     9      180.000000        6.236556         2    ;  uncertainty k = 0.501249
        24         6         5        40     9        0.000000        1.249387         3    ;  uncertainty k = 0.337960
        24         6         5        40     9      180.000000        0.813904         4    ;  uncertainty k = 0.407019
        24         6         7        25     9        0.000000        0.094338         1    ;  uncertainty k = 0.266028
        24         6         7        25     9      180.000000        7.807277         2    ;  uncertainty k = 0.236932
        24         6         7        25     9        0.000000       -0.244407         3    ;  uncertainty k = 0.229057
        24         6         7        25     9      180.000000        0.102639         4    ;  uncertainty k = 0.138000
        25         7         8        26     9        0.000000        0.038456         1    ;  uncertainty k = 0.238884
        25         7         8        26     9      180.000000        7.093076         2    ;  uncertainty k = 0.510622
        25         7         8        26     9        0.000000       -0.282843         3    ;  uncertainty k = 0.149150
        25         7         8        26     9      180.000000        0.099831         4    ;  uncertainty k = 0.148467
        26         8         9        27     9        0.000000       -0.229385         1    ;  uncertainty k = 0.318215
        26         8         9        27     9      180.000000        8.439204         2    ;  uncertainty k = 0.374255
        26         8         9        27     9        0.000000        0.882243         3    ;  uncertainty k = 0.348046
        26         8         9        27     9      180.000000        1.095457         4    ;  uncertainty k = 0.343150
        28        12        13        30     9        0.000000        0.834197         1    ;  uncertainty k = 0.168068
        28        12        13        30     9      180.000000       -0.646354         2    ;  uncertainty k = 0.247472
        28        12        13        30     9        0.000000        0.212641         3    ;  uncertainty k = 0.055772
        28        12        13        30     9      180.000000        0.011023         4    ;  uncertainty k = 0.040687
        28        12        13        31     9        0.000000        0.834197         1    ;  uncertainty k = 0.168068
        28        12        13        31     9      180.000000       -0.646354         2    ;  uncertainty k = 0.247472
        28        12        13        31     9        0.000000        0.212641         3    ;  uncertainty k = 0.055772
        28        12        13        31     9      180.000000        0.011023         4    ;  uncertainty k = 0.040687
        29        12        13        30     9        0.000000        0.834197         1    ;  uncertainty k = 0.168068
        29        12        13        30     9      180.000000       -0.646354         2    ;  uncertainty k = 0.247472
        29        12        13        30     9        0.000000        0.212641         3    ;  uncertainty k = 0.055772
        29        12        13        30     9      180.000000        0.011023         4    ;  uncertainty k = 0.040687
        29        12        13        31     9        0.000000        0.834197         1    ;  uncertainty k = 0.168068
        29        12        13        31     9      180.000000       -0.646354         2    ;  uncertainty k = 0.247472
        29        12        13        31     9        0.000000        0.212641         3    ;  uncertainty k = 0.055772
        29        12        13        31     9      180.000000        0.011023         4    ;  uncertainty k = 0.040687
        30        13        14        32     9        0.000000        0.461039         1    ;  uncertainty k = 0.142816
        30        13        14        32     9      180.000000       -0.427775         2    ;  uncertainty k = 0.141329
        30        13        14        32     9        0.000000        0.095542         3    ;  uncertainty k = 0.073246
        30        13        14        32     9      180.000000       -0.037844         4    ;  uncertainty k = 0.076606
        30        13        14        33     9        0.000000        0.461039         1    ;  uncertainty k = 0.142816
        30        13        14        33     9      180.000000       -0.427775         2    ;  uncertainty k = 0.141329
        30        13        14        33     9        0.000000        0.095542         3    ;  uncertainty k = 0.073246
        30        13        14        33     9      180.000000       -0.037844         4    ;  uncertainty k = 0.076606
        31        13        14        32     9        0.000000        0.461039         1    ;  uncertainty k = 0.142816
        31        13        14        32     9      180.000000       -0.427775         2    ;  uncertainty k = 0.141329
        31        13        14        32     9        0.000000        0.095542         3    ;  uncertainty k = 0.073246
        31        13        14        32     9      180.000000       -0.037844         4    ;  uncertainty k = 0.076606
        31        13        14        33     9        0.000000        0.461039         1    ;  uncertainty k = 0.142816
        31        13        14        33     9      180.000000       -0.427775         2    ;  uncertainty k = 0.141329
        31        13        14        33     9        0.000000        0.095542         3    ;  uncertainty k = 0.073246
        31        13        14        33     9      180.000000       -0.037844         4    ;  uncertainty k = 0.076606
        38        23        22        39     9        0.000000       -0.039053         1    ;  uncertainty k = 0.206736
        38        23        22        39     9      180.000000        7.629289         2    ;  uncertainty k = 0.429603
        38        23        22        39     9        0.000000       -0.402720         3    ;  uncertainty k = 0.196839
        38        23        22        39     9      180.000000        0.119580         4    ;  uncertainty k = 0.138791

[ dihedrals ] ; impropers
;       ai        aj        ak        al funct           phase               k        pn
         2         1         3         4     4      180.000000       64.497630         2    ;  uncertainty k = 0.048415
         2         3         4         1     4      180.000000       64.497630         2    ;  uncertainty k = 0.048415
         2         4         1         3     4      180.000000       64.497630         2    ;  uncertainty k = 0.048415
         4         2        11        40     4      180.000000        6.060064         2    ;  uncertainty k = 0.506706
         4        11        40         2     4      180.000000        6.060064         2    ;  uncertainty k = 0.506706
         4        40         2        11     4      180.000000        6.060064         2    ;  uncertainty k = 0.506706
         5         6        10        40     4      180.000000        1.598348         2    ;  uncertainty k = 0.743403
         5        10        40         6     4      180.000000        1.598348         2    ;  uncertainty k = 0.743403
         5        40         6        10     4      180.000000        1.598348         2    ;  uncertainty k = 0.743403
         6         5         7        24     4      180.000000        2.396500         2    ;  uncertainty k = 0.126340
         6         7        24         5     4      180.000000        2.396500         2    ;  uncertainty k = 0.126340
         6        24         5         7     4      180.000000        2.396500         2    ;  uncertainty k = 0.126340
         7         6         8        25     4      180.000000        3.867553         2    ;  uncertainty k = 0.140310
         7         8        25         6     4      180.000000        3.867553         2    ;  uncertainty k = 0.140310
         7        25         6         8     4      180.000000        3.867553         2    ;  uncertainty k = 0.140310
         8         7         9        26     4      180.000000        2.212697         2    ;  uncertainty k = 0.189570
         8         9        26         7     4      180.000000        2.212697         2    ;  uncertainty k = 0.189570
         8        26         7         9     4      180.000000        2.212697         2    ;  uncertainty k = 0.189570
         9         8        10        27     4      180.000000       11.790180         2    ;  uncertainty k = 0.175968
         9        10        27         8     4      180.000000       11.790180         2    ;  uncertainty k = 0.175968
         9        27         8        10     4      180.000000       11.790180         2    ;  uncertainty k = 0.175968
        11         4        10        12     4      180.000000        2.502940         2    ;  uncertainty k = 0.510887
        11        10        12         4     4      180.000000        2.502940         2    ;  uncertainty k = 0.510887
        11        12         4        10     4      180.000000        2.502940         2    ;  uncertainty k = 0.510887
        16        15        17        23     4      180.000000       19.360038         2    ;  uncertainty k = 0.059663
        16        17        23        15     4      180.000000       19.360038         2    ;  uncertainty k = 0.059663
        16        23        15        17     4      180.000000       19.360038         2    ;  uncertainty k = 0.059663
        17        16        18        34     4      180.000000        2.085771         2    ;  uncertainty k = 0.412817
        17        18        34        16     4      180.000000        2.085771         2    ;  uncertainty k = 0.412817
        17        34        16        18     4      180.000000        2.085771         2    ;  uncertainty k = 0.412817
        18        17        19        20     4      180.000000       15.530779         2    ;  uncertainty k = 0.052128
        18        19        20        17     4      180.000000       15.530779         2    ;  uncertainty k = 0.052128
        18        20        17        19     4      180.000000       15.530779         2    ;  uncertainty k = 0.052128
        20        18        21        22     4      180.000000       11.545500         2    ;  uncertainty k = 0.110955
        20        21        22        18     4      180.000000       11.545500         2    ;  uncertainty k = 0.110955
        20        22        18        21     4      180.000000       11.545500         2    ;  uncertainty k = 0.110955
        22        20        23        39     4      180.000000        3.995830         2    ;  uncertainty k = 0.121106
        22        23        39        20     4      180.000000        3.995830         2    ;  uncertainty k = 0.121106
        22        39        20        23     4      180.000000        3.995830         2    ;  uncertainty k = 0.121106
        23        16        22        38     4      180.000000        2.139012         2    ;  uncertainty k = 0.341018
        23        22        38        16     4      180.000000        2.139012         2    ;  uncertainty k = 0.341018
        23        38        16        22     4      180.000000        2.139012         2    ;  uncertainty k = 0.341018

[ pairs ]
;       ai        aj funct
         1        11     1
         1        40     1
         2         5     1
         2        10     1
         2        12     1
         2        41     1
         3        11     1
         3        40     1
         4         6     1
         4         9     1
         4        13     1
         4        28     1
         4        29     1
         5         8     1
         5        12     1
         5        25     1
         5        27     1
         6         9     1
         6        11     1
         6        26     1
         6        41     1
         7        10     1
         7        27     1
         7        40     1
         8        11     1
         8        24     1
         9        12     1
         9        25     1
         9        40     1
        10        13     1
        10        24     1
        10        26     1
        10        28     1
        10        29     1
        10        41     1
        11        14     1
        11        27     1
        11        30     1
        11        31     1
        11        41     1
        12        15     1
        12        32     1
        12        33     1
        12        40     1
        13        16     1
        14        17     1
        14        23     1
        14        28     1
        14        29     1
        15        18     1
        15        22     1
        15        30     1
        15        31     1
        15        34     1
        15        38     1
        16        19     1
        16        20     1
        16        32     1
        16        33     1
        16        39     1
        17        21     1
        17        22     1
        17        35     1
        17        36     1
        17        37     1
        17        38     1
        18        23     1
        18        39     1
        19        21     1
        19        22     1
        19        34     1
        20        34     1
        20        35     1
        20        36     1
        20        37     1
        20        38     1
        21        23     1
        21        39     1
        23        34     1
        24        25     1
        24        40     1
        25        26     1
        26        27     1
        28        30     1
        28        31     1
        29        30     1
        29        31     1
        30        32     1
        30        33     1
        31        32     1
        31        33     1
        38        39     1
