; ITP file created by ByteFF-joint-25, 2026-02-17 09:14:58.697452

[ atomtypes ]
;name           bonded.type        at.num        mass        charge   ptype           sigma         epsilon
 o0bf                                   8      0.0000       0.00000       A     3.04807e-01     6.12065e-01    ;  uncertainty sigma = 0.000018, epsilon = 0.000616
 c1bf                                   6      0.0000       0.00000       A     3.31436e-01     4.13701e-01    ;  uncertainty sigma = 0.000034, epsilon = 0.002275
 o2bf                                   8      0.0000       0.00000       A     3.04807e-01     6.12065e-01    ;  uncertainty sigma = 0.000018, epsilon = 0.000616
 c3bf                                   6      0.0000       0.00000       A     3.31527e-01     4.12548e-01    ;  uncertainty sigma = 0.000053, epsilon = 0.002675
 c4bf                                   6      0.0000       0.00000       A     3.31560e-01     4.13556e-01    ;  uncertainty sigma = 0.000010, epsilon = 0.001311
 c5bf                                   6      0.0000       0.00000       A     3.31519e-01     4.13255e-01    ;  uncertainty sigma = 0.000008, epsilon = 0.000683
 c6bf                                   6      0.0000       0.00000       A     3.31519e-01     4.12976e-01    ;  uncertainty sigma = 0.000007, epsilon = 0.000655
 c7bf                                   6      0.0000       0.00000       A     3.31526e-01     4.13517e-01    ;  uncertainty sigma = 0.000006, epsilon = 0.000537
 c8bf                                   6      0.0000       0.00000       A     3.31521e-01     4.13067e-01    ;  uncertainty sigma = 0.000006, epsilon = 0.000537
 c9bf                                   6      0.0000       0.00000       A     3.31541e-01     4.12986e-01    ;  uncertainty sigma = 0.000008, epsilon = 0.001296
 c10bf                                  6      0.0000       0.00000       A     3.31576e-01     4.13309e-01    ;  uncertainty sigma = 0.000008, epsilon = 0.001192
 c11bf                                  6      0.0000       0.00000       A     3.39773e-01     4.50718e-01    ;  uncertainty sigma = 0.000020, epsilon = 0.000757
 c12bf                                  6      0.0000       0.00000       A     3.39755e-01     4.50608e-01    ;  uncertainty sigma = 0.000006, epsilon = 0.000953
 c13bf                                  6      0.0000       0.00000       A     3.39779e-01     4.50532e-01    ;  uncertainty sigma = 0.000006, epsilon = 0.000794
 o14bf                                  8      0.0000       0.00000       A     3.15616e-01     3.03468e-01    ;  uncertainty sigma = 0.000013, epsilon = 0.000483
 c15bf                                  6      0.0000       0.00000       A     3.31524e-01     4.13343e-01    ;  uncertainty sigma = 0.000005, epsilon = 0.000620
 c16bf                                  6      0.0000       0.00000       A     3.31522e-01     4.13168e-01    ;  uncertainty sigma = 0.000005, epsilon = 0.000798
 c17bf                                  6      0.0000       0.00000       A     3.31520e-01     4.13169e-01    ;  uncertainty sigma = 0.000006, epsilon = 0.000471
 c18bf                                  6      0.0000       0.00000       A     3.39773e-01     4.51051e-01    ;  uncertainty sigma = 0.000004, epsilon = 0.000502
 c19bf                                  6      0.0000       0.00000       A     3.31532e-01     4.13368e-01    ;  uncertainty sigma = 0.000007, epsilon = 0.000499
 cl20bf                                17      0.0000       0.00000       A     3.46651e-01     1.10482e+00    ;  uncertainty sigma = 0.000010, epsilon = 0.001219
 c21bf                                  6      0.0000       0.00000       A     3.31524e-01     4.13446e-01    ;  uncertainty sigma = 0.000004, epsilon = 0.000673
 c22bf                                  6      0.0000       0.00000       A     3.31514e-01     4.13350e-01    ;  uncertainty sigma = 0.000004, epsilon = 0.000670
 h23bf                                  1      0.0000       0.00000       A     2.62565e-01     6.69191e-02    ;  uncertainty sigma = 0.000013, epsilon = 0.000578
 cl24bf                                17      0.0000       0.00000       A     3.46614e-01     1.10425e+00    ;  uncertainty sigma = 0.000017, epsilon = 0.000933
 h25bf                                  1      0.0000       0.00000       A     2.62555e-01     6.70490e-02    ;  uncertainty sigma = 0.000009, epsilon = 0.000697
 h26bf                                  1      0.0000       0.00000       A     2.62563e-01     6.69243e-02    ;  uncertainty sigma = 0.000010, epsilon = 0.000447
 h27bf                                  1      0.0000       0.00000       A     2.60038e-01     8.64862e-02    ;  uncertainty sigma = 0.000012, epsilon = 0.000717
 h28bf                                  1      0.0000       0.00000       A     2.60038e-01     8.64862e-02    ;  uncertainty sigma = 0.000012, epsilon = 0.000717
 h29bf                                  1      0.0000       0.00000       A     2.60032e-01     8.63750e-02    ;  uncertainty sigma = 0.000011, epsilon = 0.000877
 h30bf                                  1      0.0000       0.00000       A     2.60032e-01     8.63750e-02    ;  uncertainty sigma = 0.000011, epsilon = 0.000877
 h31bf                                  1      0.0000       0.00000       A     2.42190e-01     8.69771e-02    ;  uncertainty sigma = 0.000031, epsilon = 0.000462
 h32bf                                  1      0.0000       0.00000       A     2.42190e-01     8.69771e-02    ;  uncertainty sigma = 0.000031, epsilon = 0.000462
 h33bf                                  1      0.0000       0.00000       A     2.62561e-01     6.71446e-02    ;  uncertainty sigma = 0.000003, epsilon = 0.000531
 h34bf                                  1      0.0000       0.00000       A     2.60030e-01     8.67435e-02    ;  uncertainty sigma = 0.000006, epsilon = 0.000502
 h35bf                                  1      0.0000       0.00000       A     2.60030e-01     8.67435e-02    ;  uncertainty sigma = 0.000006, epsilon = 0.000502
 h36bf                                  1      0.0000       0.00000       A     2.60030e-01     8.67435e-02    ;  uncertainty sigma = 0.000006, epsilon = 0.000502
 h37bf                                  1      0.0000       0.00000       A     2.62556e-01     6.70982e-02    ;  uncertainty sigma = 0.000004, epsilon = 0.000469
 h38bf                                  1      0.0000       0.00000       A     2.62570e-01     6.70306e-02    ;  uncertainty sigma = 0.000011, epsilon = 0.000584
 n39bf                                  7      0.0000       0.00000       A     3.20741e-01     8.51726e-01    ;  uncertainty sigma = 0.000058, epsilon = 0.002271
 h40bf                                  1      0.0000       0.00000       A     1.10620e-01     4.09733e-02    ;  uncertainty sigma = 0.000138, epsilon = 0.001729

[ moleculetype ]
;name             nrexcl
 MOL                   3

[ atoms ]
;       nr            type      resi   res      atom      cgnr      charge          mass ; qtot
         1            o0bf         1   UNL        o0         1    -0.82702       15.9990 ; qtot   -0.827
         2            c1bf         1   UNL        c1         2     0.92126       12.0110 ; qtot    0.094
         3            o2bf         1   UNL        o2         3    -0.82702       15.9990 ; qtot   -0.733
         4            c3bf         1   UNL        c3         4    -0.10678       12.0110 ; qtot   -0.840
         5            c4bf         1   UNL        c4         5    -0.06373       12.0110 ; qtot   -0.903
         6            c5bf         1   UNL        c5         6    -0.15579       12.0110 ; qtot   -1.059
         7            c6bf         1   UNL        c6         7     0.05207       12.0110 ; qtot   -1.007
         8            c7bf         1   UNL        c7         8    -0.15099       12.0110 ; qtot   -1.158
         9            c8bf         1   UNL        c8         9    -0.08499       12.0110 ; qtot   -1.243
        10            c9bf         1   UNL        c9        10    -0.09888       12.0110 ; qtot   -1.342
        11           c10bf         1   UNL       c10        11    -0.18363       12.0110 ; qtot   -1.525
        12           c11bf         1   UNL       c11        12    -0.00834       12.0110 ; qtot   -1.534
        13           c12bf         1   UNL       c12        13    -0.09601       12.0110 ; qtot   -1.630
        14           c13bf         1   UNL       c13        14     0.13818       12.0110 ; qtot   -1.492
        15           o14bf         1   UNL       o14        15    -0.33405       15.9990 ; qtot   -1.826
        16           c15bf         1   UNL       c15        16     0.14313       12.0110 ; qtot   -1.683
        17           c16bf         1   UNL       c16        17    -0.18177       12.0110 ; qtot   -1.864
        18           c17bf         1   UNL       c17        18    -0.03175       12.0110 ; qtot   -1.896
        19           c18bf         1   UNL       c18        19    -0.04894       12.0110 ; qtot   -1.945
        20           c19bf         1   UNL       c19        20     0.00823       12.0110 ; qtot   -1.937
        21          cl20bf         1   UNL      cl20        21    -0.12527       35.4530 ; qtot   -2.062
        22           c21bf         1   UNL       c21        22    -0.08474       12.0110 ; qtot   -2.147
        23           c22bf         1   UNL       c22        23    -0.18491       12.0110 ; qtot   -2.332
        24           h23bf         1   UNL       h23        24     0.15057        1.0080 ; qtot   -2.181
        25          cl24bf         1   UNL      cl24        25    -0.12544       35.4530 ; qtot   -2.307
        26           h25bf         1   UNL       h25        26     0.14723        1.0080 ; qtot   -2.159
        27           h26bf         1   UNL       h26        27     0.13951        1.0080 ; qtot   -2.020
        28           h27bf         1   UNL       h27        28     0.04354        1.0080 ; qtot   -1.976
        29           h28bf         1   UNL       h28        29     0.04354        1.0080 ; qtot   -1.933
        30           h29bf         1   UNL       h29        30     0.05420        1.0080 ; qtot   -1.879
        31           h30bf         1   UNL       h30        31     0.05420        1.0080 ; qtot   -1.824
        32           h31bf         1   UNL       h31        32     0.04465        1.0080 ; qtot   -1.780
        33           h32bf         1   UNL       h32        33     0.04465        1.0080 ; qtot   -1.735
        34           h33bf         1   UNL       h33        34     0.14483        1.0080 ; qtot   -1.590
        35           h34bf         1   UNL       h34        35     0.05199        1.0080 ; qtot   -1.538
        36           h35bf         1   UNL       h35        36     0.05199        1.0080 ; qtot   -1.486
        37           h36bf         1   UNL       h36        37     0.05199        1.0080 ; qtot   -1.434
        38           h37bf         1   UNL       h37        38     0.14726        1.0080 ; qtot   -1.287
        39           h38bf         1   UNL       h38        39     0.15074        1.0080 ; qtot   -1.136
        40           n39bf         1   UNL       n39        40    -0.18324       14.0070 ; qtot   -1.320
        41           h40bf         1   UNL       h40        41     0.31953        1.0080 ; qtot   -1.000

[ bonds ]
;       ai        aj funct               r               k
         1         2     1        0.126489   553283.027930    ;  uncertainty r = 0.000115, k = 9.491850
         2         3     1        0.126489   553283.027930    ;  uncertainty r = 0.000115, k = 9.491850
         2         4     1        0.152875   178456.895508    ;  uncertainty r = 0.000109, k = 53.157114
         4        11     1        0.138845   388969.962598    ;  uncertainty r = 0.000116, k = 35.597340
         4        40     1        0.138475   296987.695117    ;  uncertainty r = 0.000099, k = 17.813841
         5         6     1        0.139889   365741.739893    ;  uncertainty r = 0.000039, k = 4.071350
         5        10     1        0.143412   339543.066162    ;  uncertainty r = 0.000145, k = 12.038838
         5        40     1        0.136982   317773.267773    ;  uncertainty r = 0.000100, k = 14.978693
         6         7     1        0.138957   366617.279687    ;  uncertainty r = 0.000032, k = 3.874136
         6        24     1        0.108807   337836.395605    ;  uncertainty r = 0.000016, k = 1.377546
         7         8     1        0.141030   343107.612500    ;  uncertainty r = 0.000048, k = 4.796355
         7        25     1        0.176152   194960.712109    ;  uncertainty r = 0.000053, k = 3.045004
         8         9     1        0.139057   370700.025049    ;  uncertainty r = 0.000046, k = 1.449885
         8        26     1        0.108691   336354.834668    ;  uncertainty r = 0.000013, k = 1.485272
         9        10     1        0.140611   364939.185156    ;  uncertainty r = 0.000072, k = 9.340026
         9        27     1        0.108763   336330.753174    ;  uncertainty r = 0.000023, k = 1.613805
        10        11     1        0.143897   248284.290527    ;  uncertainty r = 0.000116, k = 21.377139
        11        12     1        0.150056   234448.846484    ;  uncertainty r = 0.000153, k = 11.938058
        12        13     1        0.153885   206360.273438    ;  uncertainty r = 0.000103, k = 7.147645
        12        28     1        0.109683   309037.278027    ;  uncertainty r = 0.000026, k = 1.364440
        12        29     1        0.109683   309037.278027    ;  uncertainty r = 0.000026, k = 1.364440
        13        14     1        0.152189   210087.899756    ;  uncertainty r = 0.000032, k = 1.940794
        13        30     1        0.109664   307643.385986    ;  uncertainty r = 0.000028, k = 1.424205
        13        31     1        0.109664   307643.385986    ;  uncertainty r = 0.000028, k = 1.424205
        14        15     1        0.142377   234080.473682    ;  uncertainty r = 0.000037, k = 5.321553
        14        32     1        0.109775   308073.507520    ;  uncertainty r = 0.000024, k = 1.219206
        14        33     1        0.109775   308073.507520    ;  uncertainty r = 0.000024, k = 1.219206
        15        16     1        0.136578   321265.365332    ;  uncertainty r = 0.000024, k = 2.725129
        16        17     1        0.139841   361262.709668    ;  uncertainty r = 0.000040, k = 4.379956
        16        23     1        0.139735   363817.033496    ;  uncertainty r = 0.000038, k = 2.468664
        17        18     1        0.139914   357952.232031    ;  uncertainty r = 0.000032, k = 4.820809
        17        34     1        0.108775   338174.813379    ;  uncertainty r = 0.000019, k = 1.073177
        18        19     1        0.150769   237989.566699    ;  uncertainty r = 0.000024, k = 5.263177
        18        20     1        0.140357   346197.194141    ;  uncertainty r = 0.000049, k = 7.515435
        19        35     1        0.109441   309155.974512    ;  uncertainty r = 0.000006, k = 1.899021
        19        36     1        0.109441   309155.974512    ;  uncertainty r = 0.000006, k = 1.899021
        19        37     1        0.109441   309155.974512    ;  uncertainty r = 0.000006, k = 1.899021
        20        21     1        0.176354   188631.977979    ;  uncertainty r = 0.000045, k = 4.958258
        20        22     1        0.139474   360555.178516    ;  uncertainty r = 0.000022, k = 2.647740
        22        23     1        0.139218   374046.790918    ;  uncertainty r = 0.000023, k = 2.011226
        22        39     1        0.108659   335061.660986    ;  uncertainty r = 0.000022, k = 1.199769
        23        38     1        0.108773   337465.698926    ;  uncertainty r = 0.000017, k = 0.945613
        40        41     1        0.101549   411179.126953    ;  uncertainty r = 0.000183, k = 17.759046

[ angles ]
;       ai        aj        ak funct           theta             cth
         1         2         3     1      131.490799      799.912795    ;  uncertainty theta = 0.007122, k = 0.161146
         1         2         4     1      115.643898      409.958868    ;  uncertainty theta = 0.009941, k = 0.278481
         2         4        11     1      129.691666      294.711234    ;  uncertainty theta = 0.010379, k = 0.154711
         2         4        40     1      117.816956      350.011302    ;  uncertainty theta = 0.005885, k = 0.283185
         3         2         4     1      115.643898      409.958868    ;  uncertainty theta = 0.009941, k = 0.278481
         4        11        10     1      107.812889      762.004169    ;  uncertainty theta = 0.003106, k = 0.242600
         4        11        12     1      125.834373      348.251252    ;  uncertainty theta = 0.008524, k = 0.203092
         4        40         5     1      106.536964      868.497362    ;  uncertainty theta = 0.005068, k = 0.152569
         4        40        41     1      118.394211      292.716307    ;  uncertainty theta = 0.016468, k = 0.298070
         5         6         7     1      115.827171      518.040278    ;  uncertainty theta = 0.003492, k = 0.041859
         5         6        24     1      123.183731      289.073119    ;  uncertainty theta = 0.004738, k = 0.055778
         5        10         9     1      116.533630      409.504148    ;  uncertainty theta = 0.003650, k = 0.093253
         5        10        11     1      107.680298      686.903999    ;  uncertainty theta = 0.004451, k = 0.337557
         5        40        41     1      119.551903      280.129513    ;  uncertainty theta = 0.028835, k = 0.297033
         6         5        10     1      121.081505      374.550804    ;  uncertainty theta = 0.002459, k = 0.075742
         6         5        40     1      129.651505      408.069792    ;  uncertainty theta = 0.002617, k = 0.175928
         6         7         8     1      123.793472      385.820841    ;  uncertainty theta = 0.001072, k = 0.061762
         6         7        25     1      120.112892      447.827592    ;  uncertainty theta = 0.001484, k = 0.073053
         7         6        24     1      121.862106      286.885738    ;  uncertainty theta = 0.002089, k = 0.052482
         7         8         9     1      120.766541      501.855114    ;  uncertainty theta = 0.001825, k = 0.092932
         7         8        26     1      119.996506      284.871243    ;  uncertainty theta = 0.001520, k = 0.049182
         8         7        25     1      119.606949      455.838328    ;  uncertainty theta = 0.001749, k = 0.098967
         8         9        10     1      120.068466      543.912977    ;  uncertainty theta = 0.003870, k = 0.060811
         8         9        27     1      119.826920      281.725710    ;  uncertainty theta = 0.002305, k = 0.040072
         9         8        26     1      120.594376      282.541301    ;  uncertainty theta = 0.000615, k = 0.038925
         9        10        11     1      132.171906      358.011631    ;  uncertainty theta = 0.003687, k = 0.090455
        10         5        40     1      107.671371      672.630287    ;  uncertainty theta = 0.004209, k = 0.380428
        10         9        27     1      121.690842      286.882674    ;  uncertainty theta = 0.004249, k = 0.067686
        10        11        12     1      125.230553      364.206934    ;  uncertainty theta = 0.008318, k = 0.211383
        11         4        40     1      110.822342      694.767577    ;  uncertainty theta = 0.003331, k = 0.260411
        11        12        13     1      111.535912      545.701916    ;  uncertainty theta = 0.004629, k = 0.049601
        11        12        28     1      107.023758      409.119878    ;  uncertainty theta = 0.002156, k = 0.076181
        11        12        29     1      107.023758      409.119878    ;  uncertainty theta = 0.002156, k = 0.076181
        12        13        14     1      109.889565      550.105216    ;  uncertainty theta = 0.002846, k = 0.052217
        12        13        30     1      107.780533      395.334819    ;  uncertainty theta = 0.002719, k = 0.061247
        12        13        31     1      107.780533      395.334819    ;  uncertainty theta = 0.002719, k = 0.061247
        13        12        28     1      106.925919      401.104993    ;  uncertainty theta = 0.002530, k = 0.096026
        13        12        29     1      106.925919      401.104993    ;  uncertainty theta = 0.002530, k = 0.096026
        13        14        15     1      109.196335      594.491585    ;  uncertainty theta = 0.001681, k = 0.046631
        13        14        32     1      109.835693      407.619765    ;  uncertainty theta = 0.001604, k = 0.043274
        13        14        33     1      109.835693      407.619765    ;  uncertainty theta = 0.001604, k = 0.043274
        14        13        30     1      106.754715      398.540907    ;  uncertainty theta = 0.001622, k = 0.024398
        14        13        31     1      106.754715      398.540907    ;  uncertainty theta = 0.001622, k = 0.024398
        14        15        16     1      110.111084      506.661357    ;  uncertainty theta = 0.001019, k = 0.040829
        15        14        32     1      106.854492      432.681565    ;  uncertainty theta = 0.001778, k = 0.027280
        15        14        33     1      106.854492      432.681565    ;  uncertainty theta = 0.001778, k = 0.027280
        15        16        17     1      119.766968      428.069307    ;  uncertainty theta = 0.003655, k = 0.049509
        15        16        23     1      120.202042      427.890133    ;  uncertainty theta = 0.003027, k = 0.035792
        16        17        18     1      121.621506      513.423999    ;  uncertainty theta = 0.001523, k = 0.045748
        16        17        34     1      119.270813      271.464804    ;  uncertainty theta = 0.003083, k = 0.025047
        16        23        22     1      118.542885      521.536532    ;  uncertainty theta = 0.001800, k = 0.044731
        16        23        38     1      120.088196      268.856124    ;  uncertainty theta = 0.001351, k = 0.024116
        17        16        23     1      120.825577      386.665545    ;  uncertainty theta = 0.003899, k = 0.085895
        17        18        19     1      120.371811      399.904174    ;  uncertainty theta = 0.001117, k = 0.098171
        17        18        20     1      119.233200      438.726166    ;  uncertainty theta = 0.002518, k = 0.211468
        18        17        34     1      118.361267      273.505474    ;  uncertainty theta = 0.003210, k = 0.098461
        18        19        35     1      109.617088      396.978292    ;  uncertainty theta = 0.000826, k = 0.034200
        18        19        36     1      109.617088      396.978292    ;  uncertainty theta = 0.000826, k = 0.034200
        18        19        37     1      109.617088      396.978292    ;  uncertainty theta = 0.000826, k = 0.034200
        18        20        21     1      118.622452      427.111538    ;  uncertainty theta = 0.001984, k = 0.081578
        18        20        22     1      122.983597      384.569459    ;  uncertainty theta = 0.002449, k = 0.155020
        19        18        20     1      120.487755      406.731680    ;  uncertainty theta = 0.002123, k = 0.155939
        20        22        23     1      120.261963      497.357678    ;  uncertainty theta = 0.001456, k = 0.059849
        20        22        39     1      120.400467      283.600421    ;  uncertainty theta = 0.001473, k = 0.059963
        21        20        22     1      119.541039      450.834523    ;  uncertainty theta = 0.000395, k = 0.082007
        22        23        38     1      120.558937      285.050322    ;  uncertainty theta = 0.001747, k = 0.019534
        23        22        39     1      120.459366      276.352957    ;  uncertainty theta = 0.001967, k = 0.029779
        28        12        29     1      104.532616      313.868120    ;  uncertainty theta = 0.003533, k = 0.064476
        30        13        31     1      105.092697      317.561425    ;  uncertainty theta = 0.002566, k = 0.027591
        32        14        33     1      107.450478      331.956853    ;  uncertainty theta = 0.001998, k = 0.040678
        35        19        36     1      106.795128      316.585907    ;  uncertainty theta = 0.000813, k = 0.021702
        35        19        37     1      106.795128      316.585907    ;  uncertainty theta = 0.000813, k = 0.021702
        36        19        37     1      106.795128      316.585907    ;  uncertainty theta = 0.000813, k = 0.021702

[ dihedrals ] ; propers for gromacs 4.5 or higher, use funct 9
;       ai        aj        ak        al funct           phase               k        pn
         1         2         4        11     9        0.000000       -1.372021         1    ;  uncertainty k = 1.492732
         1         2         4        11     9      180.000000        2.371114         2    ;  uncertainty k = 0.300481
         1         2         4        11     9        0.000000        0.292116         3    ;  uncertainty k = 0.252771
         1         2         4        11     9      180.000000        0.155159         4    ;  uncertainty k = 0.093475
         1         2         4        40     9        0.000000        1.821365         1    ;  uncertainty k = 0.780608
         1         2         4        40     9      180.000000        3.766546         2    ;  uncertainty k = 0.556623
         1         2         4        40     9        0.000000        0.763532         3    ;  uncertainty k = 0.256870
         1         2         4        40     9      180.000000        0.176289         4    ;  uncertainty k = 0.153152
         2         4        11        10     9        0.000000        0.665253         1    ;  uncertainty k = 1.335610
         2         4        11        10     9      180.000000       11.308162         2    ;  uncertainty k = 0.312883
         2         4        11        10     9        0.000000        2.103831         3    ;  uncertainty k = 0.250566
         2         4        11        10     9      180.000000        0.681128         4    ;  uncertainty k = 0.166055
         2         4        11        12     9        0.000000        0.204708         1    ;  uncertainty k = 0.747461
         2         4        11        12     9      180.000000        9.233953         2    ;  uncertainty k = 0.447589
         2         4        11        12     9        0.000000        1.675443         3    ;  uncertainty k = 0.293006
         2         4        11        12     9      180.000000        0.426607         4    ;  uncertainty k = 0.323880
         2         4        40         5     9        0.000000       -0.445876         1    ;  uncertainty k = 2.086438
         2         4        40         5     9      180.000000        6.440230         2    ;  uncertainty k = 1.070918
         2         4        40         5     9        0.000000        1.612425         3    ;  uncertainty k = 0.684619
         2         4        40         5     9      180.000000        0.296896         4    ;  uncertainty k = 0.238045
         2         4        40        41     9        0.000000        1.281299         1    ;  uncertainty k = 2.047686
         2         4        40        41     9      180.000000        2.453020         2    ;  uncertainty k = 1.032695
         2         4        40        41     9        0.000000        1.285929         3    ;  uncertainty k = 0.590359
         2         4        40        41     9      180.000000       -0.023891         4    ;  uncertainty k = 0.146318
         3         2         4        11     9        0.000000       -1.372021         1    ;  uncertainty k = 1.492732
         3         2         4        11     9      180.000000        2.371114         2    ;  uncertainty k = 0.300481
         3         2         4        11     9        0.000000        0.292116         3    ;  uncertainty k = 0.252771
         3         2         4        11     9      180.000000        0.155159         4    ;  uncertainty k = 0.093475
         3         2         4        40     9        0.000000        1.821365         1    ;  uncertainty k = 0.780608
         3         2         4        40     9      180.000000        3.766546         2    ;  uncertainty k = 0.556623
         3         2         4        40     9        0.000000        0.763532         3    ;  uncertainty k = 0.256870
         3         2         4        40     9      180.000000        0.176289         4    ;  uncertainty k = 0.153152
         4        11        10         5     9        0.000000        0.138704         1    ;  uncertainty k = 0.433407
         4        11        10         5     9      180.000000       11.969558         2    ;  uncertainty k = 1.321592
         4        11        10         5     9        0.000000       -9.950265         3    ;  uncertainty k = 1.523407
         4        11        10         5     9      180.000000        2.088661         4    ;  uncertainty k = 0.737945
         4        11        10         9     9        0.000000        0.101303         1    ;  uncertainty k = 1.253642
         4        11        10         9     9      180.000000        5.788614         2    ;  uncertainty k = 0.367508
         4        11        10         9     9        0.000000        0.468585         3    ;  uncertainty k = 0.497482
         4        11        10         9     9      180.000000        0.936474         4    ;  uncertainty k = 0.156581
         4        11        12        13     9        0.000000       -0.349976         1    ;  uncertainty k = 1.059920
         4        11        12        13     9      180.000000        1.470981         2    ;  uncertainty k = 0.379967
         4        11        12        13     9        0.000000        0.213574         3    ;  uncertainty k = 0.480671
         4        11        12        13     9      180.000000        0.121644         4    ;  uncertainty k = 0.162937
         4        11        12        28     9        0.000000        1.439358         1    ;  uncertainty k = 0.397282
         4        11        12        28     9      180.000000        2.614208         2    ;  uncertainty k = 0.334496
         4        11        12        28     9        0.000000        0.055715         3    ;  uncertainty k = 0.092065
         4        11        12        28     9      180.000000        0.180012         4    ;  uncertainty k = 0.123046
         4        11        12        29     9        0.000000        1.439358         1    ;  uncertainty k = 0.397282
         4        11        12        29     9      180.000000        2.614208         2    ;  uncertainty k = 0.334496
         4        11        12        29     9        0.000000        0.055715         3    ;  uncertainty k = 0.092065
         4        11        12        29     9      180.000000        0.180012         4    ;  uncertainty k = 0.123046
         4        40         5         6     9        0.000000        0.635369         1    ;  uncertainty k = 1.816003
         4        40         5         6     9      180.000000        6.060638         2    ;  uncertainty k = 1.153836
         4        40         5         6     9        0.000000        0.797015         3    ;  uncertainty k = 0.672302
         4        40         5         6     9      180.000000        0.315910         4    ;  uncertainty k = 0.309679
         4        40         5        10     9        0.000000       -0.256173         1    ;  uncertainty k = 0.988685
         4        40         5        10     9      180.000000       15.153814         2    ;  uncertainty k = 1.062822
         4        40         5        10     9        0.000000       -8.540562         3    ;  uncertainty k = 1.954257
         4        40         5        10     9      180.000000        0.652036         4    ;  uncertainty k = 0.587333
         5         6         7         8     9        0.000000        0.016381         1    ;  uncertainty k = 0.198472
         5         6         7         8     9      180.000000       12.407522         2    ;  uncertainty k = 0.264903
         5         6         7         8     9        0.000000        0.266067         3    ;  uncertainty k = 0.519069
         5         6         7         8     9      180.000000        1.049290         4    ;  uncertainty k = 0.377929
         5         6         7        25     9        0.000000       -0.088308         1    ;  uncertainty k = 0.251102
         5         6         7        25     9      180.000000       11.735046         2    ;  uncertainty k = 0.459735
         5         6         7        25     9        0.000000        1.620370         3    ;  uncertainty k = 0.226023
         5         6         7        25     9      180.000000        1.565517         4    ;  uncertainty k = 0.300272
         5        10         9         8     9        0.000000       -0.013249         1    ;  uncertainty k = 0.375969
         5        10         9         8     9      180.000000       13.422989         2    ;  uncertainty k = 0.205893
         5        10         9         8     9        0.000000       -1.535810         3    ;  uncertainty k = 0.393057
         5        10         9         8     9      180.000000        0.715014         4    ;  uncertainty k = 0.247614
         5        10         9        27     9        0.000000        0.225882         1    ;  uncertainty k = 0.120896
         5        10         9        27     9      180.000000        7.080194         2    ;  uncertainty k = 0.720589
         5        10         9        27     9        0.000000        1.446338         3    ;  uncertainty k = 0.338410
         5        10         9        27     9      180.000000        1.229230         4    ;  uncertainty k = 0.407277
         5        10        11        12     9        0.000000        1.391083         1    ;  uncertainty k = 1.135785
         5        10        11        12     9      180.000000       10.683715         2    ;  uncertainty k = 0.353195
         5        10        11        12     9        0.000000        1.795815         3    ;  uncertainty k = 0.384167
         5        10        11        12     9      180.000000        0.251207         4    ;  uncertainty k = 0.378653
         5        40         4        11     9        0.000000       -0.446952         1    ;  uncertainty k = 0.871925
         5        40         4        11     9      180.000000       14.584357         2    ;  uncertainty k = 0.638155
         5        40         4        11     9        0.000000       -5.787700         3    ;  uncertainty k = 1.274971
         5        40         4        11     9      180.000000        0.756408         4    ;  uncertainty k = 0.331292
         6         5        10         9     9        0.000000       -0.518908         1    ;  uncertainty k = 0.397429
         6         5        10         9     9      180.000000        7.158222         2    ;  uncertainty k = 0.835212
         6         5        10         9     9        0.000000        0.202848         3    ;  uncertainty k = 0.333649
         6         5        10         9     9      180.000000        0.924429         4    ;  uncertainty k = 0.409950
         6         5        10        11     9        0.000000       -0.031656         1    ;  uncertainty k = 0.771595
         6         5        10        11     9      180.000000        7.120815         2    ;  uncertainty k = 0.706483
         6         5        10        11     9        0.000000        0.255253         3    ;  uncertainty k = 0.641789
         6         5        10        11     9      180.000000        1.107792         4    ;  uncertainty k = 0.369769
         6         5        40        41     9        0.000000        1.778467         1    ;  uncertainty k = 0.905980
         6         5        40        41     9      180.000000        1.533303         2    ;  uncertainty k = 0.867272
         6         5        40        41     9        0.000000        1.264379         3    ;  uncertainty k = 0.585093
         6         5        40        41     9      180.000000        0.179523         4    ;  uncertainty k = 0.219935
         6         7         8         9     9        0.000000       -0.052446         1    ;  uncertainty k = 0.291357
         6         7         8         9     9      180.000000        8.780251         2    ;  uncertainty k = 0.459309
         6         7         8         9     9        0.000000       -0.082537         3    ;  uncertainty k = 0.529798
         6         7         8         9     9      180.000000        1.163871         4    ;  uncertainty k = 0.301056
         6         7         8        26     9        0.000000       -0.112531         1    ;  uncertainty k = 0.088584
         6         7         8        26     9      180.000000        5.693042         2    ;  uncertainty k = 0.643561
         6         7         8        26     9        0.000000        1.272044         3    ;  uncertainty k = 0.297248
         6         7         8        26     9      180.000000        1.385030         4    ;  uncertainty k = 0.178422
         7         6         5        10     9        0.000000       -0.042287         1    ;  uncertainty k = 0.518120
         7         6         5        10     9      180.000000       12.507731         2    ;  uncertainty k = 0.253327
         7         6         5        10     9        0.000000       -1.131032         3    ;  uncertainty k = 0.414978
         7         6         5        10     9      180.000000        0.824593         4    ;  uncertainty k = 0.205289
         7         6         5        40     9        0.000000       -0.019149         1    ;  uncertainty k = 0.336003
         7         6         5        40     9      180.000000       10.469407         2    ;  uncertainty k = 0.533994
         7         6         5        40     9        0.000000        0.591410         3    ;  uncertainty k = 0.326490
         7         6         5        40     9      180.000000        1.046153         4    ;  uncertainty k = 0.254180
         7         8         9        10     9        0.000000        0.055886         1    ;  uncertainty k = 0.367454
         7         8         9        10     9      180.000000       16.702848         2    ;  uncertainty k = 0.234489
         7         8         9        10     9        0.000000       -0.473466         3    ;  uncertainty k = 0.691863
         7         8         9        10     9      180.000000        0.707792         4    ;  uncertainty k = 0.476452
         7         8         9        27     9        0.000000        0.076566         1    ;  uncertainty k = 0.166303
         7         8         9        27     9      180.000000        8.831192         2    ;  uncertainty k = 0.511480
         7         8         9        27     9        0.000000        1.578004         3    ;  uncertainty k = 0.280817
         7         8         9        27     9      180.000000        1.907594         4    ;  uncertainty k = 0.347858
         8         7         6        24     9        0.000000        0.205024         1    ;  uncertainty k = 0.265310
         8         7         6        24     9      180.000000        7.090961         2    ;  uncertainty k = 0.614809
         8         7         6        24     9        0.000000        1.548101         3    ;  uncertainty k = 0.318123
         8         7         6        24     9      180.000000        1.588193         4    ;  uncertainty k = 0.170621
         8         9        10        11     9        0.000000        0.253220         1    ;  uncertainty k = 0.120817
         8         9        10        11     9      180.000000        8.996725         2    ;  uncertainty k = 0.308330
         8         9        10        11     9        0.000000        0.485168         3    ;  uncertainty k = 0.401131
         8         9        10        11     9      180.000000        1.139274         4    ;  uncertainty k = 0.138271
         9         8         7        25     9        0.000000        0.158413         1    ;  uncertainty k = 0.113205
         9         8         7        25     9      180.000000        8.350217         2    ;  uncertainty k = 0.627038
         9         8         7        25     9        0.000000        1.479010         3    ;  uncertainty k = 0.399842
         9         8         7        25     9      180.000000        1.553520         4    ;  uncertainty k = 0.172505
         9        10         5        40     9        0.000000       -0.078473         1    ;  uncertainty k = 0.635965
         9        10         5        40     9      180.000000        8.586052         2    ;  uncertainty k = 0.350389
         9        10         5        40     9        0.000000       -0.465388         3    ;  uncertainty k = 0.656309
         9        10         5        40     9      180.000000        1.195098         4    ;  uncertainty k = 0.385008
         9        10        11        12     9        0.000000        0.287871         1    ;  uncertainty k = 1.297850
         9        10        11        12     9      180.000000        5.731807         2    ;  uncertainty k = 0.454792
         9        10        11        12     9        0.000000        1.675056         3    ;  uncertainty k = 0.283497
         9        10        11        12     9      180.000000        0.182662         4    ;  uncertainty k = 0.202889
        10         5         6        24     9        0.000000        0.302703         1    ;  uncertainty k = 0.347966
        10         5         6        24     9      180.000000        6.158343         2    ;  uncertainty k = 0.833183
        10         5         6        24     9        0.000000        1.373818         3    ;  uncertainty k = 0.229117
        10         5         6        24     9      180.000000        1.126648         4    ;  uncertainty k = 0.364968
        10         5        40        41     9        0.000000        6.134550         1    ;  uncertainty k = 2.137270
        10         5        40        41     9      180.000000        4.747063         2    ;  uncertainty k = 1.400186
        10         5        40        41     9        0.000000        1.248386         3    ;  uncertainty k = 0.510860
        10         5        40        41     9      180.000000        0.320654         4    ;  uncertainty k = 0.119907
        10         9         8        26     9        0.000000        0.118758         1    ;  uncertainty k = 0.348271
        10         9         8        26     9      180.000000       10.944724         2    ;  uncertainty k = 0.284713
        10         9         8        26     9        0.000000        1.521140         3    ;  uncertainty k = 0.305164
        10         9         8        26     9      180.000000        1.674123         4    ;  uncertainty k = 0.263179
        10        11         4        40     9        0.000000       -0.393134         1    ;  uncertainty k = 0.607912
        10        11         4        40     9      180.000000       19.839038         2    ;  uncertainty k = 0.354666
        10        11         4        40     9        0.000000       -5.957063         3    ;  uncertainty k = 1.700800
        10        11         4        40     9      180.000000        1.025412         4    ;  uncertainty k = 0.417396
        10        11        12        13     9        0.000000       -0.250710         1    ;  uncertainty k = 0.981410
        10        11        12        13     9      180.000000        1.124590         2    ;  uncertainty k = 0.630187
        10        11        12        13     9        0.000000        0.686750         3    ;  uncertainty k = 0.259867
        10        11        12        13     9      180.000000        0.157249         4    ;  uncertainty k = 0.060291
        10        11        12        28     9        0.000000       -0.711176         1    ;  uncertainty k = 0.439790
        10        11        12        28     9      180.000000        2.059496         2    ;  uncertainty k = 0.383540
        10        11        12        28     9        0.000000        0.779447         3    ;  uncertainty k = 0.142062
        10        11        12        28     9      180.000000        0.210361         4    ;  uncertainty k = 0.076402
        10        11        12        29     9        0.000000       -0.711176         1    ;  uncertainty k = 0.439790
        10        11        12        29     9      180.000000        2.059496         2    ;  uncertainty k = 0.383540
        10        11        12        29     9        0.000000        0.779447         3    ;  uncertainty k = 0.142062
        10        11        12        29     9      180.000000        0.210361         4    ;  uncertainty k = 0.076402
        11         4        40        41     9        0.000000        4.002848         1    ;  uncertainty k = 2.871779
        11         4        40        41     9      180.000000        7.222058         2    ;  uncertainty k = 0.414114
        11         4        40        41     9        0.000000        1.854473         3    ;  uncertainty k = 0.680000
        11         4        40        41     9      180.000000       -0.108218         4    ;  uncertainty k = 0.359456
        11        10         5        40     9        0.000000       -0.219002         1    ;  uncertainty k = 0.472631
        11        10         5        40     9      180.000000       13.003275         2    ;  uncertainty k = 0.650454
        11        10         5        40     9        0.000000       -4.444626         3    ;  uncertainty k = 1.802068
        11        10         5        40     9      180.000000        1.374858         4    ;  uncertainty k = 0.863478
        11        10         9        27     9        0.000000        0.581853         1    ;  uncertainty k = 0.820389
        11        10         9        27     9      180.000000        5.596963         2    ;  uncertainty k = 0.432443
        11        10         9        27     9        0.000000        1.131211         3    ;  uncertainty k = 0.343510
        11        10         9        27     9      180.000000        0.788142         4    ;  uncertainty k = 0.270265
        11        12        13        14     9        0.000000       -2.797521         1    ;  uncertainty k = 1.001297
        11        12        13        14     9      180.000000       -0.438773         2    ;  uncertainty k = 0.388442
        11        12        13        14     9        0.000000        1.346273         3    ;  uncertainty k = 0.124329
        11        12        13        14     9      180.000000       -0.311874         4    ;  uncertainty k = 0.109825
        11        12        13        30     9        0.000000        0.428587         1    ;  uncertainty k = 0.616137
        11        12        13        30     9      180.000000       -0.329643         2    ;  uncertainty k = 0.354693
        11        12        13        30     9        0.000000        1.117197         3    ;  uncertainty k = 0.164143
        11        12        13        30     9      180.000000        0.004866         4    ;  uncertainty k = 0.054513
        11        12        13        31     9        0.000000        0.428587         1    ;  uncertainty k = 0.616137
        11        12        13        31     9      180.000000       -0.329643         2    ;  uncertainty k = 0.354693
        11        12        13        31     9        0.000000        1.117197         3    ;  uncertainty k = 0.164143
        11        12        13        31     9      180.000000        0.004866         4    ;  uncertainty k = 0.054513
        12        11         4        40     9        0.000000        0.422348         1    ;  uncertainty k = 0.702982
        12        11         4        40     9      180.000000       16.424567         2    ;  uncertainty k = 0.487307
        12        11         4        40     9        0.000000        1.226405         3    ;  uncertainty k = 0.521831
        12        11         4        40     9      180.000000        0.749901         4    ;  uncertainty k = 0.332361
        12        13        14        15     9        0.000000       -3.981675         1    ;  uncertainty k = 1.213440
        12        13        14        15     9      180.000000       -2.437776         2    ;  uncertainty k = 0.473736
        12        13        14        15     9        0.000000        2.171447         3    ;  uncertainty k = 0.270693
        12        13        14        15     9      180.000000       -0.466446         4    ;  uncertainty k = 0.162221
        12        13        14        32     9        0.000000       -1.869286         1    ;  uncertainty k = 0.468316
        12        13        14        32     9      180.000000        0.095120         2    ;  uncertainty k = 0.233461
        12        13        14        32     9        0.000000        0.933992         3    ;  uncertainty k = 0.064492
        12        13        14        32     9      180.000000       -0.359473         4    ;  uncertainty k = 0.103212
        12        13        14        33     9        0.000000       -1.869286         1    ;  uncertainty k = 0.468316
        12        13        14        33     9      180.000000        0.095120         2    ;  uncertainty k = 0.233461
        12        13        14        33     9        0.000000        0.933992         3    ;  uncertainty k = 0.064492
        12        13        14        33     9      180.000000       -0.359473         4    ;  uncertainty k = 0.103212
        13        14        15        16     9        0.000000       -1.282294         1    ;  uncertainty k = 0.540550
        13        14        15        16     9      180.000000       -0.202914         2    ;  uncertainty k = 0.247418
        13        14        15        16     9        0.000000        0.760689         3    ;  uncertainty k = 0.094362
        13        14        15        16     9      180.000000        0.495322         4    ;  uncertainty k = 0.066296
        14        13        12        28     9        0.000000       -1.671600         1    ;  uncertainty k = 0.371924
        14        13        12        28     9      180.000000       -0.604412         2    ;  uncertainty k = 0.297865
        14        13        12        28     9        0.000000        0.944747         3    ;  uncertainty k = 0.125510
        14        13        12        28     9      180.000000       -0.352082         4    ;  uncertainty k = 0.062686
        14        13        12        29     9        0.000000       -1.671600         1    ;  uncertainty k = 0.371924
        14        13        12        29     9      180.000000       -0.604412         2    ;  uncertainty k = 0.297865
        14        13        12        29     9        0.000000        0.944747         3    ;  uncertainty k = 0.125510
        14        13        12        29     9      180.000000       -0.352082         4    ;  uncertainty k = 0.062686
        14        15        16        17     9        0.000000        0.454263         1    ;  uncertainty k = 0.408854
        14        15        16        17     9      180.000000        6.978256         2    ;  uncertainty k = 0.104983
        14        15        16        17     9        0.000000        0.612483         3    ;  uncertainty k = 0.094432
        14        15        16        17     9      180.000000        0.201902         4    ;  uncertainty k = 0.034340
        14        15        16        23     9        0.000000        0.994549         1    ;  uncertainty k = 0.434399
        14        15        16        23     9      180.000000        7.033604         2    ;  uncertainty k = 0.119628
        14        15        16        23     9        0.000000        0.700462         3    ;  uncertainty k = 0.095968
        14        15        16        23     9      180.000000        0.183241         4    ;  uncertainty k = 0.036361
        15        14        13        30     9        0.000000        0.252324         1    ;  uncertainty k = 0.546753
        15        14        13        30     9      180.000000       -2.139395         2    ;  uncertainty k = 0.273196
        15        14        13        30     9        0.000000        1.417025         3    ;  uncertainty k = 0.099728
        15        14        13        30     9      180.000000        0.041653         4    ;  uncertainty k = 0.069324
        15        14        13        31     9        0.000000        0.252324         1    ;  uncertainty k = 0.546753
        15        14        13        31     9      180.000000       -2.139395         2    ;  uncertainty k = 0.273196
        15        14        13        31     9        0.000000        1.417025         3    ;  uncertainty k = 0.099728
        15        14        13        31     9      180.000000        0.041653         4    ;  uncertainty k = 0.069324
        15        16        17        18     9        0.000000       -0.015216         1    ;  uncertainty k = 0.276894
        15        16        17        18     9      180.000000       10.118111         2    ;  uncertainty k = 0.497195
        15        16        17        18     9        0.000000        1.169777         3    ;  uncertainty k = 0.329691
        15        16        17        18     9      180.000000        1.632726         4    ;  uncertainty k = 0.200129
        15        16        17        34     9        0.000000       -0.265145         1    ;  uncertainty k = 0.297305
        15        16        17        34     9      180.000000        8.584295         2    ;  uncertainty k = 0.267172
        15        16        17        34     9        0.000000        0.675391         3    ;  uncertainty k = 0.113760
        15        16        17        34     9      180.000000        1.035235         4    ;  uncertainty k = 0.214005
        15        16        23        22     9        0.000000        0.075250         1    ;  uncertainty k = 0.259205
        15        16        23        22     9      180.000000       10.529195         2    ;  uncertainty k = 0.494111
        15        16        23        22     9        0.000000        1.188790         3    ;  uncertainty k = 0.233826
        15        16        23        22     9      180.000000        1.632322         4    ;  uncertainty k = 0.146629
        15        16        23        38     9        0.000000       -0.228334         1    ;  uncertainty k = 0.219821
        15        16        23        38     9      180.000000        8.359245         2    ;  uncertainty k = 0.333331
        15        16        23        38     9        0.000000        0.697218         3    ;  uncertainty k = 0.139643
        15        16        23        38     9      180.000000        1.017357         4    ;  uncertainty k = 0.212753
        16        15        14        32     9        0.000000        0.628241         1    ;  uncertainty k = 0.426528
        16        15        14        32     9      180.000000       -1.190475         2    ;  uncertainty k = 0.124746
        16        15        14        32     9        0.000000        0.543551         3    ;  uncertainty k = 0.049593
        16        15        14        32     9      180.000000        0.259489         4    ;  uncertainty k = 0.055277
        16        15        14        33     9        0.000000        0.628241         1    ;  uncertainty k = 0.426528
        16        15        14        33     9      180.000000       -1.190475         2    ;  uncertainty k = 0.124746
        16        15        14        33     9        0.000000        0.543551         3    ;  uncertainty k = 0.049593
        16        15        14        33     9      180.000000        0.259489         4    ;  uncertainty k = 0.055277
        16        17        18        19     9        0.000000        0.146448         1    ;  uncertainty k = 0.130585
        16        17        18        19     9      180.000000       10.388139         2    ;  uncertainty k = 0.459564
        16        17        18        19     9        0.000000        1.339140         3    ;  uncertainty k = 0.241056
        16        17        18        19     9      180.000000        1.763809         4    ;  uncertainty k = 0.129544
        16        17        18        20     9        0.000000       -0.038794         1    ;  uncertainty k = 0.217431
        16        17        18        20     9      180.000000       11.528164         2    ;  uncertainty k = 0.331096
        16        17        18        20     9        0.000000        0.173026         3    ;  uncertainty k = 0.337089
        16        17        18        20     9      180.000000        1.146418         4    ;  uncertainty k = 0.239514
        16        23        22        20     9        0.000000       -0.129296         1    ;  uncertainty k = 0.258528
        16        23        22        20     9      180.000000       14.468275         2    ;  uncertainty k = 0.287830
        16        23        22        20     9        0.000000       -0.784637         3    ;  uncertainty k = 0.527807
        16        23        22        20     9      180.000000        0.826354         4    ;  uncertainty k = 0.321924
        16        23        22        39     9        0.000000        0.033863         1    ;  uncertainty k = 0.228268
        16        23        22        39     9      180.000000        7.872633         2    ;  uncertainty k = 0.333425
        16        23        22        39     9        0.000000        1.339326         3    ;  uncertainty k = 0.305860
        16        23        22        39     9      180.000000        1.774294         4    ;  uncertainty k = 0.156406
        17        16        23        22     9        0.000000       -0.039246         1    ;  uncertainty k = 0.104061
        17        16        23        22     9      180.000000        9.343732         2    ;  uncertainty k = 0.552851
        17        16        23        22     9        0.000000       -0.098593         3    ;  uncertainty k = 0.405704
        17        16        23        22     9      180.000000        1.192268         4    ;  uncertainty k = 0.324816
        17        16        23        38     9        0.000000        0.241317         1    ;  uncertainty k = 0.260604
        17        16        23        38     9      180.000000        6.127600         2    ;  uncertainty k = 0.601185
        17        16        23        38     9        0.000000        1.472990         3    ;  uncertainty k = 0.317273
        17        16        23        38     9      180.000000        1.579916         4    ;  uncertainty k = 0.102141
        17        18        19        35     9        0.000000        0.096999         1    ;  uncertainty k = 0.207397
        17        18        19        35     9      180.000000        1.756141         2    ;  uncertainty k = 0.077858
        17        18        19        35     9        0.000000        0.222574         3    ;  uncertainty k = 0.083022
        17        18        19        35     9      180.000000        0.218643         4    ;  uncertainty k = 0.028725
        17        18        19        36     9        0.000000        0.096999         1    ;  uncertainty k = 0.207397
        17        18        19        36     9      180.000000        1.756141         2    ;  uncertainty k = 0.077858
        17        18        19        36     9        0.000000        0.222574         3    ;  uncertainty k = 0.083022
        17        18        19        36     9      180.000000        0.218643         4    ;  uncertainty k = 0.028725
        17        18        19        37     9        0.000000        0.096999         1    ;  uncertainty k = 0.207397
        17        18        19        37     9      180.000000        1.756141         2    ;  uncertainty k = 0.077858
        17        18        19        37     9        0.000000        0.222574         3    ;  uncertainty k = 0.083022
        17        18        19        37     9      180.000000        0.218643         4    ;  uncertainty k = 0.028725
        17        18        20        21     9        0.000000        0.072646         1    ;  uncertainty k = 0.078163
        17        18        20        21     9      180.000000        8.761529         2    ;  uncertainty k = 0.552983
        17        18        20        21     9        0.000000        1.495073         3    ;  uncertainty k = 0.360180
        17        18        20        21     9      180.000000        1.515253         4    ;  uncertainty k = 0.174686
        17        18        20        22     9        0.000000       -0.187021         1    ;  uncertainty k = 0.184237
        17        18        20        22     9      180.000000        7.660986         2    ;  uncertainty k = 0.769636
        17        18        20        22     9        0.000000        0.242168         3    ;  uncertainty k = 0.567484
        17        18        20        22     9      180.000000        1.133333         4    ;  uncertainty k = 0.474071
        18        17        16        23     9        0.000000       -0.096387         1    ;  uncertainty k = 0.205212
        18        17        16        23     9      180.000000        8.460155         2    ;  uncertainty k = 0.558298
        18        17        16        23     9        0.000000        0.121372         3    ;  uncertainty k = 0.430508
        18        17        16        23     9      180.000000        1.258040         4    ;  uncertainty k = 0.327180
        18        20        22        23     9        0.000000        0.093016         1    ;  uncertainty k = 0.176449
        18        20        22        23     9      180.000000        9.485266         2    ;  uncertainty k = 0.443358
        18        20        22        23     9        0.000000        0.064355         3    ;  uncertainty k = 0.452911
        18        20        22        23     9      180.000000        1.238090         4    ;  uncertainty k = 0.273377
        18        20        22        39     9        0.000000        0.017422         1    ;  uncertainty k = 0.198039
        18        20        22        39     9      180.000000        5.908701         2    ;  uncertainty k = 0.681413
        18        20        22        39     9        0.000000        1.402705         3    ;  uncertainty k = 0.332303
        18        20        22        39     9      180.000000        1.501343         4    ;  uncertainty k = 0.147712
        19        18        17        34     9        0.000000       -0.254081         1    ;  uncertainty k = 0.220525
        19        18        17        34     9      180.000000        8.385790         2    ;  uncertainty k = 0.234804
        19        18        17        34     9        0.000000        0.507913         3    ;  uncertainty k = 0.325685
        19        18        17        34     9      180.000000        1.010066         4    ;  uncertainty k = 0.177059
        19        18        20        21     9        0.000000       -0.125413         1    ;  uncertainty k = 0.278230
        19        18        20        21     9      180.000000        8.966499         2    ;  uncertainty k = 0.334696
        19        18        20        21     9        0.000000        1.013206         3    ;  uncertainty k = 0.262986
        19        18        20        21     9      180.000000        1.197231         4    ;  uncertainty k = 0.293531
        19        18        20        22     9        0.000000        0.344918         1    ;  uncertainty k = 0.241091
        19        18        20        22     9      180.000000        7.079855         2    ;  uncertainty k = 0.308176
        19        18        20        22     9        0.000000        1.262900         3    ;  uncertainty k = 0.184123
        19        18        20        22     9      180.000000        1.670628         4    ;  uncertainty k = 0.223811
        20        18        17        34     9        0.000000        0.258210         1    ;  uncertainty k = 0.135898
        20        18        17        34     9      180.000000        7.558995         2    ;  uncertainty k = 0.255264
        20        18        17        34     9        0.000000        1.662808         3    ;  uncertainty k = 0.336442
        20        18        17        34     9      180.000000        1.769724         4    ;  uncertainty k = 0.131595
        20        18        19        35     9        0.000000       -0.175720         1    ;  uncertainty k = 0.379228
        20        18        19        35     9      180.000000        2.215294         2    ;  uncertainty k = 0.228754
        20        18        19        35     9        0.000000        0.540843         3    ;  uncertainty k = 0.051540
        20        18        19        35     9      180.000000        0.360095         4    ;  uncertainty k = 0.047196
        20        18        19        36     9        0.000000       -0.175720         1    ;  uncertainty k = 0.379228
        20        18        19        36     9      180.000000        2.215294         2    ;  uncertainty k = 0.228754
        20        18        19        36     9        0.000000        0.540843         3    ;  uncertainty k = 0.051540
        20        18        19        36     9      180.000000        0.360095         4    ;  uncertainty k = 0.047196
        20        18        19        37     9        0.000000       -0.175720         1    ;  uncertainty k = 0.379228
        20        18        19        37     9      180.000000        2.215294         2    ;  uncertainty k = 0.228754
        20        18        19        37     9        0.000000        0.540843         3    ;  uncertainty k = 0.051540
        20        18        19        37     9      180.000000        0.360095         4    ;  uncertainty k = 0.047196
        20        22        23        38     9        0.000000        0.075748         1    ;  uncertainty k = 0.107255
        20        22        23        38     9      180.000000        7.959031         2    ;  uncertainty k = 0.348672
        20        22        23        38     9        0.000000        1.510773         3    ;  uncertainty k = 0.261710
        20        22        23        38     9      180.000000        1.877223         4    ;  uncertainty k = 0.151031
        21        20        22        23     9        0.000000       -0.031230         1    ;  uncertainty k = 0.220761
        21        20        22        23     9      180.000000        9.639538         2    ;  uncertainty k = 0.541210
        21        20        22        23     9        0.000000        1.524864         3    ;  uncertainty k = 0.435745
        21        20        22        23     9      180.000000        1.663662         4    ;  uncertainty k = 0.170560
        21        20        22        39     9        0.000000       -0.193788         1    ;  uncertainty k = 0.194282
        21        20        22        39     9      180.000000        7.473303         2    ;  uncertainty k = 0.366069
        21        20        22        39     9        0.000000        0.677307         3    ;  uncertainty k = 0.298538
        21        20        22        39     9      180.000000        1.032933         4    ;  uncertainty k = 0.213982
        23        16        17        34     9        0.000000        0.251552         1    ;  uncertainty k = 0.316339
        23        16        17        34     9      180.000000        6.206325         2    ;  uncertainty k = 0.513480
        23        16        17        34     9        0.000000        1.481480         3    ;  uncertainty k = 0.337671
        23        16        17        34     9      180.000000        1.616456         4    ;  uncertainty k = 0.093730
        24         6         5        40     9        0.000000        0.171188         1    ;  uncertainty k = 0.393359
        24         6         5        40     9      180.000000        6.027361         2    ;  uncertainty k = 0.588989
        24         6         5        40     9        0.000000        1.207065         3    ;  uncertainty k = 0.400137
        24         6         5        40     9      180.000000        0.751463         4    ;  uncertainty k = 0.441730
        24         6         7        25     9        0.000000       -0.281070         1    ;  uncertainty k = 0.359617
        24         6         7        25     9      180.000000        8.030168         2    ;  uncertainty k = 0.498481
        24         6         7        25     9        0.000000        0.765992         3    ;  uncertainty k = 0.291868
        24         6         7        25     9      180.000000        1.001390         4    ;  uncertainty k = 0.303078
        25         7         8        26     9        0.000000        0.007734         1    ;  uncertainty k = 0.145164
        25         7         8        26     9      180.000000        6.953018         2    ;  uncertainty k = 0.306151
        25         7         8        26     9        0.000000        0.652049         3    ;  uncertainty k = 0.345746
        25         7         8        26     9      180.000000        0.900167         4    ;  uncertainty k = 0.224123
        26         8         9        27     9        0.000000       -0.035057         1    ;  uncertainty k = 0.171124
        26         8         9        27     9      180.000000        7.797004         2    ;  uncertainty k = 0.371983
        26         8         9        27     9        0.000000       -0.193582         3    ;  uncertainty k = 0.216985
        26         8         9        27     9      180.000000        0.185002         4    ;  uncertainty k = 0.166819
        28        12        13        30     9        0.000000        0.852998         1    ;  uncertainty k = 0.162312
        28        12        13        30     9      180.000000       -0.684815         2    ;  uncertainty k = 0.290806
        28        12        13        30     9        0.000000        0.190526         3    ;  uncertainty k = 0.067767
        28        12        13        30     9      180.000000        0.009351         4    ;  uncertainty k = 0.042473
        28        12        13        31     9        0.000000        0.852998         1    ;  uncertainty k = 0.162312
        28        12        13        31     9      180.000000       -0.684815         2    ;  uncertainty k = 0.290806
        28        12        13        31     9        0.000000        0.190526         3    ;  uncertainty k = 0.067767
        28        12        13        31     9      180.000000        0.009351         4    ;  uncertainty k = 0.042473
        29        12        13        30     9        0.000000        0.852998         1    ;  uncertainty k = 0.162312
        29        12        13        30     9      180.000000       -0.684815         2    ;  uncertainty k = 0.290806
        29        12        13        30     9        0.000000        0.190526         3    ;  uncertainty k = 0.067767
        29        12        13        30     9      180.000000        0.009351         4    ;  uncertainty k = 0.042473
        29        12        13        31     9        0.000000        0.852998         1    ;  uncertainty k = 0.162312
        29        12        13        31     9      180.000000       -0.684815         2    ;  uncertainty k = 0.290806
        29        12        13        31     9        0.000000        0.190526         3    ;  uncertainty k = 0.067767
        29        12        13        31     9      180.000000        0.009351         4    ;  uncertainty k = 0.042473
        30        13        14        32     9        0.000000        0.461039         1    ;  uncertainty k = 0.142816
        30        13        14        32     9      180.000000       -0.427775         2    ;  uncertainty k = 0.141329
        30        13        14        32     9        0.000000        0.095542         3    ;  uncertainty k = 0.073246
        30        13        14        32     9      180.000000       -0.037844         4    ;  uncertainty k = 0.076606
        30        13        14        33     9        0.000000        0.461039         1    ;  uncertainty k = 0.142816
        30        13        14        33     9      180.000000       -0.427775         2    ;  uncertainty k = 0.141329
        30        13        14        33     9        0.000000        0.095542         3    ;  uncertainty k = 0.073246
        30        13        14        33     9      180.000000       -0.037844         4    ;  uncertainty k = 0.076606
        31        13        14        32     9        0.000000        0.461039         1    ;  uncertainty k = 0.142816
        31        13        14        32     9      180.000000       -0.427775         2    ;  uncertainty k = 0.141329
        31        13        14        32     9        0.000000        0.095542         3    ;  uncertainty k = 0.073246
        31        13        14        32     9      180.000000       -0.037844         4    ;  uncertainty k = 0.076606
        31        13        14        33     9        0.000000        0.461039         1    ;  uncertainty k = 0.142816
        31        13        14        33     9      180.000000       -0.427775         2    ;  uncertainty k = 0.141329
        31        13        14        33     9        0.000000        0.095542         3    ;  uncertainty k = 0.073246
        31        13        14        33     9      180.000000       -0.037844         4    ;  uncertainty k = 0.076606
        38        23        22        39     9        0.000000       -0.039053         1    ;  uncertainty k = 0.206736
        38        23        22        39     9      180.000000        7.629289         2    ;  uncertainty k = 0.429603
        38        23        22        39     9        0.000000       -0.402720         3    ;  uncertainty k = 0.196839
        38        23        22        39     9      180.000000        0.119580         4    ;  uncertainty k = 0.138791

[ dihedrals ] ; impropers
;       ai        aj        ak        al funct           phase               k        pn
         2         1         3         4     4      180.000000       64.265865         2    ;  uncertainty k = 0.050254
         2         3         4         1     4      180.000000       64.265865         2    ;  uncertainty k = 0.050254
         2         4         1         3     4      180.000000       64.265865         2    ;  uncertainty k = 0.050254
         4         2        11        40     4      180.000000        6.012760         2    ;  uncertainty k = 0.508316
         4        11        40         2     4      180.000000        6.012760         2    ;  uncertainty k = 0.508316
         4        40         2        11     4      180.000000        6.012760         2    ;  uncertainty k = 0.508316
         5         6        10        40     4      180.000000        1.229605         2    ;  uncertainty k = 0.587006
         5        10        40         6     4      180.000000        1.229605         2    ;  uncertainty k = 0.587006
         5        40         6        10     4      180.000000        1.229605         2    ;  uncertainty k = 0.587006
         6         5         7        24     4      180.000000        1.876901         2    ;  uncertainty k = 0.811125
         6         7        24         5     4      180.000000        1.876901         2    ;  uncertainty k = 0.811125
         6        24         5         7     4      180.000000        1.876901         2    ;  uncertainty k = 0.811125
         7         6         8        25     4      180.000000       12.363011         2    ;  uncertainty k = 0.064734
         7         8        25         6     4      180.000000       12.363011         2    ;  uncertainty k = 0.064734
         7        25         6         8     4      180.000000       12.363011         2    ;  uncertainty k = 0.064734
         8         7         9        26     4      180.000000        2.460164         2    ;  uncertainty k = 0.104522
         8         9        26         7     4      180.000000        2.460164         2    ;  uncertainty k = 0.104522
         8        26         7         9     4      180.000000        2.460164         2    ;  uncertainty k = 0.104522
         9         8        10        27     4      180.000000        4.472803         2    ;  uncertainty k = 0.199732
         9        10        27         8     4      180.000000        4.472803         2    ;  uncertainty k = 0.199732
         9        27         8        10     4      180.000000        4.472803         2    ;  uncertainty k = 0.199732
        11         4        10        12     4      180.000000        2.102599         2    ;  uncertainty k = 0.557460
        11        10        12         4     4      180.000000        2.102599         2    ;  uncertainty k = 0.557460
        11        12         4        10     4      180.000000        2.102599         2    ;  uncertainty k = 0.557460
        16        15        17        23     4      180.000000       19.360038         2    ;  uncertainty k = 0.059663
        16        17        23        15     4      180.000000       19.360038         2    ;  uncertainty k = 0.059663
        16        23        15        17     4      180.000000       19.360038         2    ;  uncertainty k = 0.059663
        17        16        18        34     4      180.000000        2.085771         2    ;  uncertainty k = 0.412817
        17        18        34        16     4      180.000000        2.085771         2    ;  uncertainty k = 0.412817
        17        34        16        18     4      180.000000        2.085771         2    ;  uncertainty k = 0.412817
        18        17        19        20     4      180.000000       15.530779         2    ;  uncertainty k = 0.052128
        18        19        20        17     4      180.000000       15.530779         2    ;  uncertainty k = 0.052128
        18        20        17        19     4      180.000000       15.530779         2    ;  uncertainty k = 0.052128
        20        18        21        22     4      180.000000       11.545500         2    ;  uncertainty k = 0.110955
        20        21        22        18     4      180.000000       11.545500         2    ;  uncertainty k = 0.110955
        20        22        18        21     4      180.000000       11.545500         2    ;  uncertainty k = 0.110955
        22        20        23        39     4      180.000000        3.995830         2    ;  uncertainty k = 0.121106
        22        23        39        20     4      180.000000        3.995830         2    ;  uncertainty k = 0.121106
        22        39        20        23     4      180.000000        3.995830         2    ;  uncertainty k = 0.121106
        23        16        22        38     4      180.000000        2.139012         2    ;  uncertainty k = 0.341018
        23        22        38        16     4      180.000000        2.139012         2    ;  uncertainty k = 0.341018
        23        38        16        22     4      180.000000        2.139012         2    ;  uncertainty k = 0.341018

[ pairs ]
;       ai        aj funct
         1        11     1
         1        40     1
         2         5     1
         2        10     1
         2        12     1
         2        41     1
         3        11     1
         3        40     1
         4         6     1
         4         9     1
         4        13     1
         4        28     1
         4        29     1
         5         8     1
         5        12     1
         5        25     1
         5        27     1
         6         9     1
         6        11     1
         6        26     1
         6        41     1
         7        10     1
         7        27     1
         7        40     1
         8        11     1
         8        24     1
         9        12     1
         9        25     1
         9        40     1
        10        13     1
        10        24     1
        10        26     1
        10        28     1
        10        29     1
        10        41     1
        11        14     1
        11        27     1
        11        30     1
        11        31     1
        11        41     1
        12        15     1
        12        32     1
        12        33     1
        12        40     1
        13        16     1
        14        17     1
        14        23     1
        14        28     1
        14        29     1
        15        18     1
        15        22     1
        15        30     1
        15        31     1
        15        34     1
        15        38     1
        16        19     1
        16        20     1
        16        32     1
        16        33     1
        16        39     1
        17        21     1
        17        22     1
        17        35     1
        17        36     1
        17        37     1
        17        38     1
        18        23     1
        18        39     1
        19        21     1
        19        22     1
        19        34     1
        20        34     1
        20        35     1
        20        36     1
        20        37     1
        20        38     1
        21        23     1
        21        39     1
        23        34     1
        24        25     1
        24        40     1
        25        26     1
        26        27     1
        28        30     1
        28        31     1
        29        30     1
        29        31     1
        30        32     1
        30        33     1
        31        32     1
        31        33     1
        38        39     1
