; ITP file created by ByteFF-joint-25, 2026-02-17 09:21:24.297572

[ atomtypes ]
;name           bonded.type        at.num        mass        charge   ptype           sigma         epsilon
 o0bf                                   8      0.0000       0.00000       A     3.04807e-01     6.12065e-01    ;  uncertainty sigma = 0.000018, epsilon = 0.000616
 c1bf                                   6      0.0000       0.00000       A     3.31436e-01     4.13701e-01    ;  uncertainty sigma = 0.000034, epsilon = 0.002275
 o2bf                                   8      0.0000       0.00000       A     3.04807e-01     6.12065e-01    ;  uncertainty sigma = 0.000018, epsilon = 0.000616
 c3bf                                   6      0.0000       0.00000       A     3.31527e-01     4.12548e-01    ;  uncertainty sigma = 0.000053, epsilon = 0.002675
 c4bf                                   6      0.0000       0.00000       A     3.31560e-01     4.13556e-01    ;  uncertainty sigma = 0.000010, epsilon = 0.001311
 c5bf                                   6      0.0000       0.00000       A     3.31519e-01     4.13255e-01    ;  uncertainty sigma = 0.000008, epsilon = 0.000683
 c6bf                                   6      0.0000       0.00000       A     3.31519e-01     4.12976e-01    ;  uncertainty sigma = 0.000007, epsilon = 0.000655
 c7bf                                   6      0.0000       0.00000       A     3.31526e-01     4.13517e-01    ;  uncertainty sigma = 0.000006, epsilon = 0.000537
 c8bf                                   6      0.0000       0.00000       A     3.31521e-01     4.13067e-01    ;  uncertainty sigma = 0.000006, epsilon = 0.000537
 c9bf                                   6      0.0000       0.00000       A     3.31541e-01     4.12985e-01    ;  uncertainty sigma = 0.000008, epsilon = 0.001296
 c10bf                                  6      0.0000       0.00000       A     3.31576e-01     4.13309e-01    ;  uncertainty sigma = 0.000008, epsilon = 0.001192
 c11bf                                  6      0.0000       0.00000       A     3.39773e-01     4.50718e-01    ;  uncertainty sigma = 0.000020, epsilon = 0.000757
 c12bf                                  6      0.0000       0.00000       A     3.39755e-01     4.50608e-01    ;  uncertainty sigma = 0.000006, epsilon = 0.000953
 c13bf                                  6      0.0000       0.00000       A     3.39779e-01     4.50532e-01    ;  uncertainty sigma = 0.000006, epsilon = 0.000794
 o14bf                                  8      0.0000       0.00000       A     3.15614e-01     3.03436e-01    ;  uncertainty sigma = 0.000012, epsilon = 0.000588
 c15bf                                  6      0.0000       0.00000       A     3.31528e-01     4.13444e-01    ;  uncertainty sigma = 0.000005, epsilon = 0.000608
 c16bf                                  6      0.0000       0.00000       A     3.31520e-01     4.13182e-01    ;  uncertainty sigma = 0.000005, epsilon = 0.000813
 c17bf                                  6      0.0000       0.00000       A     3.31517e-01     4.13212e-01    ;  uncertainty sigma = 0.000007, epsilon = 0.000574
 c18bf                                  6      0.0000       0.00000       A     3.39772e-01     4.51018e-01    ;  uncertainty sigma = 0.000005, epsilon = 0.000462
 c19bf                                  6      0.0000       0.00000       A     3.31522e-01     4.13276e-01    ;  uncertainty sigma = 0.000010, epsilon = 0.000456
 cl20bf                                17      0.0000       0.00000       A     3.46645e-01     1.10392e+00    ;  uncertainty sigma = 0.000011, epsilon = 0.001474
 c21bf                                  6      0.0000       0.00000       A     3.31517e-01     4.13212e-01    ;  uncertainty sigma = 0.000007, epsilon = 0.000574
 c22bf                                  6      0.0000       0.00000       A     3.39772e-01     4.51018e-01    ;  uncertainty sigma = 0.000005, epsilon = 0.000462
 c23bf                                  6      0.0000       0.00000       A     3.31520e-01     4.13182e-01    ;  uncertainty sigma = 0.000005, epsilon = 0.000813
 h24bf                                  1      0.0000       0.00000       A     2.62565e-01     6.69190e-02    ;  uncertainty sigma = 0.000013, epsilon = 0.000578
 cl25bf                                17      0.0000       0.00000       A     3.46614e-01     1.10425e+00    ;  uncertainty sigma = 0.000017, epsilon = 0.000933
 h26bf                                  1      0.0000       0.00000       A     2.62555e-01     6.70490e-02    ;  uncertainty sigma = 0.000009, epsilon = 0.000697
 h27bf                                  1      0.0000       0.00000       A     2.62563e-01     6.69243e-02    ;  uncertainty sigma = 0.000010, epsilon = 0.000447
 h28bf                                  1      0.0000       0.00000       A     2.60038e-01     8.64862e-02    ;  uncertainty sigma = 0.000012, epsilon = 0.000717
 h29bf                                  1      0.0000       0.00000       A     2.60038e-01     8.64862e-02    ;  uncertainty sigma = 0.000012, epsilon = 0.000717
 h30bf                                  1      0.0000       0.00000       A     2.60032e-01     8.63750e-02    ;  uncertainty sigma = 0.000011, epsilon = 0.000877
 h31bf                                  1      0.0000       0.00000       A     2.60032e-01     8.63750e-02    ;  uncertainty sigma = 0.000011, epsilon = 0.000877
 h32bf                                  1      0.0000       0.00000       A     2.42190e-01     8.69771e-02    ;  uncertainty sigma = 0.000031, epsilon = 0.000462
 h33bf                                  1      0.0000       0.00000       A     2.42190e-01     8.69771e-02    ;  uncertainty sigma = 0.000031, epsilon = 0.000462
 h34bf                                  1      0.0000       0.00000       A     2.62561e-01     6.71446e-02    ;  uncertainty sigma = 0.000003, epsilon = 0.000531
 h35bf                                  1      0.0000       0.00000       A     2.60030e-01     8.67436e-02    ;  uncertainty sigma = 0.000006, epsilon = 0.000502
 h36bf                                  1      0.0000       0.00000       A     2.60030e-01     8.67436e-02    ;  uncertainty sigma = 0.000006, epsilon = 0.000502
 h37bf                                  1      0.0000       0.00000       A     2.60030e-01     8.67436e-02    ;  uncertainty sigma = 0.000006, epsilon = 0.000502
 h38bf                                  1      0.0000       0.00000       A     2.60030e-01     8.67435e-02    ;  uncertainty sigma = 0.000006, epsilon = 0.000502
 h39bf                                  1      0.0000       0.00000       A     2.60030e-01     8.67435e-02    ;  uncertainty sigma = 0.000006, epsilon = 0.000502
 h40bf                                  1      0.0000       0.00000       A     2.60030e-01     8.67435e-02    ;  uncertainty sigma = 0.000006, epsilon = 0.000502
 h41bf                                  1      0.0000       0.00000       A     2.62561e-01     6.71447e-02    ;  uncertainty sigma = 0.000003, epsilon = 0.000531
 n42bf                                  7      0.0000       0.00000       A     3.20741e-01     8.51726e-01    ;  uncertainty sigma = 0.000058, epsilon = 0.002271
 h43bf                                  1      0.0000       0.00000       A     1.10620e-01     4.09732e-02    ;  uncertainty sigma = 0.000138, epsilon = 0.001729

[ moleculetype ]
;name             nrexcl
 MOL                   3

[ atoms ]
;       nr            type      resi   res      atom      cgnr      charge          mass ; qtot
         1            o0bf         1   UNL        o0         1    -0.82702       15.9990 ; qtot   -0.827
         2            c1bf         1   UNL        c1         2     0.92126       12.0110 ; qtot    0.094
         3            o2bf         1   UNL        o2         3    -0.82702       15.9990 ; qtot   -0.733
         4            c3bf         1   UNL        c3         4    -0.10678       12.0110 ; qtot   -0.840
         5            c4bf         1   UNL        c4         5    -0.06373       12.0110 ; qtot   -0.903
         6            c5bf         1   UNL        c5         6    -0.15579       12.0110 ; qtot   -1.059
         7            c6bf         1   UNL        c6         7     0.05207       12.0110 ; qtot   -1.007
         8            c7bf         1   UNL        c7         8    -0.15099       12.0110 ; qtot   -1.158
         9            c8bf         1   UNL        c8         9    -0.08499       12.0110 ; qtot   -1.243
        10            c9bf         1   UNL        c9        10    -0.09888       12.0110 ; qtot   -1.342
        11           c10bf         1   UNL       c10        11    -0.18363       12.0110 ; qtot   -1.525
        12           c11bf         1   UNL       c11        12    -0.00834       12.0110 ; qtot   -1.534
        13           c12bf         1   UNL       c12        13    -0.09601       12.0110 ; qtot   -1.630
        14           c13bf         1   UNL       c13        14     0.13840       12.0110 ; qtot   -1.491
        15           o14bf         1   UNL       o14        15    -0.33483       15.9990 ; qtot   -1.826
        16           c15bf         1   UNL       c15        16     0.14818       12.0110 ; qtot   -1.678
        17           c16bf         1   UNL       c16        17    -0.18812       12.0110 ; qtot   -1.866
        18           c17bf         1   UNL       c17        18    -0.02830       12.0110 ; qtot   -1.895
        19           c18bf         1   UNL       c18        19    -0.04813       12.0110 ; qtot   -1.943
        20           c19bf         1   UNL       c19        20     0.00735       12.0110 ; qtot   -1.935
        21          cl20bf         1   UNL      cl20        21    -0.13305       35.4530 ; qtot   -2.068
        22           c21bf         1   UNL       c21        22    -0.02830       12.0110 ; qtot   -2.097
        23           c22bf         1   UNL       c22        23    -0.04813       12.0110 ; qtot   -2.145
        24           c23bf         1   UNL       c23        24    -0.18812       12.0110 ; qtot   -2.333
        25           h24bf         1   UNL       h24        25     0.15057        1.0080 ; qtot   -2.182
        26          cl25bf         1   UNL      cl25        26    -0.12544       35.4530 ; qtot   -2.308
        27           h26bf         1   UNL       h26        27     0.14723        1.0080 ; qtot   -2.161
        28           h27bf         1   UNL       h27        28     0.13951        1.0080 ; qtot   -2.021
        29           h28bf         1   UNL       h28        29     0.04354        1.0080 ; qtot   -1.977
        30           h29bf         1   UNL       h29        30     0.04354        1.0080 ; qtot   -1.934
        31           h30bf         1   UNL       h30        31     0.05420        1.0080 ; qtot   -1.880
        32           h31bf         1   UNL       h31        32     0.05420        1.0080 ; qtot   -1.826
        33           h32bf         1   UNL       h32        33     0.04465        1.0080 ; qtot   -1.781
        34           h33bf         1   UNL       h33        34     0.04465        1.0080 ; qtot   -1.736
        35           h34bf         1   UNL       h34        35     0.14550        1.0080 ; qtot   -1.591
        36           h35bf         1   UNL       h35        36     0.05149        1.0080 ; qtot   -1.539
        37           h36bf         1   UNL       h36        37     0.05149        1.0080 ; qtot   -1.488
        38           h37bf         1   UNL       h37        38     0.05149        1.0080 ; qtot   -1.436
        39           h38bf         1   UNL       h38        39     0.05149        1.0080 ; qtot   -1.385
        40           h39bf         1   UNL       h39        40     0.05149        1.0080 ; qtot   -1.333
        41           h40bf         1   UNL       h40        41     0.05149        1.0080 ; qtot   -1.282
        42           h41bf         1   UNL       h41        42     0.14550        1.0080 ; qtot   -1.136
        43           n42bf         1   UNL       n42        43    -0.18324       14.0070 ; qtot   -1.320
        44           h43bf         1   UNL       h43        44     0.31955        1.0080 ; qtot   -1.000

[ bonds ]
;       ai        aj funct               r               k
         1         2     1        0.126489   553283.027930    ;  uncertainty r = 0.000115, k = 9.491850
         2         3     1        0.126489   553283.027930    ;  uncertainty r = 0.000115, k = 9.491850
         2         4     1        0.152875   178456.869971    ;  uncertainty r = 0.000109, k = 53.157083
         4        11     1        0.138845   388969.962598    ;  uncertainty r = 0.000116, k = 35.597318
         4        43     1        0.138475   296987.746191    ;  uncertainty r = 0.000099, k = 17.813853
         5         6     1        0.139889   365741.739893    ;  uncertainty r = 0.000039, k = 4.071346
         5        10     1        0.143412   339542.989551    ;  uncertainty r = 0.000145, k = 12.038827
         5        43     1        0.136982   317773.242236    ;  uncertainty r = 0.000100, k = 14.978690
         6         7     1        0.138957   366617.228613    ;  uncertainty r = 0.000032, k = 3.874140
         6        25     1        0.108807   337836.395605    ;  uncertainty r = 0.000016, k = 1.377548
         7         8     1        0.141030   343107.612500    ;  uncertainty r = 0.000048, k = 4.796360
         7        26     1        0.176152   194960.712109    ;  uncertainty r = 0.000053, k = 3.045004
         8         9     1        0.139057   370700.025049    ;  uncertainty r = 0.000046, k = 1.449903
         8        27     1        0.108691   336354.834668    ;  uncertainty r = 0.000013, k = 1.485272
         9        10     1        0.140611   364939.185156    ;  uncertainty r = 0.000072, k = 9.340026
         9        28     1        0.108763   336330.778711    ;  uncertainty r = 0.000023, k = 1.613795
        10        11     1        0.143897   248284.290527    ;  uncertainty r = 0.000116, k = 21.377129
        11        12     1        0.150056   234448.846484    ;  uncertainty r = 0.000153, k = 11.938075
        12        13     1        0.153885   206360.273438    ;  uncertainty r = 0.000103, k = 7.147654
        12        29     1        0.109683   309037.278027    ;  uncertainty r = 0.000026, k = 1.364430
        12        30     1        0.109683   309037.278027    ;  uncertainty r = 0.000026, k = 1.364430
        13        14     1        0.152189   210087.912524    ;  uncertainty r = 0.000032, k = 1.940784
        13        31     1        0.109664   307643.385986    ;  uncertainty r = 0.000028, k = 1.424205
        13        32     1        0.109664   307643.385986    ;  uncertainty r = 0.000028, k = 1.424205
        14        15     1        0.142379   234164.158789    ;  uncertainty r = 0.000042, k = 5.084621
        14        33     1        0.109775   308073.507520    ;  uncertainty r = 0.000024, k = 1.219195
        14        34     1        0.109775   308073.507520    ;  uncertainty r = 0.000024, k = 1.219195
        15        16     1        0.136677   322087.507031    ;  uncertainty r = 0.000044, k = 4.431121
        16        17     1        0.139703   363780.566504    ;  uncertainty r = 0.000052, k = 5.101447
        16        24     1        0.139703   363780.566504    ;  uncertainty r = 0.000052, k = 5.101467
        17        18     1        0.139807   359336.598730    ;  uncertainty r = 0.000044, k = 2.600126
        17        35     1        0.108762   338230.560889    ;  uncertainty r = 0.000020, k = 1.062513
        18        19     1        0.150844   237009.784424    ;  uncertainty r = 0.000033, k = 5.470347
        18        20     1        0.140382   343901.254785    ;  uncertainty r = 0.000043, k = 8.030230
        19        36     1        0.109438   308937.887598    ;  uncertainty r = 0.000004, k = 1.979635
        19        37     1        0.109438   308937.887598    ;  uncertainty r = 0.000004, k = 1.979635
        19        38     1        0.109438   308937.887598    ;  uncertainty r = 0.000004, k = 1.979635
        20        21     1        0.176833   180974.305444    ;  uncertainty r = 0.000059, k = 6.338437
        20        22     1        0.140382   343901.254785    ;  uncertainty r = 0.000043, k = 8.030225
        22        23     1        0.150844   237009.784424    ;  uncertainty r = 0.000033, k = 5.470365
        22        24     1        0.139807   359336.598730    ;  uncertainty r = 0.000044, k = 2.600122
        23        39     1        0.109438   308937.887598    ;  uncertainty r = 0.000004, k = 1.979635
        23        40     1        0.109438   308937.887598    ;  uncertainty r = 0.000004, k = 1.979635
        23        41     1        0.109438   308937.887598    ;  uncertainty r = 0.000004, k = 1.979635
        24        42     1        0.108762   338230.560889    ;  uncertainty r = 0.000020, k = 1.062513
        43        44     1        0.101549   411179.178027    ;  uncertainty r = 0.000183, k = 17.759074

[ angles ]
;       ai        aj        ak funct           theta             cth
         1         2         3     1      131.490799      799.912859    ;  uncertainty theta = 0.007122, k = 0.161146
         1         2         4     1      115.643898      409.958900    ;  uncertainty theta = 0.009941, k = 0.278481
         2         4        11     1      129.691666      294.711298    ;  uncertainty theta = 0.010379, k = 0.154712
         2         4        43     1      117.816956      350.011270    ;  uncertainty theta = 0.005886, k = 0.283185
         3         2         4     1      115.643898      409.958900    ;  uncertainty theta = 0.009941, k = 0.278481
         4        11        10     1      107.812889      762.004105    ;  uncertainty theta = 0.003106, k = 0.242600
         4        11        12     1      125.834373      348.251252    ;  uncertainty theta = 0.008524, k = 0.203092
         4        43         5     1      106.536964      868.497490    ;  uncertainty theta = 0.005068, k = 0.152568
         4        43        44     1      118.394211      292.716307    ;  uncertainty theta = 0.016468, k = 0.298070
         5         6         7     1      115.827171      518.040278    ;  uncertainty theta = 0.003492, k = 0.041859
         5         6        25     1      123.183731      289.073119    ;  uncertainty theta = 0.004738, k = 0.055778
         5        10         9     1      116.533630      409.504212    ;  uncertainty theta = 0.003650, k = 0.093253
         5        10        11     1      107.680298      686.903999    ;  uncertainty theta = 0.004451, k = 0.337557
         5        43        44     1      119.551903      280.129513    ;  uncertainty theta = 0.028835, k = 0.297033
         6         5        10     1      121.081505      374.550804    ;  uncertainty theta = 0.002459, k = 0.075742
         6         5        43     1      129.651505      408.069792    ;  uncertainty theta = 0.002617, k = 0.175928
         6         7         8     1      123.793472      385.820841    ;  uncertainty theta = 0.001072, k = 0.061762
         6         7        26     1      120.112892      447.827592    ;  uncertainty theta = 0.001484, k = 0.073053
         7         6        25     1      121.862106      286.885738    ;  uncertainty theta = 0.002089, k = 0.052482
         7         8         9     1      120.766541      501.855114    ;  uncertainty theta = 0.001825, k = 0.092932
         7         8        27     1      119.996506      284.871275    ;  uncertainty theta = 0.001520, k = 0.049182
         8         7        26     1      119.606949      455.838328    ;  uncertainty theta = 0.001749, k = 0.098967
         8         9        10     1      120.068466      543.912977    ;  uncertainty theta = 0.003870, k = 0.060811
         8         9        28     1      119.826920      281.725710    ;  uncertainty theta = 0.002305, k = 0.040072
         9         8        27     1      120.594376      282.541301    ;  uncertainty theta = 0.000615, k = 0.038925
         9        10        11     1      132.171906      358.011631    ;  uncertainty theta = 0.003687, k = 0.090455
        10         5        43     1      107.671371      672.630287    ;  uncertainty theta = 0.004209, k = 0.380428
        10         9        28     1      121.690842      286.882674    ;  uncertainty theta = 0.004249, k = 0.067686
        10        11        12     1      125.230553      364.206966    ;  uncertainty theta = 0.008318, k = 0.211383
        11         4        43     1      110.822327      694.767577    ;  uncertainty theta = 0.003331, k = 0.260410
        11        12        13     1      111.535912      545.701979    ;  uncertainty theta = 0.004629, k = 0.049601
        11        12        29     1      107.023758      409.119878    ;  uncertainty theta = 0.002156, k = 0.076181
        11        12        30     1      107.023758      409.119878    ;  uncertainty theta = 0.002156, k = 0.076181
        12        13        14     1      109.889565      550.105216    ;  uncertainty theta = 0.002846, k = 0.052217
        12        13        31     1      107.780540      395.334819    ;  uncertainty theta = 0.002719, k = 0.061247
        12        13        32     1      107.780540      395.334819    ;  uncertainty theta = 0.002719, k = 0.061247
        13        12        29     1      106.925919      401.105057    ;  uncertainty theta = 0.002530, k = 0.096026
        13        12        30     1      106.925919      401.105057    ;  uncertainty theta = 0.002530, k = 0.096026
        13        14        15     1      109.192520      594.886644    ;  uncertainty theta = 0.001695, k = 0.048250
        13        14        33     1      109.835693      407.619797    ;  uncertainty theta = 0.001604, k = 0.043274
        13        14        34     1      109.835693      407.619797    ;  uncertainty theta = 0.001604, k = 0.043274
        14        13        31     1      106.754715      398.540907    ;  uncertainty theta = 0.001622, k = 0.024398
        14        13        32     1      106.754715      398.540907    ;  uncertainty theta = 0.001622, k = 0.024398
        14        15        16     1      110.117920      508.089584    ;  uncertainty theta = 0.000956, k = 0.049455
        15        14        33     1      106.844467      432.990691    ;  uncertainty theta = 0.001757, k = 0.026141
        15        14        34     1      106.844467      432.990691    ;  uncertainty theta = 0.001757, k = 0.026141
        15        16        17     1      119.975548      428.167657    ;  uncertainty theta = 0.002995, k = 0.047025
        15        16        24     1      119.975548      428.167657    ;  uncertainty theta = 0.002995, k = 0.047025
        16        17        18     1      120.525681      514.239750    ;  uncertainty theta = 0.001515, k = 0.050023
        16        17        35     1      119.592369      271.625400    ;  uncertainty theta = 0.003151, k = 0.050743
        16        24        22     1      120.525681      514.239750    ;  uncertainty theta = 0.001515, k = 0.050023
        16        24        42     1      119.592369      271.625400    ;  uncertainty theta = 0.003151, k = 0.050743
        17        16        24     1      120.791954      387.101910    ;  uncertainty theta = 0.003540, k = 0.148311
        17        18        19     1      120.378464      408.996279    ;  uncertainty theta = 0.000973, k = 0.088210
        17        18        20     1      119.937401      438.599790    ;  uncertainty theta = 0.002454, k = 0.211175
        18        17        35     1      118.691208      272.148560    ;  uncertainty theta = 0.003546, k = 0.097065
        18        19        36     1      109.658607      396.131481    ;  uncertainty theta = 0.000999, k = 0.037830
        18        19        37     1      109.658607      396.131481    ;  uncertainty theta = 0.000999, k = 0.037830
        18        19        38     1      109.658607      396.131481    ;  uncertainty theta = 0.000999, k = 0.037830
        18        20        21     1      117.555099      434.425909    ;  uncertainty theta = 0.003791, k = 0.049329
        18        20        22     1      125.322411      385.529207    ;  uncertainty theta = 0.003111, k = 0.204168
        19        18        20     1      120.053810      397.825453    ;  uncertainty theta = 0.002326, k = 0.241901
        20        22        23     1      120.053810      397.825485    ;  uncertainty theta = 0.002326, k = 0.241901
        20        22        24     1      119.937401      438.599854    ;  uncertainty theta = 0.002454, k = 0.211175
        21        20        22     1      117.555099      434.425877    ;  uncertainty theta = 0.003791, k = 0.049329
        22        23        39     1      109.658592      396.131513    ;  uncertainty theta = 0.000999, k = 0.037829
        22        23        40     1      109.658592      396.131513    ;  uncertainty theta = 0.000999, k = 0.037829
        22        23        41     1      109.658592      396.131513    ;  uncertainty theta = 0.000999, k = 0.037829
        22        24        42     1      118.691200      272.148560    ;  uncertainty theta = 0.003546, k = 0.097065
        23        22        24     1      120.378479      408.996279    ;  uncertainty theta = 0.000973, k = 0.088210
        29        12        30     1      104.532616      313.868120    ;  uncertainty theta = 0.003533, k = 0.064476
        31        13        32     1      105.092697      317.561425    ;  uncertainty theta = 0.002566, k = 0.027591
        33        14        34     1      107.450478      331.956853    ;  uncertainty theta = 0.001998, k = 0.040678
        36        19        37     1      106.799843      316.583673    ;  uncertainty theta = 0.001079, k = 0.018177
        36        19        38     1      106.799843      316.583673    ;  uncertainty theta = 0.001079, k = 0.018177
        37        19        38     1      106.799843      316.583673    ;  uncertainty theta = 0.001079, k = 0.018177
        39        23        40     1      106.799843      316.583641    ;  uncertainty theta = 0.001079, k = 0.018177
        39        23        41     1      106.799843      316.583673    ;  uncertainty theta = 0.001079, k = 0.018177
        40        23        41     1      106.799843      316.583641    ;  uncertainty theta = 0.001079, k = 0.018177

[ dihedrals ] ; propers for gromacs 4.5 or higher, use funct 9
;       ai        aj        ak        al funct           phase               k        pn
         1         2         4        11     9        0.000000       -1.372021         1    ;  uncertainty k = 1.492730
         1         2         4        11     9      180.000000        2.371115         2    ;  uncertainty k = 0.300482
         1         2         4        11     9        0.000000        0.292116         3    ;  uncertainty k = 0.252771
         1         2         4        11     9      180.000000        0.155159         4    ;  uncertainty k = 0.093475
         1         2         4        43     9        0.000000        1.821364         1    ;  uncertainty k = 0.780609
         1         2         4        43     9      180.000000        3.766546         2    ;  uncertainty k = 0.556622
         1         2         4        43     9        0.000000        0.763532         3    ;  uncertainty k = 0.256871
         1         2         4        43     9      180.000000        0.176289         4    ;  uncertainty k = 0.153153
         2         4        11        10     9        0.000000        0.665252         1    ;  uncertainty k = 1.335609
         2         4        11        10     9      180.000000       11.308163         2    ;  uncertainty k = 0.312883
         2         4        11        10     9        0.000000        2.103831         3    ;  uncertainty k = 0.250566
         2         4        11        10     9      180.000000        0.681128         4    ;  uncertainty k = 0.166055
         2         4        11        12     9        0.000000        0.204708         1    ;  uncertainty k = 0.747460
         2         4        11        12     9      180.000000        9.233953         2    ;  uncertainty k = 0.447590
         2         4        11        12     9        0.000000        1.675443         3    ;  uncertainty k = 0.293006
         2         4        11        12     9      180.000000        0.426607         4    ;  uncertainty k = 0.323880
         2         4        43         5     9        0.000000       -0.445877         1    ;  uncertainty k = 2.086441
         2         4        43         5     9      180.000000        6.440229         2    ;  uncertainty k = 1.070920
         2         4        43         5     9        0.000000        1.612425         3    ;  uncertainty k = 0.684619
         2         4        43         5     9      180.000000        0.296896         4    ;  uncertainty k = 0.238045
         2         4        43        44     9        0.000000        1.281301         1    ;  uncertainty k = 2.047689
         2         4        43        44     9      180.000000        2.453019         2    ;  uncertainty k = 1.032696
         2         4        43        44     9        0.000000        1.285929         3    ;  uncertainty k = 0.590360
         2         4        43        44     9      180.000000       -0.023891         4    ;  uncertainty k = 0.146318
         3         2         4        11     9        0.000000       -1.372021         1    ;  uncertainty k = 1.492730
         3         2         4        11     9      180.000000        2.371115         2    ;  uncertainty k = 0.300482
         3         2         4        11     9        0.000000        0.292116         3    ;  uncertainty k = 0.252771
         3         2         4        11     9      180.000000        0.155159         4    ;  uncertainty k = 0.093475
         3         2         4        43     9        0.000000        1.821364         1    ;  uncertainty k = 0.780609
         3         2         4        43     9      180.000000        3.766546         2    ;  uncertainty k = 0.556622
         3         2         4        43     9        0.000000        0.763532         3    ;  uncertainty k = 0.256871
         3         2         4        43     9      180.000000        0.176289         4    ;  uncertainty k = 0.153153
         4        11        10         5     9        0.000000        0.138705         1    ;  uncertainty k = 0.433406
         4        11        10         5     9      180.000000       11.969558         2    ;  uncertainty k = 1.321593
         4        11        10         5     9        0.000000       -9.950265         3    ;  uncertainty k = 1.523405
         4        11        10         5     9      180.000000        2.088661         4    ;  uncertainty k = 0.737945
         4        11        10         9     9        0.000000        0.101303         1    ;  uncertainty k = 1.253642
         4        11        10         9     9      180.000000        5.788614         2    ;  uncertainty k = 0.367507
         4        11        10         9     9        0.000000        0.468585         3    ;  uncertainty k = 0.497482
         4        11        10         9     9      180.000000        0.936473         4    ;  uncertainty k = 0.156581
         4        11        12        13     9        0.000000       -0.349976         1    ;  uncertainty k = 1.059919
         4        11        12        13     9      180.000000        1.470982         2    ;  uncertainty k = 0.379967
         4        11        12        13     9        0.000000        0.213574         3    ;  uncertainty k = 0.480671
         4        11        12        13     9      180.000000        0.121645         4    ;  uncertainty k = 0.162937
         4        11        12        29     9        0.000000        1.439359         1    ;  uncertainty k = 0.397283
         4        11        12        29     9      180.000000        2.614207         2    ;  uncertainty k = 0.334496
         4        11        12        29     9        0.000000        0.055715         3    ;  uncertainty k = 0.092065
         4        11        12        29     9      180.000000        0.180012         4    ;  uncertainty k = 0.123046
         4        11        12        30     9        0.000000        1.439359         1    ;  uncertainty k = 0.397283
         4        11        12        30     9      180.000000        2.614207         2    ;  uncertainty k = 0.334496
         4        11        12        30     9        0.000000        0.055715         3    ;  uncertainty k = 0.092065
         4        11        12        30     9      180.000000        0.180012         4    ;  uncertainty k = 0.123046
         4        43         5         6     9        0.000000        0.635370         1    ;  uncertainty k = 1.816002
         4        43         5         6     9      180.000000        6.060638         2    ;  uncertainty k = 1.153835
         4        43         5         6     9        0.000000        0.797016         3    ;  uncertainty k = 0.672302
         4        43         5         6     9      180.000000        0.315909         4    ;  uncertainty k = 0.309678
         4        43         5        10     9        0.000000       -0.256174         1    ;  uncertainty k = 0.988683
         4        43         5        10     9      180.000000       15.153813         2    ;  uncertainty k = 1.062823
         4        43         5        10     9        0.000000       -8.540561         3    ;  uncertainty k = 1.954257
         4        43         5        10     9      180.000000        0.652036         4    ;  uncertainty k = 0.587333
         5         6         7         8     9        0.000000        0.016381         1    ;  uncertainty k = 0.198471
         5         6         7         8     9      180.000000       12.407522         2    ;  uncertainty k = 0.264903
         5         6         7         8     9        0.000000        0.266067         3    ;  uncertainty k = 0.519069
         5         6         7         8     9      180.000000        1.049290         4    ;  uncertainty k = 0.377929
         5         6         7        26     9        0.000000       -0.088308         1    ;  uncertainty k = 0.251102
         5         6         7        26     9      180.000000       11.735046         2    ;  uncertainty k = 0.459735
         5         6         7        26     9        0.000000        1.620370         3    ;  uncertainty k = 0.226023
         5         6         7        26     9      180.000000        1.565517         4    ;  uncertainty k = 0.300272
         5        10         9         8     9        0.000000       -0.013250         1    ;  uncertainty k = 0.375968
         5        10         9         8     9      180.000000       13.422988         2    ;  uncertainty k = 0.205893
         5        10         9         8     9        0.000000       -1.535811         3    ;  uncertainty k = 0.393057
         5        10         9         8     9      180.000000        0.715014         4    ;  uncertainty k = 0.247614
         5        10         9        28     9        0.000000        0.225882         1    ;  uncertainty k = 0.120896
         5        10         9        28     9      180.000000        7.080194         2    ;  uncertainty k = 0.720589
         5        10         9        28     9        0.000000        1.446338         3    ;  uncertainty k = 0.338410
         5        10         9        28     9      180.000000        1.229230         4    ;  uncertainty k = 0.407277
         5        10        11        12     9        0.000000        1.391083         1    ;  uncertainty k = 1.135786
         5        10        11        12     9      180.000000       10.683715         2    ;  uncertainty k = 0.353195
         5        10        11        12     9        0.000000        1.795815         3    ;  uncertainty k = 0.384167
         5        10        11        12     9      180.000000        0.251208         4    ;  uncertainty k = 0.378653
         5        43         4        11     9        0.000000       -0.446953         1    ;  uncertainty k = 0.871925
         5        43         4        11     9      180.000000       14.584357         2    ;  uncertainty k = 0.638156
         5        43         4        11     9        0.000000       -5.787700         3    ;  uncertainty k = 1.274972
         5        43         4        11     9      180.000000        0.756409         4    ;  uncertainty k = 0.331292
         6         5        10         9     9        0.000000       -0.518908         1    ;  uncertainty k = 0.397429
         6         5        10         9     9      180.000000        7.158222         2    ;  uncertainty k = 0.835211
         6         5        10         9     9        0.000000        0.202848         3    ;  uncertainty k = 0.333648
         6         5        10         9     9      180.000000        0.924429         4    ;  uncertainty k = 0.409949
         6         5        10        11     9        0.000000       -0.031656         1    ;  uncertainty k = 0.771596
         6         5        10        11     9      180.000000        7.120814         2    ;  uncertainty k = 0.706483
         6         5        10        11     9        0.000000        0.255253         3    ;  uncertainty k = 0.641788
         6         5        10        11     9      180.000000        1.107793         4    ;  uncertainty k = 0.369770
         6         5        43        44     9        0.000000        1.778465         1    ;  uncertainty k = 0.905980
         6         5        43        44     9      180.000000        1.533302         2    ;  uncertainty k = 0.867273
         6         5        43        44     9        0.000000        1.264379         3    ;  uncertainty k = 0.585093
         6         5        43        44     9      180.000000        0.179523         4    ;  uncertainty k = 0.219935
         6         7         8         9     9        0.000000       -0.052446         1    ;  uncertainty k = 0.291357
         6         7         8         9     9      180.000000        8.780251         2    ;  uncertainty k = 0.459309
         6         7         8         9     9        0.000000       -0.082538         3    ;  uncertainty k = 0.529798
         6         7         8         9     9      180.000000        1.163871         4    ;  uncertainty k = 0.301056
         6         7         8        27     9        0.000000       -0.112531         1    ;  uncertainty k = 0.088584
         6         7         8        27     9      180.000000        5.693042         2    ;  uncertainty k = 0.643561
         6         7         8        27     9        0.000000        1.272045         3    ;  uncertainty k = 0.297248
         6         7         8        27     9      180.000000        1.385030         4    ;  uncertainty k = 0.178422
         7         6         5        10     9        0.000000       -0.042286         1    ;  uncertainty k = 0.518120
         7         6         5        10     9      180.000000       12.507730         2    ;  uncertainty k = 0.253328
         7         6         5        10     9        0.000000       -1.131033         3    ;  uncertainty k = 0.414978
         7         6         5        10     9      180.000000        0.824593         4    ;  uncertainty k = 0.205289
         7         6         5        43     9        0.000000       -0.019149         1    ;  uncertainty k = 0.336003
         7         6         5        43     9      180.000000       10.469407         2    ;  uncertainty k = 0.533994
         7         6         5        43     9        0.000000        0.591410         3    ;  uncertainty k = 0.326491
         7         6         5        43     9      180.000000        1.046153         4    ;  uncertainty k = 0.254179
         7         8         9        10     9        0.000000        0.055886         1    ;  uncertainty k = 0.367454
         7         8         9        10     9      180.000000       16.702848         2    ;  uncertainty k = 0.234489
         7         8         9        10     9        0.000000       -0.473466         3    ;  uncertainty k = 0.691863
         7         8         9        10     9      180.000000        0.707792         4    ;  uncertainty k = 0.476452
         7         8         9        28     9        0.000000        0.076565         1    ;  uncertainty k = 0.166304
         7         8         9        28     9      180.000000        8.831192         2    ;  uncertainty k = 0.511481
         7         8         9        28     9        0.000000        1.578004         3    ;  uncertainty k = 0.280817
         7         8         9        28     9      180.000000        1.907594         4    ;  uncertainty k = 0.347858
         8         7         6        25     9        0.000000        0.205024         1    ;  uncertainty k = 0.265310
         8         7         6        25     9      180.000000        7.090961         2    ;  uncertainty k = 0.614809
         8         7         6        25     9        0.000000        1.548100         3    ;  uncertainty k = 0.318123
         8         7         6        25     9      180.000000        1.588193         4    ;  uncertainty k = 0.170620
         8         9        10        11     9        0.000000        0.253220         1    ;  uncertainty k = 0.120817
         8         9        10        11     9      180.000000        8.996724         2    ;  uncertainty k = 0.308329
         8         9        10        11     9        0.000000        0.485169         3    ;  uncertainty k = 0.401131
         8         9        10        11     9      180.000000        1.139274         4    ;  uncertainty k = 0.138271
         9         8         7        26     9        0.000000        0.158413         1    ;  uncertainty k = 0.113205
         9         8         7        26     9      180.000000        8.350217         2    ;  uncertainty k = 0.627038
         9         8         7        26     9        0.000000        1.479010         3    ;  uncertainty k = 0.399842
         9         8         7        26     9      180.000000        1.553520         4    ;  uncertainty k = 0.172505
         9        10         5        43     9        0.000000       -0.078474         1    ;  uncertainty k = 0.635965
         9        10         5        43     9      180.000000        8.586052         2    ;  uncertainty k = 0.350389
         9        10         5        43     9        0.000000       -0.465387         3    ;  uncertainty k = 0.656308
         9        10         5        43     9      180.000000        1.195099         4    ;  uncertainty k = 0.385008
         9        10        11        12     9        0.000000        0.287872         1    ;  uncertainty k = 1.297850
         9        10        11        12     9      180.000000        5.731806         2    ;  uncertainty k = 0.454792
         9        10        11        12     9        0.000000        1.675056         3    ;  uncertainty k = 0.283497
         9        10        11        12     9      180.000000        0.182662         4    ;  uncertainty k = 0.202889
        10         5         6        25     9        0.000000        0.302703         1    ;  uncertainty k = 0.347967
        10         5         6        25     9      180.000000        6.158342         2    ;  uncertainty k = 0.833183
        10         5         6        25     9        0.000000        1.373819         3    ;  uncertainty k = 0.229117
        10         5         6        25     9      180.000000        1.126648         4    ;  uncertainty k = 0.364968
        10         5        43        44     9        0.000000        6.134550         1    ;  uncertainty k = 2.137270
        10         5        43        44     9      180.000000        4.747063         2    ;  uncertainty k = 1.400185
        10         5        43        44     9        0.000000        1.248385         3    ;  uncertainty k = 0.510859
        10         5        43        44     9      180.000000        0.320654         4    ;  uncertainty k = 0.119907
        10         9         8        27     9        0.000000        0.118758         1    ;  uncertainty k = 0.348271
        10         9         8        27     9      180.000000       10.944724         2    ;  uncertainty k = 0.284713
        10         9         8        27     9        0.000000        1.521139         3    ;  uncertainty k = 0.305163
        10         9         8        27     9      180.000000        1.674123         4    ;  uncertainty k = 0.263179
        10        11         4        43     9        0.000000       -0.393132         1    ;  uncertainty k = 0.607910
        10        11         4        43     9      180.000000       19.839040         2    ;  uncertainty k = 0.354666
        10        11         4        43     9        0.000000       -5.957063         3    ;  uncertainty k = 1.700800
        10        11         4        43     9      180.000000        1.025411         4    ;  uncertainty k = 0.417397
        10        11        12        13     9        0.000000       -0.250711         1    ;  uncertainty k = 0.981411
        10        11        12        13     9      180.000000        1.124591         2    ;  uncertainty k = 0.630187
        10        11        12        13     9        0.000000        0.686750         3    ;  uncertainty k = 0.259868
        10        11        12        13     9      180.000000        0.157249         4    ;  uncertainty k = 0.060291
        10        11        12        29     9        0.000000       -0.711176         1    ;  uncertainty k = 0.439790
        10        11        12        29     9      180.000000        2.059495         2    ;  uncertainty k = 0.383539
        10        11        12        29     9        0.000000        0.779447         3    ;  uncertainty k = 0.142062
        10        11        12        29     9      180.000000        0.210361         4    ;  uncertainty k = 0.076402
        10        11        12        30     9        0.000000       -0.711176         1    ;  uncertainty k = 0.439790
        10        11        12        30     9      180.000000        2.059495         2    ;  uncertainty k = 0.383539
        10        11        12        30     9        0.000000        0.779447         3    ;  uncertainty k = 0.142062
        10        11        12        30     9      180.000000        0.210361         4    ;  uncertainty k = 0.076402
        11         4        43        44     9        0.000000        4.002846         1    ;  uncertainty k = 2.871778
        11         4        43        44     9      180.000000        7.222059         2    ;  uncertainty k = 0.414114
        11         4        43        44     9        0.000000        1.854473         3    ;  uncertainty k = 0.680001
        11         4        43        44     9      180.000000       -0.108218         4    ;  uncertainty k = 0.359456
        11        10         5        43     9        0.000000       -0.219000         1    ;  uncertainty k = 0.472632
        11        10         5        43     9      180.000000       13.003275         2    ;  uncertainty k = 0.650454
        11        10         5        43     9        0.000000       -4.444626         3    ;  uncertainty k = 1.802069
        11        10         5        43     9      180.000000        1.374857         4    ;  uncertainty k = 0.863479
        11        10         9        28     9        0.000000        0.581853         1    ;  uncertainty k = 0.820390
        11        10         9        28     9      180.000000        5.596963         2    ;  uncertainty k = 0.432443
        11        10         9        28     9        0.000000        1.131212         3    ;  uncertainty k = 0.343510
        11        10         9        28     9      180.000000        0.788142         4    ;  uncertainty k = 0.270265
        11        12        13        14     9        0.000000       -2.797521         1    ;  uncertainty k = 1.001297
        11        12        13        14     9      180.000000       -0.438773         2    ;  uncertainty k = 0.388442
        11        12        13        14     9        0.000000        1.346273         3    ;  uncertainty k = 0.124329
        11        12        13        14     9      180.000000       -0.311874         4    ;  uncertainty k = 0.109825
        11        12        13        31     9        0.000000        0.428587         1    ;  uncertainty k = 0.616136
        11        12        13        31     9      180.000000       -0.329644         2    ;  uncertainty k = 0.354693
        11        12        13        31     9        0.000000        1.117197         3    ;  uncertainty k = 0.164143
        11        12        13        31     9      180.000000        0.004866         4    ;  uncertainty k = 0.054513
        11        12        13        32     9        0.000000        0.428587         1    ;  uncertainty k = 0.616136
        11        12        13        32     9      180.000000       -0.329644         2    ;  uncertainty k = 0.354693
        11        12        13        32     9        0.000000        1.117197         3    ;  uncertainty k = 0.164143
        11        12        13        32     9      180.000000        0.004866         4    ;  uncertainty k = 0.054513
        12        11         4        43     9        0.000000        0.422348         1    ;  uncertainty k = 0.702981
        12        11         4        43     9      180.000000       16.424570         2    ;  uncertainty k = 0.487307
        12        11         4        43     9        0.000000        1.226404         3    ;  uncertainty k = 0.521831
        12        11         4        43     9      180.000000        0.749901         4    ;  uncertainty k = 0.332361
        12        13        14        15     9        0.000000       -3.980730         1    ;  uncertainty k = 1.229807
        12        13        14        15     9      180.000000       -2.442804         2    ;  uncertainty k = 0.471284
        12        13        14        15     9        0.000000        2.173876         3    ;  uncertainty k = 0.267815
        12        13        14        15     9      180.000000       -0.465621         4    ;  uncertainty k = 0.163911
        12        13        14        33     9        0.000000       -1.869287         1    ;  uncertainty k = 0.468315
        12        13        14        33     9      180.000000        0.095120         2    ;  uncertainty k = 0.233462
        12        13        14        33     9        0.000000        0.933992         3    ;  uncertainty k = 0.064492
        12        13        14        33     9      180.000000       -0.359472         4    ;  uncertainty k = 0.103212
        12        13        14        34     9        0.000000       -1.869287         1    ;  uncertainty k = 0.468315
        12        13        14        34     9      180.000000        0.095120         2    ;  uncertainty k = 0.233462
        12        13        14        34     9        0.000000        0.933992         3    ;  uncertainty k = 0.064492
        12        13        14        34     9      180.000000       -0.359472         4    ;  uncertainty k = 0.103212
        13        14        15        16     9        0.000000       -1.353411         1    ;  uncertainty k = 0.560758
        13        14        15        16     9      180.000000       -0.151525         2    ;  uncertainty k = 0.267442
        13        14        15        16     9        0.000000        0.754575         3    ;  uncertainty k = 0.100828
        13        14        15        16     9      180.000000        0.496808         4    ;  uncertainty k = 0.064906
        14        13        12        29     9        0.000000       -1.671600         1    ;  uncertainty k = 0.371924
        14        13        12        29     9      180.000000       -0.604412         2    ;  uncertainty k = 0.297865
        14        13        12        29     9        0.000000        0.944747         3    ;  uncertainty k = 0.125510
        14        13        12        29     9      180.000000       -0.352082         4    ;  uncertainty k = 0.062685
        14        13        12        30     9        0.000000       -1.671600         1    ;  uncertainty k = 0.371924
        14        13        12        30     9      180.000000       -0.604412         2    ;  uncertainty k = 0.297865
        14        13        12        30     9        0.000000        0.944747         3    ;  uncertainty k = 0.125510
        14        13        12        30     9      180.000000       -0.352082         4    ;  uncertainty k = 0.062685
        14        15        16        17     9        0.000000        0.547703         1    ;  uncertainty k = 0.316049
        14        15        16        17     9      180.000000        6.969757         2    ;  uncertainty k = 0.117904
        14        15        16        17     9        0.000000        0.630607         3    ;  uncertainty k = 0.108645
        14        15        16        17     9      180.000000        0.195588         4    ;  uncertainty k = 0.037238
        14        15        16        24     9        0.000000        0.547702         1    ;  uncertainty k = 0.316049
        14        15        16        24     9      180.000000        6.969757         2    ;  uncertainty k = 0.117903
        14        15        16        24     9        0.000000        0.630606         3    ;  uncertainty k = 0.108646
        14        15        16        24     9      180.000000        0.195588         4    ;  uncertainty k = 0.037238
        15        14        13        31     9        0.000000        0.249551         1    ;  uncertainty k = 0.542464
        15        14        13        31     9      180.000000       -2.142670         2    ;  uncertainty k = 0.279720
        15        14        13        31     9        0.000000        1.413739         3    ;  uncertainty k = 0.099725
        15        14        13        31     9      180.000000        0.041940         4    ;  uncertainty k = 0.070098
        15        14        13        32     9        0.000000        0.249551         1    ;  uncertainty k = 0.542464
        15        14        13        32     9      180.000000       -2.142670         2    ;  uncertainty k = 0.279720
        15        14        13        32     9        0.000000        1.413739         3    ;  uncertainty k = 0.099725
        15        14        13        32     9      180.000000        0.041940         4    ;  uncertainty k = 0.070098
        15        16        17        18     9        0.000000        0.013006         1    ;  uncertainty k = 0.272650
        15        16        17        18     9      180.000000       10.162812         2    ;  uncertainty k = 0.527138
        15        16        17        18     9        0.000000        1.169094         3    ;  uncertainty k = 0.321813
        15        16        17        18     9      180.000000        1.626286         4    ;  uncertainty k = 0.204628
        15        16        17        35     9        0.000000       -0.267262         1    ;  uncertainty k = 0.272099
        15        16        17        35     9      180.000000        8.579503         2    ;  uncertainty k = 0.254809
        15        16        17        35     9        0.000000        0.692491         3    ;  uncertainty k = 0.124809
        15        16        17        35     9      180.000000        1.020921         4    ;  uncertainty k = 0.191378
        15        16        24        22     9        0.000000        0.013005         1    ;  uncertainty k = 0.272649
        15        16        24        22     9      180.000000       10.162811         2    ;  uncertainty k = 0.527138
        15        16        24        22     9        0.000000        1.169093         3    ;  uncertainty k = 0.321813
        15        16        24        22     9      180.000000        1.626286         4    ;  uncertainty k = 0.204628
        15        16        24        42     9        0.000000       -0.267262         1    ;  uncertainty k = 0.272099
        15        16        24        42     9      180.000000        8.579504         2    ;  uncertainty k = 0.254809
        15        16        24        42     9        0.000000        0.692491         3    ;  uncertainty k = 0.124809
        15        16        24        42     9      180.000000        1.020921         4    ;  uncertainty k = 0.191378
        16        15        14        33     9        0.000000        0.624480         1    ;  uncertainty k = 0.477707
        16        15        14        33     9      180.000000       -1.168698         2    ;  uncertainty k = 0.141594
        16        15        14        33     9        0.000000        0.546859         3    ;  uncertainty k = 0.047096
        16        15        14        33     9      180.000000        0.244923         4    ;  uncertainty k = 0.048761
        16        15        14        34     9        0.000000        0.624480         1    ;  uncertainty k = 0.477707
        16        15        14        34     9      180.000000       -1.168698         2    ;  uncertainty k = 0.141594
        16        15        14        34     9        0.000000        0.546859         3    ;  uncertainty k = 0.047096
        16        15        14        34     9      180.000000        0.244923         4    ;  uncertainty k = 0.048761
        16        17        18        19     9        0.000000        0.145992         1    ;  uncertainty k = 0.145661
        16        17        18        19     9      180.000000       10.410671         2    ;  uncertainty k = 0.466683
        16        17        18        19     9        0.000000        1.319718         3    ;  uncertainty k = 0.225512
        16        17        18        19     9      180.000000        1.756200         4    ;  uncertainty k = 0.123279
        16        17        18        20     9        0.000000       -0.042610         1    ;  uncertainty k = 0.241786
        16        17        18        20     9      180.000000       11.572872         2    ;  uncertainty k = 0.360953
        16        17        18        20     9        0.000000        0.095109         3    ;  uncertainty k = 0.340695
        16        17        18        20     9      180.000000        1.155020         4    ;  uncertainty k = 0.248068
        16        24        22        20     9        0.000000       -0.042610         1    ;  uncertainty k = 0.241785
        16        24        22        20     9      180.000000       11.572871         2    ;  uncertainty k = 0.360953
        16        24        22        20     9        0.000000        0.095109         3    ;  uncertainty k = 0.340695
        16        24        22        20     9      180.000000        1.155020         4    ;  uncertainty k = 0.248068
        16        24        22        23     9        0.000000        0.145992         1    ;  uncertainty k = 0.145661
        16        24        22        23     9      180.000000       10.410670         2    ;  uncertainty k = 0.466683
        16        24        22        23     9        0.000000        1.319718         3    ;  uncertainty k = 0.225512
        16        24        22        23     9      180.000000        1.756200         4    ;  uncertainty k = 0.123279
        17        16        24        22     9        0.000000       -0.062413         1    ;  uncertainty k = 0.159970
        17        16        24        22     9      180.000000        8.644185         2    ;  uncertainty k = 0.549838
        17        16        24        22     9        0.000000        0.044769         3    ;  uncertainty k = 0.484714
        17        16        24        22     9      180.000000        1.249603         4    ;  uncertainty k = 0.340738
        17        16        24        42     9        0.000000        0.229573         1    ;  uncertainty k = 0.284940
        17        16        24        42     9      180.000000        6.281227         2    ;  uncertainty k = 0.540805
        17        16        24        42     9        0.000000        1.498919         3    ;  uncertainty k = 0.322614
        17        16        24        42     9      180.000000        1.614843         4    ;  uncertainty k = 0.102429
        17        18        19        36     9        0.000000        0.064249         1    ;  uncertainty k = 0.241125
        17        18        19        36     9      180.000000        1.764069         2    ;  uncertainty k = 0.101958
        17        18        19        36     9        0.000000        0.221206         3    ;  uncertainty k = 0.066566
        17        18        19        36     9      180.000000        0.226088         4    ;  uncertainty k = 0.040934
        17        18        19        37     9        0.000000        0.064249         1    ;  uncertainty k = 0.241125
        17        18        19        37     9      180.000000        1.764069         2    ;  uncertainty k = 0.101958
        17        18        19        37     9        0.000000        0.221206         3    ;  uncertainty k = 0.066566
        17        18        19        37     9      180.000000        0.226088         4    ;  uncertainty k = 0.040934
        17        18        19        38     9        0.000000        0.064249         1    ;  uncertainty k = 0.241125
        17        18        19        38     9      180.000000        1.764069         2    ;  uncertainty k = 0.101958
        17        18        19        38     9        0.000000        0.221206         3    ;  uncertainty k = 0.066566
        17        18        19        38     9      180.000000        0.226088         4    ;  uncertainty k = 0.040934
        17        18        20        21     9        0.000000        0.196014         1    ;  uncertainty k = 0.128734
        17        18        20        21     9      180.000000        8.981240         2    ;  uncertainty k = 0.509920
        17        18        20        21     9        0.000000        1.481870         3    ;  uncertainty k = 0.327981
        17        18        20        21     9      180.000000        1.593723         4    ;  uncertainty k = 0.160471
        17        18        20        22     9        0.000000       -0.119143         1    ;  uncertainty k = 0.187407
        17        18        20        22     9      180.000000        7.123350         2    ;  uncertainty k = 0.781340
        17        18        20        22     9        0.000000        0.577029         3    ;  uncertainty k = 0.539681
        17        18        20        22     9      180.000000        1.259895         4    ;  uncertainty k = 0.455643
        18        17        16        24     9        0.000000       -0.062414         1    ;  uncertainty k = 0.159969
        18        17        16        24     9      180.000000        8.644184         2    ;  uncertainty k = 0.549838
        18        17        16        24     9        0.000000        0.044770         3    ;  uncertainty k = 0.484714
        18        17        16        24     9      180.000000        1.249603         4    ;  uncertainty k = 0.340738
        18        20        22        23     9        0.000000        0.252591         1    ;  uncertainty k = 0.125542
        18        20        22        23     9      180.000000        7.213959         2    ;  uncertainty k = 0.402834
        18        20        22        23     9        0.000000        1.206011         3    ;  uncertainty k = 0.155090
        18        20        22        23     9      180.000000        1.605822         4    ;  uncertainty k = 0.282734
        18        20        22        24     9        0.000000       -0.119144         1    ;  uncertainty k = 0.187407
        18        20        22        24     9      180.000000        7.123351         2    ;  uncertainty k = 0.781341
        18        20        22        24     9        0.000000        0.577029         3    ;  uncertainty k = 0.539681
        18        20        22        24     9      180.000000        1.259895         4    ;  uncertainty k = 0.455643
        19        18        17        35     9        0.000000       -0.239240         1    ;  uncertainty k = 0.227515
        19        18        17        35     9      180.000000        8.292004         2    ;  uncertainty k = 0.253713
        19        18        17        35     9        0.000000        0.504698         3    ;  uncertainty k = 0.337930
        19        18        17        35     9      180.000000        1.016983         4    ;  uncertainty k = 0.201348
        19        18        20        21     9        0.000000       -0.121780         1    ;  uncertainty k = 0.337211
        19        18        20        21     9      180.000000        9.191366         2    ;  uncertainty k = 0.278719
        19        18        20        21     9        0.000000        0.988064         3    ;  uncertainty k = 0.271084
        19        18        20        21     9      180.000000        1.222911         4    ;  uncertainty k = 0.318129
        19        18        20        22     9        0.000000        0.252592         1    ;  uncertainty k = 0.125542
        19        18        20        22     9      180.000000        7.213959         2    ;  uncertainty k = 0.402834
        19        18        20        22     9        0.000000        1.206011         3    ;  uncertainty k = 0.155090
        19        18        20        22     9      180.000000        1.605822         4    ;  uncertainty k = 0.282734
        20        18        17        35     9        0.000000        0.276661         1    ;  uncertainty k = 0.165642
        20        18        17        35     9      180.000000        7.511754         2    ;  uncertainty k = 0.274705
        20        18        17        35     9        0.000000        1.624213         3    ;  uncertainty k = 0.311176
        20        18        17        35     9      180.000000        1.762843         4    ;  uncertainty k = 0.142030
        20        18        19        36     9        0.000000       -0.059323         1    ;  uncertainty k = 0.357975
        20        18        19        36     9      180.000000        2.363540         2    ;  uncertainty k = 0.193083
        20        18        19        36     9        0.000000        0.498612         3    ;  uncertainty k = 0.041718
        20        18        19        36     9      180.000000        0.369585         4    ;  uncertainty k = 0.037380
        20        18        19        37     9        0.000000       -0.059323         1    ;  uncertainty k = 0.357975
        20        18        19        37     9      180.000000        2.363540         2    ;  uncertainty k = 0.193083
        20        18        19        37     9        0.000000        0.498612         3    ;  uncertainty k = 0.041718
        20        18        19        37     9      180.000000        0.369585         4    ;  uncertainty k = 0.037380
        20        18        19        38     9        0.000000       -0.059323         1    ;  uncertainty k = 0.357975
        20        18        19        38     9      180.000000        2.363540         2    ;  uncertainty k = 0.193083
        20        18        19        38     9        0.000000        0.498612         3    ;  uncertainty k = 0.041718
        20        18        19        38     9      180.000000        0.369585         4    ;  uncertainty k = 0.037380
        20        22        23        39     9        0.000000       -0.059323         1    ;  uncertainty k = 0.357975
        20        22        23        39     9      180.000000        2.363540         2    ;  uncertainty k = 0.193083
        20        22        23        39     9        0.000000        0.498612         3    ;  uncertainty k = 0.041718
        20        22        23        39     9      180.000000        0.369585         4    ;  uncertainty k = 0.037380
        20        22        23        40     9        0.000000       -0.059323         1    ;  uncertainty k = 0.357975
        20        22        23        40     9      180.000000        2.363540         2    ;  uncertainty k = 0.193083
        20        22        23        40     9        0.000000        0.498612         3    ;  uncertainty k = 0.041718
        20        22        23        40     9      180.000000        0.369585         4    ;  uncertainty k = 0.037380
        20        22        23        41     9        0.000000       -0.059323         1    ;  uncertainty k = 0.357975
        20        22        23        41     9      180.000000        2.363540         2    ;  uncertainty k = 0.193083
        20        22        23        41     9        0.000000        0.498612         3    ;  uncertainty k = 0.041718
        20        22        23        41     9      180.000000        0.369585         4    ;  uncertainty k = 0.037380
        20        22        24        42     9        0.000000        0.276661         1    ;  uncertainty k = 0.165641
        20        22        24        42     9      180.000000        7.511754         2    ;  uncertainty k = 0.274705
        20        22        24        42     9        0.000000        1.624213         3    ;  uncertainty k = 0.311176
        20        22        24        42     9      180.000000        1.762843         4    ;  uncertainty k = 0.142030
        21        20        22        23     9        0.000000       -0.121781         1    ;  uncertainty k = 0.337211
        21        20        22        23     9      180.000000        9.191366         2    ;  uncertainty k = 0.278719
        21        20        22        23     9        0.000000        0.988064         3    ;  uncertainty k = 0.271084
        21        20        22        23     9      180.000000        1.222911         4    ;  uncertainty k = 0.318129
        21        20        22        24     9        0.000000        0.196013         1    ;  uncertainty k = 0.128734
        21        20        22        24     9      180.000000        8.981239         2    ;  uncertainty k = 0.509920
        21        20        22        24     9        0.000000        1.481870         3    ;  uncertainty k = 0.327981
        21        20        22        24     9      180.000000        1.593722         4    ;  uncertainty k = 0.160471
        23        22        24        42     9        0.000000       -0.239239         1    ;  uncertainty k = 0.227515
        23        22        24        42     9      180.000000        8.292003         2    ;  uncertainty k = 0.253712
        23        22        24        42     9        0.000000        0.504699         3    ;  uncertainty k = 0.337930
        23        22        24        42     9      180.000000        1.016983         4    ;  uncertainty k = 0.201348
        24        16        17        35     9        0.000000        0.229574         1    ;  uncertainty k = 0.284941
        24        16        17        35     9      180.000000        6.281227         2    ;  uncertainty k = 0.540805
        24        16        17        35     9        0.000000        1.498919         3    ;  uncertainty k = 0.322615
        24        16        17        35     9      180.000000        1.614843         4    ;  uncertainty k = 0.102429
        24        22        23        39     9        0.000000        0.064249         1    ;  uncertainty k = 0.241125
        24        22        23        39     9      180.000000        1.764070         2    ;  uncertainty k = 0.101958
        24        22        23        39     9        0.000000        0.221206         3    ;  uncertainty k = 0.066566
        24        22        23        39     9      180.000000        0.226087         4    ;  uncertainty k = 0.040934
        24        22        23        40     9        0.000000        0.064249         1    ;  uncertainty k = 0.241125
        24        22        23        40     9      180.000000        1.764070         2    ;  uncertainty k = 0.101958
        24        22        23        40     9        0.000000        0.221206         3    ;  uncertainty k = 0.066566
        24        22        23        40     9      180.000000        0.226087         4    ;  uncertainty k = 0.040934
        24        22        23        41     9        0.000000        0.064249         1    ;  uncertainty k = 0.241125
        24        22        23        41     9      180.000000        1.764070         2    ;  uncertainty k = 0.101958
        24        22        23        41     9        0.000000        0.221206         3    ;  uncertainty k = 0.066566
        24        22        23        41     9      180.000000        0.226087         4    ;  uncertainty k = 0.040934
        25         6         5        43     9        0.000000        0.171188         1    ;  uncertainty k = 0.393359
        25         6         5        43     9      180.000000        6.027361         2    ;  uncertainty k = 0.588989
        25         6         5        43     9        0.000000        1.207065         3    ;  uncertainty k = 0.400137
        25         6         5        43     9      180.000000        0.751463         4    ;  uncertainty k = 0.441730
        25         6         7        26     9        0.000000       -0.281071         1    ;  uncertainty k = 0.359618
        25         6         7        26     9      180.000000        8.030169         2    ;  uncertainty k = 0.498481
        25         6         7        26     9        0.000000        0.765993         3    ;  uncertainty k = 0.291868
        25         6         7        26     9      180.000000        1.001390         4    ;  uncertainty k = 0.303078
        26         7         8        27     9        0.000000        0.007734         1    ;  uncertainty k = 0.145164
        26         7         8        27     9      180.000000        6.953018         2    ;  uncertainty k = 0.306151
        26         7         8        27     9        0.000000        0.652049         3    ;  uncertainty k = 0.345746
        26         7         8        27     9      180.000000        0.900167         4    ;  uncertainty k = 0.224124
        27         8         9        28     9        0.000000       -0.035057         1    ;  uncertainty k = 0.171124
        27         8         9        28     9      180.000000        7.797003         2    ;  uncertainty k = 0.371983
        27         8         9        28     9        0.000000       -0.193582         3    ;  uncertainty k = 0.216984
        27         8         9        28     9      180.000000        0.185002         4    ;  uncertainty k = 0.166819
        29        12        13        31     9        0.000000        0.852998         1    ;  uncertainty k = 0.162312
        29        12        13        31     9      180.000000       -0.684815         2    ;  uncertainty k = 0.290805
        29        12        13        31     9        0.000000        0.190526         3    ;  uncertainty k = 0.067767
        29        12        13        31     9      180.000000        0.009351         4    ;  uncertainty k = 0.042473
        29        12        13        32     9        0.000000        0.852998         1    ;  uncertainty k = 0.162312
        29        12        13        32     9      180.000000       -0.684815         2    ;  uncertainty k = 0.290805
        29        12        13        32     9        0.000000        0.190526         3    ;  uncertainty k = 0.067767
        29        12        13        32     9      180.000000        0.009351         4    ;  uncertainty k = 0.042473
        30        12        13        31     9        0.000000        0.852998         1    ;  uncertainty k = 0.162312
        30        12        13        31     9      180.000000       -0.684815         2    ;  uncertainty k = 0.290805
        30        12        13        31     9        0.000000        0.190526         3    ;  uncertainty k = 0.067767
        30        12        13        31     9      180.000000        0.009351         4    ;  uncertainty k = 0.042473
        30        12        13        32     9        0.000000        0.852998         1    ;  uncertainty k = 0.162312
        30        12        13        32     9      180.000000       -0.684815         2    ;  uncertainty k = 0.290805
        30        12        13        32     9        0.000000        0.190526         3    ;  uncertainty k = 0.067767
        30        12        13        32     9      180.000000        0.009351         4    ;  uncertainty k = 0.042473
        31        13        14        33     9        0.000000        0.461039         1    ;  uncertainty k = 0.142816
        31        13        14        33     9      180.000000       -0.427775         2    ;  uncertainty k = 0.141329
        31        13        14        33     9        0.000000        0.095542         3    ;  uncertainty k = 0.073246
        31        13        14        33     9      180.000000       -0.037844         4    ;  uncertainty k = 0.076606
        31        13        14        34     9        0.000000        0.461039         1    ;  uncertainty k = 0.142816
        31        13        14        34     9      180.000000       -0.427775         2    ;  uncertainty k = 0.141329
        31        13        14        34     9        0.000000        0.095542         3    ;  uncertainty k = 0.073246
        31        13        14        34     9      180.000000       -0.037844         4    ;  uncertainty k = 0.076606
        32        13        14        33     9        0.000000        0.461039         1    ;  uncertainty k = 0.142816
        32        13        14        33     9      180.000000       -0.427775         2    ;  uncertainty k = 0.141329
        32        13        14        33     9        0.000000        0.095542         3    ;  uncertainty k = 0.073246
        32        13        14        33     9      180.000000       -0.037844         4    ;  uncertainty k = 0.076606
        32        13        14        34     9        0.000000        0.461039         1    ;  uncertainty k = 0.142816
        32        13        14        34     9      180.000000       -0.427775         2    ;  uncertainty k = 0.141329
        32        13        14        34     9        0.000000        0.095542         3    ;  uncertainty k = 0.073246
        32        13        14        34     9      180.000000       -0.037844         4    ;  uncertainty k = 0.076606

[ dihedrals ] ; impropers
;       ai        aj        ak        al funct           phase               k        pn
         2         1         3         4     4      180.000000       64.265870         2    ;  uncertainty k = 0.050254
         2         3         4         1     4      180.000000       64.265870         2    ;  uncertainty k = 0.050254
         2         4         1         3     4      180.000000       64.265870         2    ;  uncertainty k = 0.050254
         4         2        11        43     4      180.000000        6.012762         2    ;  uncertainty k = 0.508316
         4        11        43         2     4      180.000000        6.012762         2    ;  uncertainty k = 0.508316
         4        43         2        11     4      180.000000        6.012762         2    ;  uncertainty k = 0.508316
         5         6        10        43     4      180.000000        1.229605         2    ;  uncertainty k = 0.587006
         5        10        43         6     4      180.000000        1.229605         2    ;  uncertainty k = 0.587006
         5        43         6        10     4      180.000000        1.229605         2    ;  uncertainty k = 0.587006
         6         5         7        25     4      180.000000        1.876901         2    ;  uncertainty k = 0.811126
         6         7        25         5     4      180.000000        1.876901         2    ;  uncertainty k = 0.811126
         6        25         5         7     4      180.000000        1.876901         2    ;  uncertainty k = 0.811126
         7         6         8        26     4      180.000000       12.363011         2    ;  uncertainty k = 0.064734
         7         8        26         6     4      180.000000       12.363011         2    ;  uncertainty k = 0.064734
         7        26         6         8     4      180.000000       12.363011         2    ;  uncertainty k = 0.064734
         8         7         9        27     4      180.000000        2.460164         2    ;  uncertainty k = 0.104523
         8         9        27         7     4      180.000000        2.460164         2    ;  uncertainty k = 0.104523
         8        27         7         9     4      180.000000        2.460164         2    ;  uncertainty k = 0.104523
         9         8        10        28     4      180.000000        4.472802         2    ;  uncertainty k = 0.199732
         9        10        28         8     4      180.000000        4.472802         2    ;  uncertainty k = 0.199732
         9        28         8        10     4      180.000000        4.472802         2    ;  uncertainty k = 0.199732
        11         4        10        12     4      180.000000        2.102598         2    ;  uncertainty k = 0.557461
        11        10        12         4     4      180.000000        2.102598         2    ;  uncertainty k = 0.557461
        11        12         4        10     4      180.000000        2.102598         2    ;  uncertainty k = 0.557461
        16        15        17        24     4      180.000000       19.484179         2    ;  uncertainty k = 0.084613
        16        17        24        15     4      180.000000       19.484179         2    ;  uncertainty k = 0.084613
        16        24        15        17     4      180.000000       19.484179         2    ;  uncertainty k = 0.084613
        17        16        18        35     4      180.000000        1.802843         2    ;  uncertainty k = 0.423561
        17        18        35        16     4      180.000000        1.802843         2    ;  uncertainty k = 0.423561
        17        35        16        18     4      180.000000        1.802843         2    ;  uncertainty k = 0.423561
        18        17        19        20     4      180.000000       15.574144         2    ;  uncertainty k = 0.081448
        18        19        20        17     4      180.000000       15.574144         2    ;  uncertainty k = 0.081448
        18        20        17        19     4      180.000000       15.574144         2    ;  uncertainty k = 0.081448
        20        18        21        22     4      180.000000       10.845938         2    ;  uncertainty k = 0.216128
        20        21        22        18     4      180.000000       10.845938         2    ;  uncertainty k = 0.216128
        20        22        18        21     4      180.000000       10.845938         2    ;  uncertainty k = 0.216128
        22        20        23        24     4      180.000000       15.574143         2    ;  uncertainty k = 0.081448
        22        23        24        20     4      180.000000       15.574143         2    ;  uncertainty k = 0.081448
        22        24        20        23     4      180.000000       15.574143         2    ;  uncertainty k = 0.081448
        24        16        22        42     4      180.000000        1.802843         2    ;  uncertainty k = 0.423562
        24        22        42        16     4      180.000000        1.802843         2    ;  uncertainty k = 0.423562
        24        42        16        22     4      180.000000        1.802843         2    ;  uncertainty k = 0.423562

[ pairs ]
;       ai        aj funct
         1        11     1
         1        43     1
         2         5     1
         2        10     1
         2        12     1
         2        44     1
         3        11     1
         3        43     1
         4         6     1
         4         9     1
         4        13     1
         4        29     1
         4        30     1
         5         8     1
         5        12     1
         5        26     1
         5        28     1
         6         9     1
         6        11     1
         6        27     1
         6        44     1
         7        10     1
         7        28     1
         7        43     1
         8        11     1
         8        25     1
         9        12     1
         9        26     1
         9        43     1
        10        13     1
        10        25     1
        10        27     1
        10        29     1
        10        30     1
        10        44     1
        11        14     1
        11        28     1
        11        31     1
        11        32     1
        11        44     1
        12        15     1
        12        33     1
        12        34     1
        12        43     1
        13        16     1
        14        17     1
        14        24     1
        14        29     1
        14        30     1
        15        18     1
        15        22     1
        15        31     1
        15        32     1
        15        35     1
        15        42     1
        16        19     1
        16        20     1
        16        23     1
        16        33     1
        16        34     1
        17        21     1
        17        22     1
        17        36     1
        17        37     1
        17        38     1
        17        42     1
        18        23     1
        18        24     1
        19        21     1
        19        22     1
        19        35     1
        20        35     1
        20        36     1
        20        37     1
        20        38     1
        20        39     1
        20        40     1
        20        41     1
        20        42     1
        21        23     1
        21        24     1
        23        42     1
        24        35     1
        24        39     1
        24        40     1
        24        41     1
        25        26     1
        25        43     1
        26        27     1
        27        28     1
        29        31     1
        29        32     1
        30        31     1
        30        32     1
        31        33     1
        31        34     1
        32        33     1
        32        34     1
