; ITP file created by ByteFF-joint-25, 2026-02-17 09:16:25.501937

[ atomtypes ]
;name           bonded.type        at.num        mass        charge   ptype           sigma         epsilon
 o0bf                                   8      0.0000       0.00000       A     3.04807e-01     6.12011e-01    ;  uncertainty sigma = 0.000021, epsilon = 0.001104
 c1bf                                   6      0.0000       0.00000       A     3.31519e-01     4.13981e-01    ;  uncertainty sigma = 0.000027, epsilon = 0.002458
 o2bf                                   8      0.0000       0.00000       A     3.04807e-01     6.12011e-01    ;  uncertainty sigma = 0.000021, epsilon = 0.001104
 c3bf                                   6      0.0000       0.00000       A     3.31453e-01     4.13092e-01    ;  uncertainty sigma = 0.000036, epsilon = 0.001759
 c4bf                                   6      0.0000       0.00000       A     3.31539e-01     4.13254e-01    ;  uncertainty sigma = 0.000010, epsilon = 0.000675
 c5bf                                   6      0.0000       0.00000       A     3.31524e-01     4.13279e-01    ;  uncertainty sigma = 0.000006, epsilon = 0.000719
 c6bf                                   6      0.0000       0.00000       A     3.31525e-01     4.13349e-01    ;  uncertainty sigma = 0.000005, epsilon = 0.000507
 c7bf                                   6      0.0000       0.00000       A     3.31524e-01     4.13320e-01    ;  uncertainty sigma = 0.000004, epsilon = 0.000654
 c8bf                                   6      0.0000       0.00000       A     3.31524e-01     4.13102e-01    ;  uncertainty sigma = 0.000006, epsilon = 0.000665
 c9bf                                   6      0.0000       0.00000       A     3.31534e-01     4.13239e-01    ;  uncertainty sigma = 0.000011, epsilon = 0.001066
 c10bf                                  6      0.0000       0.00000       A     3.31549e-01     4.13092e-01    ;  uncertainty sigma = 0.000005, epsilon = 0.001029
 c11bf                                  6      0.0000       0.00000       A     3.39769e-01     4.50477e-01    ;  uncertainty sigma = 0.000019, epsilon = 0.001058
 c12bf                                  6      0.0000       0.00000       A     3.39755e-01     4.50608e-01    ;  uncertainty sigma = 0.000006, epsilon = 0.000953
 c13bf                                  6      0.0000       0.00000       A     3.39779e-01     4.50532e-01    ;  uncertainty sigma = 0.000006, epsilon = 0.000794
 o14bf                                  8      0.0000       0.00000       A     3.15614e-01     3.03436e-01    ;  uncertainty sigma = 0.000012, epsilon = 0.000588
 c15bf                                  6      0.0000       0.00000       A     3.31528e-01     4.13444e-01    ;  uncertainty sigma = 0.000005, epsilon = 0.000608
 c16bf                                  6      0.0000       0.00000       A     3.31520e-01     4.13182e-01    ;  uncertainty sigma = 0.000005, epsilon = 0.000813
 c17bf                                  6      0.0000       0.00000       A     3.31517e-01     4.13212e-01    ;  uncertainty sigma = 0.000007, epsilon = 0.000574
 c18bf                                  6      0.0000       0.00000       A     3.39772e-01     4.51018e-01    ;  uncertainty sigma = 0.000005, epsilon = 0.000462
 c19bf                                  6      0.0000       0.00000       A     3.31522e-01     4.13276e-01    ;  uncertainty sigma = 0.000010, epsilon = 0.000456
 cl20bf                                17      0.0000       0.00000       A     3.46645e-01     1.10392e+00    ;  uncertainty sigma = 0.000011, epsilon = 0.001474
 c21bf                                  6      0.0000       0.00000       A     3.31517e-01     4.13212e-01    ;  uncertainty sigma = 0.000007, epsilon = 0.000574
 c22bf                                  6      0.0000       0.00000       A     3.39772e-01     4.51018e-01    ;  uncertainty sigma = 0.000005, epsilon = 0.000462
 c23bf                                  6      0.0000       0.00000       A     3.31520e-01     4.13182e-01    ;  uncertainty sigma = 0.000005, epsilon = 0.000813
 h24bf                                  1      0.0000       0.00000       A     2.62568e-01     6.69867e-02    ;  uncertainty sigma = 0.000008, epsilon = 0.000518
 h25bf                                  1      0.0000       0.00000       A     2.62567e-01     6.69871e-02    ;  uncertainty sigma = 0.000012, epsilon = 0.000553
 h26bf                                  1      0.0000       0.00000       A     2.62563e-01     6.69792e-02    ;  uncertainty sigma = 0.000011, epsilon = 0.000555
 h27bf                                  1      0.0000       0.00000       A     2.62566e-01     6.69359e-02    ;  uncertainty sigma = 0.000011, epsilon = 0.000323
 h28bf                                  1      0.0000       0.00000       A     2.60038e-01     8.64862e-02    ;  uncertainty sigma = 0.000012, epsilon = 0.000717
 h29bf                                  1      0.0000       0.00000       A     2.60038e-01     8.64862e-02    ;  uncertainty sigma = 0.000012, epsilon = 0.000717
 h30bf                                  1      0.0000       0.00000       A     2.60032e-01     8.63750e-02    ;  uncertainty sigma = 0.000011, epsilon = 0.000877
 h31bf                                  1      0.0000       0.00000       A     2.60032e-01     8.63750e-02    ;  uncertainty sigma = 0.000011, epsilon = 0.000877
 h32bf                                  1      0.0000       0.00000       A     2.42190e-01     8.69771e-02    ;  uncertainty sigma = 0.000031, epsilon = 0.000462
 h33bf                                  1      0.0000       0.00000       A     2.42190e-01     8.69771e-02    ;  uncertainty sigma = 0.000031, epsilon = 0.000462
 h34bf                                  1      0.0000       0.00000       A     2.62561e-01     6.71446e-02    ;  uncertainty sigma = 0.000003, epsilon = 0.000531
 h35bf                                  1      0.0000       0.00000       A     2.60030e-01     8.67436e-02    ;  uncertainty sigma = 0.000006, epsilon = 0.000502
 h36bf                                  1      0.0000       0.00000       A     2.60030e-01     8.67436e-02    ;  uncertainty sigma = 0.000006, epsilon = 0.000502
 h37bf                                  1      0.0000       0.00000       A     2.60030e-01     8.67436e-02    ;  uncertainty sigma = 0.000006, epsilon = 0.000502
 h38bf                                  1      0.0000       0.00000       A     2.60030e-01     8.67435e-02    ;  uncertainty sigma = 0.000006, epsilon = 0.000502
 h39bf                                  1      0.0000       0.00000       A     2.60030e-01     8.67435e-02    ;  uncertainty sigma = 0.000006, epsilon = 0.000502
 h40bf                                  1      0.0000       0.00000       A     2.60030e-01     8.67435e-02    ;  uncertainty sigma = 0.000006, epsilon = 0.000502
 h41bf                                  1      0.0000       0.00000       A     2.62561e-01     6.71447e-02    ;  uncertainty sigma = 0.000003, epsilon = 0.000531
 c42bf                                  6      0.0000       0.00000       A     3.39801e-01     4.52146e-01    ;  uncertainty sigma = 0.000017, epsilon = 0.001466
 h43bf                                  1      0.0000       0.00000       A     2.42199e-01     8.67368e-02    ;  uncertainty sigma = 0.000023, epsilon = 0.000598
 h44bf                                  1      0.0000       0.00000       A     2.42199e-01     8.67367e-02    ;  uncertainty sigma = 0.000023, epsilon = 0.000598
 h45bf                                  1      0.0000       0.00000       A     2.42199e-01     8.67368e-02    ;  uncertainty sigma = 0.000023, epsilon = 0.000598
 n46bf                                  7      0.0000       0.00000       A     3.20586e-01     8.55633e-01    ;  uncertainty sigma = 0.000052, epsilon = 0.001973

[ moleculetype ]
;name             nrexcl
 MOL                   3

[ atoms ]
;       nr            type      resi   res      atom      cgnr      charge          mass ; qtot
         1            o0bf         1   UNL        o0         1    -0.82426       15.9990 ; qtot   -0.824
         2            c1bf         1   UNL        c1         2     0.92035       12.0110 ; qtot    0.096
         3            o2bf         1   UNL        o2         3    -0.82426       15.9990 ; qtot   -0.728
         4            c3bf         1   UNL        c3         4    -0.08453       12.0110 ; qtot   -0.813
         5            c4bf         1   UNL        c4         5    -0.06831       12.0110 ; qtot   -0.881
         6            c5bf         1   UNL        c5         6    -0.16186       12.0110 ; qtot   -1.043
         7            c6bf         1   UNL        c6         7    -0.11347       12.0110 ; qtot   -1.156
         8            c7bf         1   UNL        c7         8    -0.15972       12.0110 ; qtot   -1.316
         9            c8bf         1   UNL        c8         9    -0.09953       12.0110 ; qtot   -1.416
        10            c9bf         1   UNL        c9        10    -0.09523       12.0110 ; qtot   -1.511
        11           c10bf         1   UNL       c10        11    -0.19085       12.0110 ; qtot   -1.702
        12           c11bf         1   UNL       c11        12    -0.00625       12.0110 ; qtot   -1.708
        13           c12bf         1   UNL       c12        13    -0.09687       12.0110 ; qtot   -1.805
        14           c13bf         1   UNL       c13        14     0.13840       12.0110 ; qtot   -1.666
        15           o14bf         1   UNL       o14        15    -0.33483       15.9990 ; qtot   -2.001
        16           c15bf         1   UNL       c15        16     0.14818       12.0110 ; qtot   -1.853
        17           c16bf         1   UNL       c16        17    -0.18812       12.0110 ; qtot   -2.041
        18           c17bf         1   UNL       c17        18    -0.02830       12.0110 ; qtot   -2.069
        19           c18bf         1   UNL       c18        19    -0.04813       12.0110 ; qtot   -2.118
        20           c19bf         1   UNL       c19        20     0.00735       12.0110 ; qtot   -2.110
        21          cl20bf         1   UNL      cl20        21    -0.13305       35.4530 ; qtot   -2.243
        22           c21bf         1   UNL       c21        22    -0.02830       12.0110 ; qtot   -2.272
        23           c22bf         1   UNL       c22        23    -0.04813       12.0110 ; qtot   -2.320
        24           c23bf         1   UNL       c23        24    -0.18812       12.0110 ; qtot   -2.508
        25           h24bf         1   UNL       h24        25     0.13247        1.0080 ; qtot   -2.375
        26           h25bf         1   UNL       h25        26     0.12936        1.0080 ; qtot   -2.246
        27           h26bf         1   UNL       h26        27     0.12900        1.0080 ; qtot   -2.117
        28           h27bf         1   UNL       h27        28     0.13404        1.0080 ; qtot   -1.983
        29           h28bf         1   UNL       h28        29     0.04201        1.0080 ; qtot   -1.941
        30           h29bf         1   UNL       h29        30     0.04201        1.0080 ; qtot   -1.899
        31           h30bf         1   UNL       h30        31     0.05420        1.0080 ; qtot   -1.845
        32           h31bf         1   UNL       h31        32     0.05420        1.0080 ; qtot   -1.791
        33           h32bf         1   UNL       h32        33     0.04465        1.0080 ; qtot   -1.746
        34           h33bf         1   UNL       h33        34     0.04465        1.0080 ; qtot   -1.701
        35           h34bf         1   UNL       h34        35     0.14550        1.0080 ; qtot   -1.556
        36           h35bf         1   UNL       h35        36     0.05149        1.0080 ; qtot   -1.504
        37           h36bf         1   UNL       h36        37     0.05149        1.0080 ; qtot   -1.453
        38           h37bf         1   UNL       h37        38     0.05149        1.0080 ; qtot   -1.401
        39           h38bf         1   UNL       h38        39     0.05149        1.0080 ; qtot   -1.350
        40           h39bf         1   UNL       h39        40     0.05149        1.0080 ; qtot   -1.298
        41           h40bf         1   UNL       h40        41     0.05149        1.0080 ; qtot   -1.247
        42           h41bf         1   UNL       h41        42     0.14550        1.0080 ; qtot   -1.101
        43           c42bf         1   UNL       c42        43     0.02339       12.0110 ; qtot   -1.078
        44           h43bf         1   UNL       h43        44     0.04707        1.0080 ; qtot   -1.031
        45           h44bf         1   UNL       h44        45     0.04707        1.0080 ; qtot   -0.984
        46           h45bf         1   UNL       h45        46     0.04707        1.0080 ; qtot   -0.937
        47           n46bf         1   UNL       n46        47    -0.06329       14.0070 ; qtot   -1.000

[ bonds ]
;       ai        aj funct               r               k
         1         2     1        0.126214   545643.754883    ;  uncertainty r = 0.000074, k = 9.631290
         2         3     1        0.126214   545643.754883    ;  uncertainty r = 0.000074, k = 9.631290
         2         4     1        0.153629   165972.249634    ;  uncertainty r = 0.000139, k = 57.911456
         4        11     1        0.138849   384472.417969    ;  uncertainty r = 0.000105, k = 33.051865
         4        47     1        0.140068   271707.999805    ;  uncertainty r = 0.000182, k = 23.603786
         5         6     1        0.140065   362296.400781    ;  uncertainty r = 0.000073, k = 5.961410
         5        10     1        0.142956   352142.565186    ;  uncertainty r = 0.000122, k = 20.537299
         5        47     1        0.137621   287915.075195    ;  uncertainty r = 0.000086, k = 18.572002
         6         7     1        0.139331   368841.587451    ;  uncertainty r = 0.000046, k = 1.686959
         6        25     1        0.108816   338137.733496    ;  uncertainty r = 0.000025, k = 1.310209
         7         8     1        0.141071   350626.682373    ;  uncertainty r = 0.000041, k = 2.740427
         7        26     1        0.108793   334449.817383    ;  uncertainty r = 0.000016, k = 1.390201
         8         9     1        0.139162   367062.314893    ;  uncertainty r = 0.000025, k = 2.347635
         8        27     1        0.108813   335291.367285    ;  uncertainty r = 0.000018, k = 0.841713
         9        10     1        0.140642   363480.760840    ;  uncertainty r = 0.000070, k = 7.460273
         9        28     1        0.108822   336786.054297    ;  uncertainty r = 0.000023, k = 2.496665
        10        11     1        0.143558   260148.627246    ;  uncertainty r = 0.000096, k = 24.564699
        11        12     1        0.150098   233611.637891    ;  uncertainty r = 0.000160, k = 11.391074
        12        13     1        0.153902   206666.795361    ;  uncertainty r = 0.000081, k = 7.038035
        12        29     1        0.109701   309281.310645    ;  uncertainty r = 0.000027, k = 1.355461
        12        30     1        0.109701   309281.310645    ;  uncertainty r = 0.000027, k = 1.355461
        13        14     1        0.152189   210087.912524    ;  uncertainty r = 0.000032, k = 1.940784
        13        31     1        0.109664   307643.385986    ;  uncertainty r = 0.000028, k = 1.424205
        13        32     1        0.109664   307643.385986    ;  uncertainty r = 0.000028, k = 1.424205
        14        15     1        0.142379   234164.158789    ;  uncertainty r = 0.000042, k = 5.084621
        14        33     1        0.109775   308073.507520    ;  uncertainty r = 0.000024, k = 1.219195
        14        34     1        0.109775   308073.507520    ;  uncertainty r = 0.000024, k = 1.219195
        15        16     1        0.136677   322087.507031    ;  uncertainty r = 0.000044, k = 4.431121
        16        17     1        0.139703   363780.566504    ;  uncertainty r = 0.000052, k = 5.101447
        16        24     1        0.139703   363780.566504    ;  uncertainty r = 0.000052, k = 5.101467
        17        18     1        0.139807   359336.598730    ;  uncertainty r = 0.000044, k = 2.600126
        17        35     1        0.108762   338230.560889    ;  uncertainty r = 0.000020, k = 1.062513
        18        19     1        0.150844   237009.784424    ;  uncertainty r = 0.000033, k = 5.470347
        18        20     1        0.140382   343901.254785    ;  uncertainty r = 0.000043, k = 8.030230
        19        36     1        0.109438   308937.887598    ;  uncertainty r = 0.000004, k = 1.979635
        19        37     1        0.109438   308937.887598    ;  uncertainty r = 0.000004, k = 1.979635
        19        38     1        0.109438   308937.887598    ;  uncertainty r = 0.000004, k = 1.979635
        20        21     1        0.176833   180974.305444    ;  uncertainty r = 0.000059, k = 6.338437
        20        22     1        0.140382   343901.254785    ;  uncertainty r = 0.000043, k = 8.030225
        22        23     1        0.150844   237009.784424    ;  uncertainty r = 0.000033, k = 5.470365
        22        24     1        0.139807   359336.598730    ;  uncertainty r = 0.000044, k = 2.600122
        23        39     1        0.109438   308937.887598    ;  uncertainty r = 0.000004, k = 1.979635
        23        40     1        0.109438   308937.887598    ;  uncertainty r = 0.000004, k = 1.979635
        23        41     1        0.109438   308937.887598    ;  uncertainty r = 0.000004, k = 1.979635
        24        42     1        0.108762   338230.560889    ;  uncertainty r = 0.000020, k = 1.062513
        43        44     1        0.109485   309279.165527    ;  uncertainty r = 0.000057, k = 5.667973
        43        45     1        0.109485   309279.165527    ;  uncertainty r = 0.000057, k = 5.667973
        43        46     1        0.109485   309279.165527    ;  uncertainty r = 0.000057, k = 5.667973
        43        47     1        0.145520   257316.663965    ;  uncertainty r = 0.000137, k = 7.908972

[ angles ]
;       ai        aj        ak funct           theta             cth
         1         2         3     1      131.192535      808.524419    ;  uncertainty theta = 0.006297, k = 0.124761
         1         2         4     1      115.423691      377.289755    ;  uncertainty theta = 0.012081, k = 0.578060
         2         4        11     1      126.291336      299.386568    ;  uncertainty theta = 0.009540, k = 0.176366
         2         4        47     1      117.616600      360.791665    ;  uncertainty theta = 0.009200, k = 0.452543
         3         2         4     1      115.423691      377.289755    ;  uncertainty theta = 0.012081, k = 0.578060
         4        11        10     1      107.844643      743.356908    ;  uncertainty theta = 0.006405, k = 0.279529
         4        11        12     1      125.656509      347.081397    ;  uncertainty theta = 0.005782, k = 0.120906
         4        47         5     1      108.800522      842.903433    ;  uncertainty theta = 0.007237, k = 0.263658
         4        47        43     1      121.187302      412.751128    ;  uncertainty theta = 0.004014, k = 0.177939
         5         6         7     1      117.745201      530.337258    ;  uncertainty theta = 0.002036, k = 0.137662
         5         6        25     1      122.226135      288.395811    ;  uncertainty theta = 0.001707, k = 0.062926
         5        10         9     1      117.231041      407.980317    ;  uncertainty theta = 0.003790, k = 0.066215
         5        10        11     1      107.162865      696.468796    ;  uncertainty theta = 0.005458, k = 0.204514
         5        47        43     1      120.308861      410.433348    ;  uncertainty theta = 0.002533, k = 0.177179
         6         5        10     1      121.028725      371.097165    ;  uncertainty theta = 0.004854, k = 0.120130
         6         5        47     1      127.928322      389.271032    ;  uncertainty theta = 0.001668, k = 0.144190
         6         7         8     1      122.248024      519.764097    ;  uncertainty theta = 0.001788, k = 0.037545
         6         7        26     1      119.498886      285.529526    ;  uncertainty theta = 0.001685, k = 0.040883
         7         6        25     1      121.049500      285.488858    ;  uncertainty theta = 0.001748, k = 0.062151
         7         8         9     1      121.364243      519.659235    ;  uncertainty theta = 0.001527, k = 0.043136
         7         8        27     1      119.658302      288.053071    ;  uncertainty theta = 0.001611, k = 0.029869
         8         7        26     1      119.911270      287.951019    ;  uncertainty theta = 0.001171, k = 0.056684
         8         9        10     1      119.055054      547.849650    ;  uncertainty theta = 0.002649, k = 0.058557
         8         9        28     1      120.621201      285.381858    ;  uncertainty theta = 0.001559, k = 0.045108
         9         8        27     1      119.846214      288.037334    ;  uncertainty theta = 0.001912, k = 0.029712
         9        10        11     1      132.148712      362.090099    ;  uncertainty theta = 0.004021, k = 0.117725
        10         5        47     1      108.504166      692.414780    ;  uncertainty theta = 0.003330, k = 0.134515
        10         9        28     1      121.426163      287.416527    ;  uncertainty theta = 0.003173, k = 0.074913
        10        11        12     1      125.307213      370.030097    ;  uncertainty theta = 0.007477, k = 0.176004
        11         4        47     1      111.583336      704.919600    ;  uncertainty theta = 0.005630, k = 0.070418
        11        12        13     1      111.555016      547.537268    ;  uncertainty theta = 0.004422, k = 0.054012
        11        12        29     1      107.114052      409.123709    ;  uncertainty theta = 0.002553, k = 0.061271
        11        12        30     1      107.114052      409.123709    ;  uncertainty theta = 0.002553, k = 0.061271
        12        13        14     1      109.928177      550.097363    ;  uncertainty theta = 0.002550, k = 0.059270
        12        13        31     1      107.799072      395.226350    ;  uncertainty theta = 0.002485, k = 0.064544
        12        13        32     1      107.799072      395.226350    ;  uncertainty theta = 0.002485, k = 0.064544
        13        12        29     1      106.898178      401.808859    ;  uncertainty theta = 0.002790, k = 0.097339
        13        12        30     1      106.898178      401.808859    ;  uncertainty theta = 0.002790, k = 0.097339
        13        14        15     1      109.192520      594.886644    ;  uncertainty theta = 0.001695, k = 0.048250
        13        14        33     1      109.835693      407.619797    ;  uncertainty theta = 0.001604, k = 0.043274
        13        14        34     1      109.835693      407.619797    ;  uncertainty theta = 0.001604, k = 0.043274
        14        13        31     1      106.754715      398.540907    ;  uncertainty theta = 0.001622, k = 0.024398
        14        13        32     1      106.754715      398.540907    ;  uncertainty theta = 0.001622, k = 0.024398
        14        15        16     1      110.117920      508.089584    ;  uncertainty theta = 0.000956, k = 0.049455
        15        14        33     1      106.844467      432.990691    ;  uncertainty theta = 0.001757, k = 0.026141
        15        14        34     1      106.844467      432.990691    ;  uncertainty theta = 0.001757, k = 0.026141
        15        16        17     1      119.975548      428.167657    ;  uncertainty theta = 0.002995, k = 0.047025
        15        16        24     1      119.975548      428.167657    ;  uncertainty theta = 0.002995, k = 0.047025
        16        17        18     1      120.525681      514.239750    ;  uncertainty theta = 0.001515, k = 0.050023
        16        17        35     1      119.592369      271.625400    ;  uncertainty theta = 0.003151, k = 0.050743
        16        24        22     1      120.525681      514.239750    ;  uncertainty theta = 0.001515, k = 0.050023
        16        24        42     1      119.592369      271.625400    ;  uncertainty theta = 0.003151, k = 0.050743
        17        16        24     1      120.791954      387.101910    ;  uncertainty theta = 0.003540, k = 0.148311
        17        18        19     1      120.378464      408.996279    ;  uncertainty theta = 0.000973, k = 0.088210
        17        18        20     1      119.937401      438.599790    ;  uncertainty theta = 0.002454, k = 0.211175
        18        17        35     1      118.691208      272.148560    ;  uncertainty theta = 0.003546, k = 0.097065
        18        19        36     1      109.658607      396.131481    ;  uncertainty theta = 0.000999, k = 0.037830
        18        19        37     1      109.658607      396.131481    ;  uncertainty theta = 0.000999, k = 0.037830
        18        19        38     1      109.658607      396.131481    ;  uncertainty theta = 0.000999, k = 0.037830
        18        20        21     1      117.555099      434.425909    ;  uncertainty theta = 0.003791, k = 0.049329
        18        20        22     1      125.322411      385.529207    ;  uncertainty theta = 0.003111, k = 0.204168
        19        18        20     1      120.053810      397.825453    ;  uncertainty theta = 0.002326, k = 0.241901
        20        22        23     1      120.053810      397.825485    ;  uncertainty theta = 0.002326, k = 0.241901
        20        22        24     1      119.937401      438.599854    ;  uncertainty theta = 0.002454, k = 0.211175
        21        20        22     1      117.555099      434.425877    ;  uncertainty theta = 0.003791, k = 0.049329
        22        23        39     1      109.658592      396.131513    ;  uncertainty theta = 0.000999, k = 0.037829
        22        23        40     1      109.658592      396.131513    ;  uncertainty theta = 0.000999, k = 0.037829
        22        23        41     1      109.658592      396.131513    ;  uncertainty theta = 0.000999, k = 0.037829
        22        24        42     1      118.691200      272.148560    ;  uncertainty theta = 0.003546, k = 0.097065
        23        22        24     1      120.378479      408.996279    ;  uncertainty theta = 0.000973, k = 0.088210
        29        12        30     1      104.535194      313.603364    ;  uncertainty theta = 0.003792, k = 0.055103
        31        13        32     1      105.092697      317.561425    ;  uncertainty theta = 0.002566, k = 0.027591
        33        14        34     1      107.450478      331.956853    ;  uncertainty theta = 0.001998, k = 0.040678
        36        19        37     1      106.799843      316.583673    ;  uncertainty theta = 0.001079, k = 0.018177
        36        19        38     1      106.799843      316.583673    ;  uncertainty theta = 0.001079, k = 0.018177
        37        19        38     1      106.799843      316.583673    ;  uncertainty theta = 0.001079, k = 0.018177
        39        23        40     1      106.799843      316.583705    ;  uncertainty theta = 0.001079, k = 0.018176
        39        23        41     1      106.799843      316.583705    ;  uncertainty theta = 0.001079, k = 0.018176
        40        23        41     1      106.799843      316.583705    ;  uncertainty theta = 0.001079, k = 0.018176
        44        43        45     1      107.489273      320.470644    ;  uncertainty theta = 0.006452, k = 0.046099
        44        43        46     1      107.489273      320.470644    ;  uncertainty theta = 0.006452, k = 0.046099
        44        43        47     1      108.273056      468.409736    ;  uncertainty theta = 0.003375, k = 0.023585
        45        43        46     1      107.489273      320.470644    ;  uncertainty theta = 0.006452, k = 0.046099
        45        43        47     1      108.273056      468.409736    ;  uncertainty theta = 0.003375, k = 0.023585
        46        43        47     1      108.273056      468.409672    ;  uncertainty theta = 0.003375, k = 0.023585

[ dihedrals ] ; propers for gromacs 4.5 or higher, use funct 9
;       ai        aj        ak        al funct           phase               k        pn
         1         2         4        11     9        0.000000       -0.769889         1    ;  uncertainty k = 0.881214
         1         2         4        11     9      180.000000        2.790331         2    ;  uncertainty k = 0.333340
         1         2         4        11     9        0.000000        0.169909         3    ;  uncertainty k = 0.232382
         1         2         4        11     9      180.000000        0.104335         4    ;  uncertainty k = 0.153246
         1         2         4        47     9        0.000000        1.466326         1    ;  uncertainty k = 1.198534
         1         2         4        47     9      180.000000        5.215256         2    ;  uncertainty k = 0.364927
         1         2         4        47     9        0.000000        0.656582         3    ;  uncertainty k = 0.231491
         1         2         4        47     9      180.000000        0.142350         4    ;  uncertainty k = 0.174443
         2         4        11        10     9        0.000000        0.303521         1    ;  uncertainty k = 0.814498
         2         4        11        10     9      180.000000       11.527118         2    ;  uncertainty k = 0.430111
         2         4        11        10     9        0.000000        1.977102         3    ;  uncertainty k = 0.464080
         2         4        11        10     9      180.000000        0.885954         4    ;  uncertainty k = 0.212571
         2         4        11        12     9        0.000000       -0.111261         1    ;  uncertainty k = 0.515863
         2         4        11        12     9      180.000000        9.235440         2    ;  uncertainty k = 0.522574
         2         4        11        12     9        0.000000        1.524999         3    ;  uncertainty k = 0.370317
         2         4        11        12     9      180.000000        0.474480         4    ;  uncertainty k = 0.324096
         2         4        47         5     9        0.000000       -0.262495         1    ;  uncertainty k = 1.784786
         2         4        47         5     9      180.000000        6.672232         2    ;  uncertainty k = 0.833178
         2         4        47         5     9        0.000000        1.819092         3    ;  uncertainty k = 0.644883
         2         4        47         5     9      180.000000        0.322445         4    ;  uncertainty k = 0.192460
         2         4        47        43     9        0.000000       -0.028923         1    ;  uncertainty k = 1.270321
         2         4        47        43     9      180.000000        4.799254         2    ;  uncertainty k = 0.285732
         2         4        47        43     9        0.000000        1.190075         3    ;  uncertainty k = 0.304559
         2         4        47        43     9      180.000000       -0.126753         4    ;  uncertainty k = 0.256908
         3         2         4        11     9        0.000000       -0.769889         1    ;  uncertainty k = 0.881214
         3         2         4        11     9      180.000000        2.790331         2    ;  uncertainty k = 0.333340
         3         2         4        11     9        0.000000        0.169909         3    ;  uncertainty k = 0.232382
         3         2         4        11     9      180.000000        0.104335         4    ;  uncertainty k = 0.153246
         3         2         4        47     9        0.000000        1.466326         1    ;  uncertainty k = 1.198534
         3         2         4        47     9      180.000000        5.215256         2    ;  uncertainty k = 0.364927
         3         2         4        47     9        0.000000        0.656582         3    ;  uncertainty k = 0.231491
         3         2         4        47     9      180.000000        0.142350         4    ;  uncertainty k = 0.174443
         4        11        10         5     9        0.000000       -0.055720         1    ;  uncertainty k = 0.604747
         4        11        10         5     9      180.000000       11.849929         2    ;  uncertainty k = 1.502005
         4        11        10         5     9        0.000000       -9.569160         3    ;  uncertainty k = 2.036685
         4        11        10         5     9      180.000000        2.146005         4    ;  uncertainty k = 0.638510
         4        11        10         9     9        0.000000        0.135525         1    ;  uncertainty k = 1.356278
         4        11        10         9     9      180.000000        5.400984         2    ;  uncertainty k = 0.104773
         4        11        10         9     9        0.000000        0.367531         3    ;  uncertainty k = 0.537250
         4        11        10         9     9      180.000000        0.922220         4    ;  uncertainty k = 0.180354
         4        11        12        13     9        0.000000       -0.245831         1    ;  uncertainty k = 1.056256
         4        11        12        13     9      180.000000        1.785399         2    ;  uncertainty k = 0.503483
         4        11        12        13     9        0.000000        0.119169         3    ;  uncertainty k = 0.409114
         4        11        12        13     9      180.000000        0.109044         4    ;  uncertainty k = 0.143396
         4        11        12        29     9        0.000000        1.915768         1    ;  uncertainty k = 0.438469
         4        11        12        29     9      180.000000        2.568468         2    ;  uncertainty k = 0.379998
         4        11        12        29     9        0.000000       -0.069329         3    ;  uncertainty k = 0.092598
         4        11        12        29     9      180.000000        0.178984         4    ;  uncertainty k = 0.151017
         4        11        12        30     9        0.000000        1.915768         1    ;  uncertainty k = 0.438469
         4        11        12        30     9      180.000000        2.568468         2    ;  uncertainty k = 0.379998
         4        11        12        30     9        0.000000       -0.069329         3    ;  uncertainty k = 0.092598
         4        11        12        30     9      180.000000        0.178984         4    ;  uncertainty k = 0.151017
         4        47         5         6     9        0.000000        0.668791         1    ;  uncertainty k = 1.579169
         4        47         5         6     9      180.000000        6.369205         2    ;  uncertainty k = 0.593908
         4        47         5         6     9        0.000000        0.858256         3    ;  uncertainty k = 0.508951
         4        47         5         6     9      180.000000        0.308116         4    ;  uncertainty k = 0.210609
         4        47         5        10     9        0.000000        0.221273         1    ;  uncertainty k = 0.818780
         4        47         5        10     9      180.000000       13.389857         2    ;  uncertainty k = 0.942844
         4        47         5        10     9        0.000000       -6.992944         3    ;  uncertainty k = 1.283933
         4        47         5        10     9      180.000000        0.926919         4    ;  uncertainty k = 0.957422
         4        47        43        44     9        0.000000        0.706233         1    ;  uncertainty k = 0.933190
         4        47        43        44     9      180.000000        0.183083         2    ;  uncertainty k = 0.531900
         4        47        43        44     9        0.000000        0.206168         3    ;  uncertainty k = 0.139861
         4        47        43        44     9      180.000000        0.239414         4    ;  uncertainty k = 0.101806
         4        47        43        45     9        0.000000        0.706233         1    ;  uncertainty k = 0.933190
         4        47        43        45     9      180.000000        0.183083         2    ;  uncertainty k = 0.531900
         4        47        43        45     9        0.000000        0.206168         3    ;  uncertainty k = 0.139861
         4        47        43        45     9      180.000000        0.239414         4    ;  uncertainty k = 0.101806
         4        47        43        46     9        0.000000        0.706233         1    ;  uncertainty k = 0.933190
         4        47        43        46     9      180.000000        0.183083         2    ;  uncertainty k = 0.531900
         4        47        43        46     9        0.000000        0.206168         3    ;  uncertainty k = 0.139861
         4        47        43        46     9      180.000000        0.239414         4    ;  uncertainty k = 0.101806
         5         6         7         8     9        0.000000       -0.004371         1    ;  uncertainty k = 0.364340
         5         6         7         8     9      180.000000       16.507916         2    ;  uncertainty k = 0.241761
         5         6         7         8     9        0.000000       -0.431717         3    ;  uncertainty k = 0.413209
         5         6         7         8     9      180.000000        0.640260         4    ;  uncertainty k = 0.298252
         5         6         7        26     9        0.000000        0.075238         1    ;  uncertainty k = 0.310753
         5         6         7        26     9      180.000000       10.524096         2    ;  uncertainty k = 0.365633
         5         6         7        26     9        0.000000        1.411602         3    ;  uncertainty k = 0.347121
         5         6         7        26     9      180.000000        1.572319         4    ;  uncertainty k = 0.294168
         5        10         9         8     9        0.000000       -0.057070         1    ;  uncertainty k = 0.434743
         5        10         9         8     9      180.000000       13.424749         2    ;  uncertainty k = 0.179342
         5        10         9         8     9        0.000000       -1.490073         3    ;  uncertainty k = 0.297441
         5        10         9         8     9      180.000000        0.722415         4    ;  uncertainty k = 0.240118
         5        10         9        28     9        0.000000        0.303031         1    ;  uncertainty k = 0.139579
         5        10         9        28     9      180.000000        7.077833         2    ;  uncertainty k = 0.769910
         5        10         9        28     9        0.000000        1.416154         3    ;  uncertainty k = 0.372412
         5        10         9        28     9      180.000000        1.249588         4    ;  uncertainty k = 0.351143
         5        10        11        12     9        0.000000        1.040107         1    ;  uncertainty k = 0.854423
         5        10        11        12     9      180.000000       10.129644         2    ;  uncertainty k = 0.174909
         5        10        11        12     9        0.000000        1.744360         3    ;  uncertainty k = 0.447474
         5        10        11        12     9      180.000000        0.286178         4    ;  uncertainty k = 0.368099
         5        47         4        11     9        0.000000       -0.486151         1    ;  uncertainty k = 0.761095
         5        47         4        11     9      180.000000       15.001035         2    ;  uncertainty k = 0.587482
         5        47         4        11     9        0.000000       -5.611267         3    ;  uncertainty k = 0.655073
         5        47         4        11     9      180.000000        0.821549         4    ;  uncertainty k = 0.473322
         5        47        43        44     9        0.000000       -1.015308         1    ;  uncertainty k = 0.473795
         5        47        43        44     9      180.000000       -0.607946         2    ;  uncertainty k = 0.294048
         5        47        43        44     9        0.000000        1.245573         3    ;  uncertainty k = 0.235752
         5        47        43        44     9      180.000000        0.228448         4    ;  uncertainty k = 0.062560
         5        47        43        45     9        0.000000       -1.015308         1    ;  uncertainty k = 0.473795
         5        47        43        45     9      180.000000       -0.607946         2    ;  uncertainty k = 0.294048
         5        47        43        45     9        0.000000        1.245573         3    ;  uncertainty k = 0.235752
         5        47        43        45     9      180.000000        0.228448         4    ;  uncertainty k = 0.062560
         5        47        43        46     9        0.000000       -1.015308         1    ;  uncertainty k = 0.473795
         5        47        43        46     9      180.000000       -0.607946         2    ;  uncertainty k = 0.294048
         5        47        43        46     9        0.000000        1.245573         3    ;  uncertainty k = 0.235752
         5        47        43        46     9      180.000000        0.228448         4    ;  uncertainty k = 0.062560
         6         5        10         9     9        0.000000       -0.536065         1    ;  uncertainty k = 0.668795
         6         5        10         9     9      180.000000        7.622800         2    ;  uncertainty k = 0.800281
         6         5        10         9     9        0.000000        0.142148         3    ;  uncertainty k = 0.516499
         6         5        10         9     9      180.000000        0.895472         4    ;  uncertainty k = 0.391900
         6         5        10        11     9        0.000000       -0.027674         1    ;  uncertainty k = 0.527152
         6         5        10        11     9      180.000000        7.210356         2    ;  uncertainty k = 0.452136
         6         5        10        11     9        0.000000        0.172045         3    ;  uncertainty k = 0.738062
         6         5        10        11     9      180.000000        1.178422         4    ;  uncertainty k = 0.346273
         6         5        47        43     9        0.000000        0.087734         1    ;  uncertainty k = 1.784607
         6         5        47        43     9      180.000000        3.695304         2    ;  uncertainty k = 0.773790
         6         5        47        43     9        0.000000        0.817121         3    ;  uncertainty k = 0.189466
         6         5        47        43     9      180.000000        0.139797         4    ;  uncertainty k = 0.147564
         6         7         8         9     9        0.000000       -0.201005         1    ;  uncertainty k = 0.216906
         6         7         8         9     9      180.000000       12.964665         2    ;  uncertainty k = 0.312592
         6         7         8         9     9        0.000000       -0.898190         3    ;  uncertainty k = 0.704200
         6         7         8         9     9      180.000000        0.608236         4    ;  uncertainty k = 0.215082
         6         7         8        27     9        0.000000        0.078316         1    ;  uncertainty k = 0.091348
         6         7         8        27     9      180.000000        7.075305         2    ;  uncertainty k = 0.399969
         6         7         8        27     9        0.000000        1.377411         3    ;  uncertainty k = 0.280277
         6         7         8        27     9      180.000000        1.644687         4    ;  uncertainty k = 0.211949
         7         6         5        10     9        0.000000        0.045081         1    ;  uncertainty k = 0.347169
         7         6         5        10     9      180.000000       12.472793         2    ;  uncertainty k = 0.075783
         7         6         5        10     9        0.000000       -1.231624         3    ;  uncertainty k = 0.156143
         7         6         5        10     9      180.000000        0.843955         4    ;  uncertainty k = 0.248011
         7         6         5        47     9        0.000000        0.226606         1    ;  uncertainty k = 0.462657
         7         6         5        47     9      180.000000       10.728437         2    ;  uncertainty k = 0.430768
         7         6         5        47     9        0.000000        0.684230         3    ;  uncertainty k = 0.218747
         7         6         5        47     9      180.000000        1.128885         4    ;  uncertainty k = 0.188584
         7         8         9        10     9        0.000000        0.031365         1    ;  uncertainty k = 0.469812
         7         8         9        10     9      180.000000       17.070470         2    ;  uncertainty k = 0.274350
         7         8         9        10     9        0.000000       -0.451331         3    ;  uncertainty k = 0.495560
         7         8         9        10     9      180.000000        0.562124         4    ;  uncertainty k = 0.370268
         7         8         9        28     9        0.000000        0.156514         1    ;  uncertainty k = 0.189363
         7         8         9        28     9      180.000000        8.763484         2    ;  uncertainty k = 0.528331
         7         8         9        28     9        0.000000        1.537133         3    ;  uncertainty k = 0.252884
         7         8         9        28     9      180.000000        1.871338         4    ;  uncertainty k = 0.287606
         8         7         6        25     9        0.000000        0.172157         1    ;  uncertainty k = 0.187575
         8         7         6        25     9      180.000000        8.831635         2    ;  uncertainty k = 0.610476
         8         7         6        25     9        0.000000        1.588922         3    ;  uncertainty k = 0.257090
         8         7         6        25     9      180.000000        1.892939         4    ;  uncertainty k = 0.304604
         8         9        10        11     9        0.000000        0.164741         1    ;  uncertainty k = 0.291494
         8         9        10        11     9      180.000000        9.165127         2    ;  uncertainty k = 0.461647
         8         9        10        11     9        0.000000        0.524753         3    ;  uncertainty k = 0.455084
         8         9        10        11     9      180.000000        1.176526         4    ;  uncertainty k = 0.194779
         9         8         7        26     9        0.000000       -0.049470         1    ;  uncertainty k = 0.132774
         9         8         7        26     9      180.000000        6.923236         2    ;  uncertainty k = 0.418662
         9         8         7        26     9        0.000000        1.346625         3    ;  uncertainty k = 0.236877
         9         8         7        26     9      180.000000        1.583416         4    ;  uncertainty k = 0.175391
         9        10         5        47     9        0.000000        0.343580         1    ;  uncertainty k = 0.195247
         9        10         5        47     9      180.000000        8.171551         2    ;  uncertainty k = 0.319199
         9        10         5        47     9        0.000000       -0.094806         3    ;  uncertainty k = 0.609482
         9        10         5        47     9      180.000000        1.282641         4    ;  uncertainty k = 0.430200
         9        10        11        12     9        0.000000        0.289929         1    ;  uncertainty k = 1.471117
         9        10        11        12     9      180.000000        5.661902         2    ;  uncertainty k = 0.459622
         9        10        11        12     9        0.000000        1.704880         3    ;  uncertainty k = 0.295419
         9        10        11        12     9      180.000000        0.185038         4    ;  uncertainty k = 0.219073
        10         5         6        25     9        0.000000        0.221809         1    ;  uncertainty k = 0.589470
        10         5         6        25     9      180.000000        6.584048         2    ;  uncertainty k = 0.884995
        10         5         6        25     9        0.000000        1.267814         3    ;  uncertainty k = 0.215714
        10         5         6        25     9      180.000000        1.204223         4    ;  uncertainty k = 0.314742
        10         5        47        43     9        0.000000        1.743177         1    ;  uncertainty k = 0.873866
        10         5        47        43     9      180.000000        5.440780         2    ;  uncertainty k = 0.780912
        10         5        47        43     9        0.000000        1.481468         3    ;  uncertainty k = 0.313361
        10         5        47        43     9      180.000000        0.265037         4    ;  uncertainty k = 0.179163
        10         9         8        27     9        0.000000        0.122909         1    ;  uncertainty k = 0.353155
        10         9         8        27     9      180.000000       11.000896         2    ;  uncertainty k = 0.392995
        10         9         8        27     9        0.000000        1.498551         3    ;  uncertainty k = 0.338482
        10         9         8        27     9      180.000000        1.660786         4    ;  uncertainty k = 0.327219
        10        11         4        47     9        0.000000       -0.334571         1    ;  uncertainty k = 0.350625
        10        11         4        47     9      180.000000       20.169412         2    ;  uncertainty k = 0.341196
        10        11         4        47     9        0.000000       -5.378619         3    ;  uncertainty k = 1.277194
        10        11         4        47     9      180.000000        1.276491         4    ;  uncertainty k = 0.344328
        10        11        12        13     9        0.000000       -0.496865         1    ;  uncertainty k = 0.937432
        10        11        12        13     9      180.000000        1.239021         2    ;  uncertainty k = 0.488455
        10        11        12        13     9        0.000000        0.643019         3    ;  uncertainty k = 0.228474
        10        11        12        13     9      180.000000        0.146043         4    ;  uncertainty k = 0.065054
        10        11        12        29     9        0.000000       -0.679164         1    ;  uncertainty k = 0.383421
        10        11        12        29     9      180.000000        1.998262         2    ;  uncertainty k = 0.370057
        10        11        12        29     9        0.000000        0.768277         3    ;  uncertainty k = 0.110336
        10        11        12        29     9      180.000000        0.229094         4    ;  uncertainty k = 0.085956
        10        11        12        30     9        0.000000       -0.679164         1    ;  uncertainty k = 0.383421
        10        11        12        30     9      180.000000        1.998262         2    ;  uncertainty k = 0.370057
        10        11        12        30     9        0.000000        0.768277         3    ;  uncertainty k = 0.110336
        10        11        12        30     9      180.000000        0.229094         4    ;  uncertainty k = 0.085956
        11         4        47        43     9        0.000000        1.604799         1    ;  uncertainty k = 1.793206
        11         4        47        43     9      180.000000        8.411923         2    ;  uncertainty k = 0.597932
        11         4        47        43     9        0.000000        1.876858         3    ;  uncertainty k = 0.675100
        11         4        47        43     9      180.000000        0.007097         4    ;  uncertainty k = 0.230552
        11        10         5        47     9        0.000000       -0.198263         1    ;  uncertainty k = 0.336721
        11        10         5        47     9      180.000000       13.019523         2    ;  uncertainty k = 0.767504
        11        10         5        47     9        0.000000       -4.498365         3    ;  uncertainty k = 1.234408
        11        10         5        47     9      180.000000        1.359574         4    ;  uncertainty k = 0.850061
        11        10         9        28     9        0.000000        0.487753         1    ;  uncertainty k = 0.842716
        11        10         9        28     9      180.000000        5.663640         2    ;  uncertainty k = 0.478172
        11        10         9        28     9        0.000000        1.131916         3    ;  uncertainty k = 0.354087
        11        10         9        28     9      180.000000        0.784688         4    ;  uncertainty k = 0.272792
        11        12        13        14     9        0.000000       -2.895517         1    ;  uncertainty k = 0.964637
        11        12        13        14     9      180.000000       -0.426074         2    ;  uncertainty k = 0.329639
        11        12        13        14     9        0.000000        1.351801         3    ;  uncertainty k = 0.127874
        11        12        13        14     9      180.000000       -0.306244         4    ;  uncertainty k = 0.111874
        11        12        13        31     9        0.000000        0.381243         1    ;  uncertainty k = 0.661258
        11        12        13        31     9      180.000000       -0.296069         2    ;  uncertainty k = 0.259278
        11        12        13        31     9        0.000000        1.142547         3    ;  uncertainty k = 0.187723
        11        12        13        31     9      180.000000       -0.005520         4    ;  uncertainty k = 0.057518
        11        12        13        32     9        0.000000        0.381243         1    ;  uncertainty k = 0.661258
        11        12        13        32     9      180.000000       -0.296069         2    ;  uncertainty k = 0.259278
        11        12        13        32     9        0.000000        1.142547         3    ;  uncertainty k = 0.187723
        11        12        13        32     9      180.000000       -0.005520         4    ;  uncertainty k = 0.057518
        12        11         4        47     9        0.000000        0.376397         1    ;  uncertainty k = 0.626327
        12        11         4        47     9      180.000000       15.482003         2    ;  uncertainty k = 0.432409
        12        11         4        47     9        0.000000        1.634054         3    ;  uncertainty k = 0.423265
        12        11         4        47     9      180.000000        1.017916         4    ;  uncertainty k = 0.411976
        12        13        14        15     9        0.000000       -3.974231         1    ;  uncertainty k = 1.204520
        12        13        14        15     9      180.000000       -2.451329         2    ;  uncertainty k = 0.484717
        12        13        14        15     9        0.000000        2.171985         3    ;  uncertainty k = 0.261339
        12        13        14        15     9      180.000000       -0.460733         4    ;  uncertainty k = 0.171806
        12        13        14        33     9        0.000000       -1.891989         1    ;  uncertainty k = 0.489873
        12        13        14        33     9      180.000000        0.069693         2    ;  uncertainty k = 0.236840
        12        13        14        33     9        0.000000        0.938476         3    ;  uncertainty k = 0.060204
        12        13        14        33     9      180.000000       -0.366495         4    ;  uncertainty k = 0.101438
        12        13        14        34     9        0.000000       -1.891989         1    ;  uncertainty k = 0.489873
        12        13        14        34     9      180.000000        0.069693         2    ;  uncertainty k = 0.236840
        12        13        14        34     9        0.000000        0.938476         3    ;  uncertainty k = 0.060204
        12        13        14        34     9      180.000000       -0.366495         4    ;  uncertainty k = 0.101438
        13        14        15        16     9        0.000000       -1.353411         1    ;  uncertainty k = 0.560758
        13        14        15        16     9      180.000000       -0.151525         2    ;  uncertainty k = 0.267442
        13        14        15        16     9        0.000000        0.754575         3    ;  uncertainty k = 0.100828
        13        14        15        16     9      180.000000        0.496808         4    ;  uncertainty k = 0.064906
        14        13        12        29     9        0.000000       -1.666339         1    ;  uncertainty k = 0.393495
        14        13        12        29     9      180.000000       -0.613377         2    ;  uncertainty k = 0.289552
        14        13        12        29     9        0.000000        0.943985         3    ;  uncertainty k = 0.125682
        14        13        12        29     9      180.000000       -0.349809         4    ;  uncertainty k = 0.064541
        14        13        12        30     9        0.000000       -1.666339         1    ;  uncertainty k = 0.393495
        14        13        12        30     9      180.000000       -0.613377         2    ;  uncertainty k = 0.289552
        14        13        12        30     9        0.000000        0.943985         3    ;  uncertainty k = 0.125682
        14        13        12        30     9      180.000000       -0.349809         4    ;  uncertainty k = 0.064541
        14        15        16        17     9        0.000000        0.547703         1    ;  uncertainty k = 0.316049
        14        15        16        17     9      180.000000        6.969757         2    ;  uncertainty k = 0.117904
        14        15        16        17     9        0.000000        0.630607         3    ;  uncertainty k = 0.108645
        14        15        16        17     9      180.000000        0.195588         4    ;  uncertainty k = 0.037238
        14        15        16        24     9        0.000000        0.547702         1    ;  uncertainty k = 0.316049
        14        15        16        24     9      180.000000        6.969757         2    ;  uncertainty k = 0.117903
        14        15        16        24     9        0.000000        0.630606         3    ;  uncertainty k = 0.108646
        14        15        16        24     9      180.000000        0.195588         4    ;  uncertainty k = 0.037238
        15        14        13        31     9        0.000000        0.249551         1    ;  uncertainty k = 0.542464
        15        14        13        31     9      180.000000       -2.142670         2    ;  uncertainty k = 0.279720
        15        14        13        31     9        0.000000        1.413739         3    ;  uncertainty k = 0.099725
        15        14        13        31     9      180.000000        0.041940         4    ;  uncertainty k = 0.070098
        15        14        13        32     9        0.000000        0.249551         1    ;  uncertainty k = 0.542464
        15        14        13        32     9      180.000000       -2.142670         2    ;  uncertainty k = 0.279720
        15        14        13        32     9        0.000000        1.413739         3    ;  uncertainty k = 0.099725
        15        14        13        32     9      180.000000        0.041940         4    ;  uncertainty k = 0.070098
        15        16        17        18     9        0.000000        0.013006         1    ;  uncertainty k = 0.272650
        15        16        17        18     9      180.000000       10.162812         2    ;  uncertainty k = 0.527138
        15        16        17        18     9        0.000000        1.169094         3    ;  uncertainty k = 0.321813
        15        16        17        18     9      180.000000        1.626286         4    ;  uncertainty k = 0.204628
        15        16        17        35     9        0.000000       -0.267262         1    ;  uncertainty k = 0.272099
        15        16        17        35     9      180.000000        8.579503         2    ;  uncertainty k = 0.254809
        15        16        17        35     9        0.000000        0.692491         3    ;  uncertainty k = 0.124809
        15        16        17        35     9      180.000000        1.020921         4    ;  uncertainty k = 0.191378
        15        16        24        22     9        0.000000        0.013005         1    ;  uncertainty k = 0.272649
        15        16        24        22     9      180.000000       10.162811         2    ;  uncertainty k = 0.527138
        15        16        24        22     9        0.000000        1.169093         3    ;  uncertainty k = 0.321813
        15        16        24        22     9      180.000000        1.626286         4    ;  uncertainty k = 0.204628
        15        16        24        42     9        0.000000       -0.267262         1    ;  uncertainty k = 0.272099
        15        16        24        42     9      180.000000        8.579504         2    ;  uncertainty k = 0.254809
        15        16        24        42     9        0.000000        0.692491         3    ;  uncertainty k = 0.124809
        15        16        24        42     9      180.000000        1.020921         4    ;  uncertainty k = 0.191378
        16        15        14        33     9        0.000000        0.624480         1    ;  uncertainty k = 0.477707
        16        15        14        33     9      180.000000       -1.168698         2    ;  uncertainty k = 0.141594
        16        15        14        33     9        0.000000        0.546859         3    ;  uncertainty k = 0.047096
        16        15        14        33     9      180.000000        0.244923         4    ;  uncertainty k = 0.048761
        16        15        14        34     9        0.000000        0.624480         1    ;  uncertainty k = 0.477707
        16        15        14        34     9      180.000000       -1.168698         2    ;  uncertainty k = 0.141594
        16        15        14        34     9        0.000000        0.546859         3    ;  uncertainty k = 0.047096
        16        15        14        34     9      180.000000        0.244923         4    ;  uncertainty k = 0.048761
        16        17        18        19     9        0.000000        0.145992         1    ;  uncertainty k = 0.145661
        16        17        18        19     9      180.000000       10.410671         2    ;  uncertainty k = 0.466683
        16        17        18        19     9        0.000000        1.319718         3    ;  uncertainty k = 0.225512
        16        17        18        19     9      180.000000        1.756200         4    ;  uncertainty k = 0.123279
        16        17        18        20     9        0.000000       -0.042610         1    ;  uncertainty k = 0.241786
        16        17        18        20     9      180.000000       11.572872         2    ;  uncertainty k = 0.360953
        16        17        18        20     9        0.000000        0.095109         3    ;  uncertainty k = 0.340695
        16        17        18        20     9      180.000000        1.155020         4    ;  uncertainty k = 0.248068
        16        24        22        20     9        0.000000       -0.042610         1    ;  uncertainty k = 0.241785
        16        24        22        20     9      180.000000       11.572871         2    ;  uncertainty k = 0.360953
        16        24        22        20     9        0.000000        0.095109         3    ;  uncertainty k = 0.340695
        16        24        22        20     9      180.000000        1.155020         4    ;  uncertainty k = 0.248068
        16        24        22        23     9        0.000000        0.145992         1    ;  uncertainty k = 0.145661
        16        24        22        23     9      180.000000       10.410670         2    ;  uncertainty k = 0.466683
        16        24        22        23     9        0.000000        1.319718         3    ;  uncertainty k = 0.225512
        16        24        22        23     9      180.000000        1.756200         4    ;  uncertainty k = 0.123279
        17        16        24        22     9        0.000000       -0.062413         1    ;  uncertainty k = 0.159970
        17        16        24        22     9      180.000000        8.644185         2    ;  uncertainty k = 0.549838
        17        16        24        22     9        0.000000        0.044769         3    ;  uncertainty k = 0.484714
        17        16        24        22     9      180.000000        1.249603         4    ;  uncertainty k = 0.340738
        17        16        24        42     9        0.000000        0.229573         1    ;  uncertainty k = 0.284940
        17        16        24        42     9      180.000000        6.281227         2    ;  uncertainty k = 0.540805
        17        16        24        42     9        0.000000        1.498919         3    ;  uncertainty k = 0.322614
        17        16        24        42     9      180.000000        1.614843         4    ;  uncertainty k = 0.102429
        17        18        19        36     9        0.000000        0.064249         1    ;  uncertainty k = 0.241125
        17        18        19        36     9      180.000000        1.764069         2    ;  uncertainty k = 0.101958
        17        18        19        36     9        0.000000        0.221206         3    ;  uncertainty k = 0.066566
        17        18        19        36     9      180.000000        0.226088         4    ;  uncertainty k = 0.040934
        17        18        19        37     9        0.000000        0.064249         1    ;  uncertainty k = 0.241125
        17        18        19        37     9      180.000000        1.764069         2    ;  uncertainty k = 0.101958
        17        18        19        37     9        0.000000        0.221206         3    ;  uncertainty k = 0.066566
        17        18        19        37     9      180.000000        0.226088         4    ;  uncertainty k = 0.040934
        17        18        19        38     9        0.000000        0.064249         1    ;  uncertainty k = 0.241125
        17        18        19        38     9      180.000000        1.764069         2    ;  uncertainty k = 0.101958
        17        18        19        38     9        0.000000        0.221206         3    ;  uncertainty k = 0.066566
        17        18        19        38     9      180.000000        0.226088         4    ;  uncertainty k = 0.040934
        17        18        20        21     9        0.000000        0.196014         1    ;  uncertainty k = 0.128734
        17        18        20        21     9      180.000000        8.981240         2    ;  uncertainty k = 0.509920
        17        18        20        21     9        0.000000        1.481870         3    ;  uncertainty k = 0.327981
        17        18        20        21     9      180.000000        1.593723         4    ;  uncertainty k = 0.160471
        17        18        20        22     9        0.000000       -0.119143         1    ;  uncertainty k = 0.187407
        17        18        20        22     9      180.000000        7.123350         2    ;  uncertainty k = 0.781340
        17        18        20        22     9        0.000000        0.577029         3    ;  uncertainty k = 0.539681
        17        18        20        22     9      180.000000        1.259895         4    ;  uncertainty k = 0.455643
        18        17        16        24     9        0.000000       -0.062414         1    ;  uncertainty k = 0.159969
        18        17        16        24     9      180.000000        8.644184         2    ;  uncertainty k = 0.549838
        18        17        16        24     9        0.000000        0.044770         3    ;  uncertainty k = 0.484714
        18        17        16        24     9      180.000000        1.249603         4    ;  uncertainty k = 0.340738
        18        20        22        23     9        0.000000        0.252591         1    ;  uncertainty k = 0.125542
        18        20        22        23     9      180.000000        7.213959         2    ;  uncertainty k = 0.402834
        18        20        22        23     9        0.000000        1.206011         3    ;  uncertainty k = 0.155090
        18        20        22        23     9      180.000000        1.605822         4    ;  uncertainty k = 0.282734
        18        20        22        24     9        0.000000       -0.119144         1    ;  uncertainty k = 0.187407
        18        20        22        24     9      180.000000        7.123351         2    ;  uncertainty k = 0.781341
        18        20        22        24     9        0.000000        0.577029         3    ;  uncertainty k = 0.539681
        18        20        22        24     9      180.000000        1.259895         4    ;  uncertainty k = 0.455643
        19        18        17        35     9        0.000000       -0.239240         1    ;  uncertainty k = 0.227515
        19        18        17        35     9      180.000000        8.292004         2    ;  uncertainty k = 0.253713
        19        18        17        35     9        0.000000        0.504698         3    ;  uncertainty k = 0.337930
        19        18        17        35     9      180.000000        1.016983         4    ;  uncertainty k = 0.201348
        19        18        20        21     9        0.000000       -0.121780         1    ;  uncertainty k = 0.337211
        19        18        20        21     9      180.000000        9.191366         2    ;  uncertainty k = 0.278719
        19        18        20        21     9        0.000000        0.988064         3    ;  uncertainty k = 0.271084
        19        18        20        21     9      180.000000        1.222911         4    ;  uncertainty k = 0.318129
        19        18        20        22     9        0.000000        0.252592         1    ;  uncertainty k = 0.125542
        19        18        20        22     9      180.000000        7.213959         2    ;  uncertainty k = 0.402834
        19        18        20        22     9        0.000000        1.206011         3    ;  uncertainty k = 0.155090
        19        18        20        22     9      180.000000        1.605822         4    ;  uncertainty k = 0.282734
        20        18        17        35     9        0.000000        0.276661         1    ;  uncertainty k = 0.165642
        20        18        17        35     9      180.000000        7.511754         2    ;  uncertainty k = 0.274705
        20        18        17        35     9        0.000000        1.624213         3    ;  uncertainty k = 0.311176
        20        18        17        35     9      180.000000        1.762843         4    ;  uncertainty k = 0.142030
        20        18        19        36     9        0.000000       -0.059323         1    ;  uncertainty k = 0.357975
        20        18        19        36     9      180.000000        2.363540         2    ;  uncertainty k = 0.193083
        20        18        19        36     9        0.000000        0.498612         3    ;  uncertainty k = 0.041718
        20        18        19        36     9      180.000000        0.369585         4    ;  uncertainty k = 0.037380
        20        18        19        37     9        0.000000       -0.059323         1    ;  uncertainty k = 0.357975
        20        18        19        37     9      180.000000        2.363540         2    ;  uncertainty k = 0.193083
        20        18        19        37     9        0.000000        0.498612         3    ;  uncertainty k = 0.041718
        20        18        19        37     9      180.000000        0.369585         4    ;  uncertainty k = 0.037380
        20        18        19        38     9        0.000000       -0.059323         1    ;  uncertainty k = 0.357975
        20        18        19        38     9      180.000000        2.363540         2    ;  uncertainty k = 0.193083
        20        18        19        38     9        0.000000        0.498612         3    ;  uncertainty k = 0.041718
        20        18        19        38     9      180.000000        0.369585         4    ;  uncertainty k = 0.037380
        20        22        23        39     9        0.000000       -0.059323         1    ;  uncertainty k = 0.357975
        20        22        23        39     9      180.000000        2.363540         2    ;  uncertainty k = 0.193083
        20        22        23        39     9        0.000000        0.498612         3    ;  uncertainty k = 0.041718
        20        22        23        39     9      180.000000        0.369585         4    ;  uncertainty k = 0.037380
        20        22        23        40     9        0.000000       -0.059323         1    ;  uncertainty k = 0.357975
        20        22        23        40     9      180.000000        2.363540         2    ;  uncertainty k = 0.193083
        20        22        23        40     9        0.000000        0.498612         3    ;  uncertainty k = 0.041718
        20        22        23        40     9      180.000000        0.369585         4    ;  uncertainty k = 0.037380
        20        22        23        41     9        0.000000       -0.059323         1    ;  uncertainty k = 0.357975
        20        22        23        41     9      180.000000        2.363540         2    ;  uncertainty k = 0.193083
        20        22        23        41     9        0.000000        0.498612         3    ;  uncertainty k = 0.041718
        20        22        23        41     9      180.000000        0.369585         4    ;  uncertainty k = 0.037380
        20        22        24        42     9        0.000000        0.276661         1    ;  uncertainty k = 0.165641
        20        22        24        42     9      180.000000        7.511754         2    ;  uncertainty k = 0.274705
        20        22        24        42     9        0.000000        1.624213         3    ;  uncertainty k = 0.311176
        20        22        24        42     9      180.000000        1.762843         4    ;  uncertainty k = 0.142030
        21        20        22        23     9        0.000000       -0.121781         1    ;  uncertainty k = 0.337211
        21        20        22        23     9      180.000000        9.191366         2    ;  uncertainty k = 0.278719
        21        20        22        23     9        0.000000        0.988064         3    ;  uncertainty k = 0.271084
        21        20        22        23     9      180.000000        1.222911         4    ;  uncertainty k = 0.318129
        21        20        22        24     9        0.000000        0.196013         1    ;  uncertainty k = 0.128734
        21        20        22        24     9      180.000000        8.981239         2    ;  uncertainty k = 0.509920
        21        20        22        24     9        0.000000        1.481870         3    ;  uncertainty k = 0.327981
        21        20        22        24     9      180.000000        1.593722         4    ;  uncertainty k = 0.160471
        23        22        24        42     9        0.000000       -0.239239         1    ;  uncertainty k = 0.227515
        23        22        24        42     9      180.000000        8.292003         2    ;  uncertainty k = 0.253712
        23        22        24        42     9        0.000000        0.504699         3    ;  uncertainty k = 0.337930
        23        22        24        42     9      180.000000        1.016983         4    ;  uncertainty k = 0.201348
        24        16        17        35     9        0.000000        0.229574         1    ;  uncertainty k = 0.284941
        24        16        17        35     9      180.000000        6.281227         2    ;  uncertainty k = 0.540805
        24        16        17        35     9        0.000000        1.498919         3    ;  uncertainty k = 0.322615
        24        16        17        35     9      180.000000        1.614843         4    ;  uncertainty k = 0.102429
        24        22        23        39     9        0.000000        0.064249         1    ;  uncertainty k = 0.241125
        24        22        23        39     9      180.000000        1.764070         2    ;  uncertainty k = 0.101958
        24        22        23        39     9        0.000000        0.221206         3    ;  uncertainty k = 0.066566
        24        22        23        39     9      180.000000        0.226087         4    ;  uncertainty k = 0.040934
        24        22        23        40     9        0.000000        0.064249         1    ;  uncertainty k = 0.241125
        24        22        23        40     9      180.000000        1.764070         2    ;  uncertainty k = 0.101958
        24        22        23        40     9        0.000000        0.221206         3    ;  uncertainty k = 0.066566
        24        22        23        40     9      180.000000        0.226087         4    ;  uncertainty k = 0.040934
        24        22        23        41     9        0.000000        0.064249         1    ;  uncertainty k = 0.241125
        24        22        23        41     9      180.000000        1.764070         2    ;  uncertainty k = 0.101958
        24        22        23        41     9        0.000000        0.221206         3    ;  uncertainty k = 0.066566
        24        22        23        41     9      180.000000        0.226087         4    ;  uncertainty k = 0.040934
        25         6         5        47     9        0.000000        0.314130         1    ;  uncertainty k = 0.456334
        25         6         5        47     9      180.000000        5.701145         2    ;  uncertainty k = 0.585639
        25         6         5        47     9        0.000000        1.135540         3    ;  uncertainty k = 0.371207
        25         6         5        47     9      180.000000        0.785385         4    ;  uncertainty k = 0.390001
        25         6         7        26     9        0.000000        0.105048         1    ;  uncertainty k = 0.276547
        25         6         7        26     9      180.000000        7.670930         2    ;  uncertainty k = 0.245411
        25         6         7        26     9        0.000000       -0.288364         3    ;  uncertainty k = 0.230159
        25         6         7        26     9      180.000000        0.128472         4    ;  uncertainty k = 0.151146
        26         7         8        27     9        0.000000        0.018255         1    ;  uncertainty k = 0.138460
        26         7         8        27     9      180.000000        6.909815         2    ;  uncertainty k = 0.462772
        26         7         8        27     9        0.000000       -0.258347         3    ;  uncertainty k = 0.204374
        26         7         8        27     9      180.000000        0.082243         4    ;  uncertainty k = 0.148698
        27         8         9        28     9        0.000000        0.071920         1    ;  uncertainty k = 0.097132
        27         8         9        28     9      180.000000        7.815942         2    ;  uncertainty k = 0.230547
        27         8         9        28     9        0.000000       -0.190609         3    ;  uncertainty k = 0.268282
        27         8         9        28     9      180.000000        0.163881         4    ;  uncertainty k = 0.176051
        29        12        13        31     9        0.000000        0.857590         1    ;  uncertainty k = 0.183552
        29        12        13        31     9      180.000000       -0.670068         2    ;  uncertainty k = 0.264484
        29        12        13        31     9        0.000000        0.185805         3    ;  uncertainty k = 0.067280
        29        12        13        31     9      180.000000        0.011118         4    ;  uncertainty k = 0.042641
        29        12        13        32     9        0.000000        0.857590         1    ;  uncertainty k = 0.183552
        29        12        13        32     9      180.000000       -0.670068         2    ;  uncertainty k = 0.264484
        29        12        13        32     9        0.000000        0.185805         3    ;  uncertainty k = 0.067280
        29        12        13        32     9      180.000000        0.011118         4    ;  uncertainty k = 0.042641
        30        12        13        31     9        0.000000        0.857590         1    ;  uncertainty k = 0.183552
        30        12        13        31     9      180.000000       -0.670068         2    ;  uncertainty k = 0.264484
        30        12        13        31     9        0.000000        0.185805         3    ;  uncertainty k = 0.067280
        30        12        13        31     9      180.000000        0.011118         4    ;  uncertainty k = 0.042641
        30        12        13        32     9        0.000000        0.857590         1    ;  uncertainty k = 0.183552
        30        12        13        32     9      180.000000       -0.670068         2    ;  uncertainty k = 0.264484
        30        12        13        32     9        0.000000        0.185805         3    ;  uncertainty k = 0.067280
        30        12        13        32     9      180.000000        0.011118         4    ;  uncertainty k = 0.042641
        31        13        14        33     9        0.000000        0.461039         1    ;  uncertainty k = 0.142816
        31        13        14        33     9      180.000000       -0.427775         2    ;  uncertainty k = 0.141329
        31        13        14        33     9        0.000000        0.095542         3    ;  uncertainty k = 0.073246
        31        13        14        33     9      180.000000       -0.037844         4    ;  uncertainty k = 0.076606
        31        13        14        34     9        0.000000        0.461039         1    ;  uncertainty k = 0.142817
        31        13        14        34     9      180.000000       -0.427774         2    ;  uncertainty k = 0.141329
        31        13        14        34     9        0.000000        0.095542         3    ;  uncertainty k = 0.073245
        31        13        14        34     9      180.000000       -0.037844         4    ;  uncertainty k = 0.076606
        32        13        14        33     9        0.000000        0.461039         1    ;  uncertainty k = 0.142817
        32        13        14        33     9      180.000000       -0.427774         2    ;  uncertainty k = 0.141329
        32        13        14        33     9        0.000000        0.095542         3    ;  uncertainty k = 0.073245
        32        13        14        33     9      180.000000       -0.037844         4    ;  uncertainty k = 0.076606
        32        13        14        34     9        0.000000        0.461039         1    ;  uncertainty k = 0.142817
        32        13        14        34     9      180.000000       -0.427774         2    ;  uncertainty k = 0.141329
        32        13        14        34     9        0.000000        0.095542         3    ;  uncertainty k = 0.073245
        32        13        14        34     9      180.000000       -0.037844         4    ;  uncertainty k = 0.076606

[ dihedrals ] ; impropers
;       ai        aj        ak        al funct           phase               k        pn
         2         1         3         4     4      180.000000       65.083675         2    ;  uncertainty k = 0.050248
         2         3         4         1     4      180.000000       65.083675         2    ;  uncertainty k = 0.050248
         2         4         1         3     4      180.000000       65.083675         2    ;  uncertainty k = 0.050248
         4         2        11        47     4      180.000000        5.500881         2    ;  uncertainty k = 0.617253
         4        11        47         2     4      180.000000        5.500881         2    ;  uncertainty k = 0.617253
         4        47         2        11     4      180.000000        5.500881         2    ;  uncertainty k = 0.617253
         5         6        10        47     4      180.000000        0.129459         2    ;  uncertainty k = 0.289479
         5        10        47         6     4      180.000000        0.129459         2    ;  uncertainty k = 0.289479
         5        47         6        10     4      180.000000        0.129459         2    ;  uncertainty k = 0.289479
         6         5         7        25     4      180.000000        2.215936         2    ;  uncertainty k = 0.463553
         6         7        25         5     4      180.000000        2.215936         2    ;  uncertainty k = 0.463553
         6        25         5         7     4      180.000000        2.215936         2    ;  uncertainty k = 0.463553
         7         6         8        26     4      180.000000        3.647224         2    ;  uncertainty k = 0.166353
         7         8        26         6     4      180.000000        3.647224         2    ;  uncertainty k = 0.166353
         7        26         6         8     4      180.000000        3.647224         2    ;  uncertainty k = 0.166353
         8         7         9        27     4      180.000000        2.930446         2    ;  uncertainty k = 0.193636
         8         9        27         7     4      180.000000        2.930446         2    ;  uncertainty k = 0.193636
         8        27         7         9     4      180.000000        2.930446         2    ;  uncertainty k = 0.193636
         9         8        10        28     4      180.000000        3.886949         2    ;  uncertainty k = 0.140507
         9        10        28         8     4      180.000000        3.886949         2    ;  uncertainty k = 0.140507
         9        28         8        10     4      180.000000        3.886949         2    ;  uncertainty k = 0.140507
        11         4        10        12     4      180.000000        1.828612         2    ;  uncertainty k = 0.946268
        11        10        12         4     4      180.000000        1.828612         2    ;  uncertainty k = 0.946268
        11        12         4        10     4      180.000000        1.828612         2    ;  uncertainty k = 0.946268
        16        15        17        24     4      180.000000       19.484179         2    ;  uncertainty k = 0.084613
        16        17        24        15     4      180.000000       19.484179         2    ;  uncertainty k = 0.084613
        16        24        15        17     4      180.000000       19.484179         2    ;  uncertainty k = 0.084613
        17        16        18        35     4      180.000000        1.802843         2    ;  uncertainty k = 0.423561
        17        18        35        16     4      180.000000        1.802843         2    ;  uncertainty k = 0.423561
        17        35        16        18     4      180.000000        1.802843         2    ;  uncertainty k = 0.423561
        18        17        19        20     4      180.000000       15.574144         2    ;  uncertainty k = 0.081448
        18        19        20        17     4      180.000000       15.574144         2    ;  uncertainty k = 0.081448
        18        20        17        19     4      180.000000       15.574144         2    ;  uncertainty k = 0.081448
        20        18        21        22     4      180.000000       10.845938         2    ;  uncertainty k = 0.216128
        20        21        22        18     4      180.000000       10.845938         2    ;  uncertainty k = 0.216128
        20        22        18        21     4      180.000000       10.845938         2    ;  uncertainty k = 0.216128
        22        20        23        24     4      180.000000       15.574143         2    ;  uncertainty k = 0.081448
        22        23        24        20     4      180.000000       15.574143         2    ;  uncertainty k = 0.081448
        22        24        20        23     4      180.000000       15.574143         2    ;  uncertainty k = 0.081448
        24        16        22        42     4      180.000000        1.802843         2    ;  uncertainty k = 0.423562
        24        22        42        16     4      180.000000        1.802843         2    ;  uncertainty k = 0.423562
        24        42        16        22     4      180.000000        1.802843         2    ;  uncertainty k = 0.423562

[ pairs ]
;       ai        aj funct
         1        11     1
         1        47     1
         2         5     1
         2        10     1
         2        12     1
         2        43     1
         3        11     1
         3        47     1
         4         6     1
         4         9     1
         4        13     1
         4        29     1
         4        30     1
         4        44     1
         4        45     1
         4        46     1
         5         8     1
         5        12     1
         5        26     1
         5        28     1
         5        44     1
         5        45     1
         5        46     1
         6         9     1
         6        11     1
         6        27     1
         6        43     1
         7        10     1
         7        28     1
         7        47     1
         8        11     1
         8        25     1
         9        12     1
         9        26     1
         9        47     1
        10        13     1
        10        25     1
        10        27     1
        10        29     1
        10        30     1
        10        43     1
        11        14     1
        11        28     1
        11        31     1
        11        32     1
        11        43     1
        12        15     1
        12        33     1
        12        34     1
        12        47     1
        13        16     1
        14        17     1
        14        24     1
        14        29     1
        14        30     1
        15        18     1
        15        22     1
        15        31     1
        15        32     1
        15        35     1
        15        42     1
        16        19     1
        16        20     1
        16        23     1
        16        33     1
        16        34     1
        17        21     1
        17        22     1
        17        36     1
        17        37     1
        17        38     1
        17        42     1
        18        23     1
        18        24     1
        19        21     1
        19        22     1
        19        35     1
        20        35     1
        20        36     1
        20        37     1
        20        38     1
        20        39     1
        20        40     1
        20        41     1
        20        42     1
        21        23     1
        21        24     1
        23        42     1
        24        35     1
        24        39     1
        24        40     1
        24        41     1
        25        26     1
        25        47     1
        26        27     1
        27        28     1
        29        31     1
        29        32     1
        30        31     1
        30        32     1
        31        33     1
        31        34     1
        32        33     1
        32        34     1
