; ITP file created by ByteFF-joint-25, 2026-02-17 09:19:35.601068

[ atomtypes ]
;name           bonded.type        at.num        mass        charge   ptype           sigma         epsilon
 o0bf                                   8      0.0000       0.00000       A     3.04807e-01     6.12012e-01    ;  uncertainty sigma = 0.000021, epsilon = 0.001104
 c1bf                                   6      0.0000       0.00000       A     3.31519e-01     4.13981e-01    ;  uncertainty sigma = 0.000027, epsilon = 0.002458
 o2bf                                   8      0.0000       0.00000       A     3.04807e-01     6.12012e-01    ;  uncertainty sigma = 0.000021, epsilon = 0.001104
 c3bf                                   6      0.0000       0.00000       A     3.31453e-01     4.13092e-01    ;  uncertainty sigma = 0.000036, epsilon = 0.001759
 c4bf                                   6      0.0000       0.00000       A     3.31539e-01     4.13254e-01    ;  uncertainty sigma = 0.000010, epsilon = 0.000675
 c5bf                                   6      0.0000       0.00000       A     3.31524e-01     4.13279e-01    ;  uncertainty sigma = 0.000006, epsilon = 0.000718
 c6bf                                   6      0.0000       0.00000       A     3.31525e-01     4.13349e-01    ;  uncertainty sigma = 0.000005, epsilon = 0.000507
 c7bf                                   6      0.0000       0.00000       A     3.31524e-01     4.13320e-01    ;  uncertainty sigma = 0.000004, epsilon = 0.000654
 c8bf                                   6      0.0000       0.00000       A     3.31524e-01     4.13102e-01    ;  uncertainty sigma = 0.000006, epsilon = 0.000665
 c9bf                                   6      0.0000       0.00000       A     3.31534e-01     4.13240e-01    ;  uncertainty sigma = 0.000011, epsilon = 0.001066
 c10bf                                  6      0.0000       0.00000       A     3.31549e-01     4.13092e-01    ;  uncertainty sigma = 0.000005, epsilon = 0.001028
 c11bf                                  6      0.0000       0.00000       A     3.39769e-01     4.50477e-01    ;  uncertainty sigma = 0.000019, epsilon = 0.001058
 c12bf                                  6      0.0000       0.00000       A     3.39755e-01     4.50595e-01    ;  uncertainty sigma = 0.000006, epsilon = 0.000956
 c13bf                                  6      0.0000       0.00000       A     3.39780e-01     4.50469e-01    ;  uncertainty sigma = 0.000008, epsilon = 0.000834
 o14bf                                  8      0.0000       0.00000       A     3.15667e-01     3.03011e-01    ;  uncertainty sigma = 0.000025, epsilon = 0.001888
 c15bf                                  6      0.0000       0.00000       A     3.31550e-01     4.13524e-01    ;  uncertainty sigma = 0.000007, epsilon = 0.000519
 c16bf                                  6      0.0000       0.00000       A     3.31525e-01     4.13210e-01    ;  uncertainty sigma = 0.000006, epsilon = 0.000593
 c17bf                                  6      0.0000       0.00000       A     3.31529e-01     4.13386e-01    ;  uncertainty sigma = 0.000002, epsilon = 0.000727
 c18bf                                  6      0.0000       0.00000       A     3.31514e-01     4.13154e-01    ;  uncertainty sigma = 0.000007, epsilon = 0.000630
 h19bf                                  1      0.0000       0.00000       A     2.62568e-01     6.69867e-02    ;  uncertainty sigma = 0.000008, epsilon = 0.000518
 h20bf                                  1      0.0000       0.00000       A     2.62567e-01     6.69871e-02    ;  uncertainty sigma = 0.000012, epsilon = 0.000553
 h21bf                                  1      0.0000       0.00000       A     2.62563e-01     6.69792e-02    ;  uncertainty sigma = 0.000011, epsilon = 0.000555
 h22bf                                  1      0.0000       0.00000       A     2.62566e-01     6.69359e-02    ;  uncertainty sigma = 0.000011, epsilon = 0.000323
 h23bf                                  1      0.0000       0.00000       A     2.60038e-01     8.64862e-02    ;  uncertainty sigma = 0.000012, epsilon = 0.000717
 h24bf                                  1      0.0000       0.00000       A     2.60038e-01     8.64862e-02    ;  uncertainty sigma = 0.000012, epsilon = 0.000717
 h25bf                                  1      0.0000       0.00000       A     2.60032e-01     8.63750e-02    ;  uncertainty sigma = 0.000011, epsilon = 0.000877
 h26bf                                  1      0.0000       0.00000       A     2.60032e-01     8.63750e-02    ;  uncertainty sigma = 0.000011, epsilon = 0.000877
 h27bf                                  1      0.0000       0.00000       A     2.42191e-01     8.69833e-02    ;  uncertainty sigma = 0.000030, epsilon = 0.000474
 h28bf                                  1      0.0000       0.00000       A     2.42191e-01     8.69833e-02    ;  uncertainty sigma = 0.000030, epsilon = 0.000474
 h29bf                                  1      0.0000       0.00000       A     2.62574e-01     6.69588e-02    ;  uncertainty sigma = 0.000012, epsilon = 0.000438
 c30bf                                  6      0.0000       0.00000       A     3.31525e-01     4.13520e-01    ;  uncertainty sigma = 0.000007, epsilon = 0.000401
 c31bf                                  6      0.0000       0.00000       A     3.31499e-01     4.13379e-01    ;  uncertainty sigma = 0.000012, epsilon = 0.000710
 c32bf                                  6      0.0000       0.00000       A     3.31518e-01     4.13093e-01    ;  uncertainty sigma = 0.000007, epsilon = 0.000322
 c33bf                                  6      0.0000       0.00000       A     3.31524e-01     4.13323e-01    ;  uncertainty sigma = 0.000003, epsilon = 0.000661
 c34bf                                  6      0.0000       0.00000       A     3.31523e-01     4.13359e-01    ;  uncertainty sigma = 0.000003, epsilon = 0.000695
 c35bf                                  6      0.0000       0.00000       A     3.31524e-01     4.13214e-01    ;  uncertainty sigma = 0.000004, epsilon = 0.000571
 h36bf                                  1      0.0000       0.00000       A     2.62548e-01     6.70306e-02    ;  uncertainty sigma = 0.000019, epsilon = 0.000384
 h37bf                                  1      0.0000       0.00000       A     2.62567e-01     6.69734e-02    ;  uncertainty sigma = 0.000010, epsilon = 0.000525
 h38bf                                  1      0.0000       0.00000       A     2.62567e-01     6.69734e-02    ;  uncertainty sigma = 0.000010, epsilon = 0.000525
 h39bf                                  1      0.0000       0.00000       A     2.62559e-01     6.70661e-02    ;  uncertainty sigma = 0.000013, epsilon = 0.000302
 h40bf                                  1      0.0000       0.00000       A     2.62585e-01     6.69640e-02    ;  uncertainty sigma = 0.000009, epsilon = 0.000463
 h41bf                                  1      0.0000       0.00000       A     2.62559e-01     6.70661e-02    ;  uncertainty sigma = 0.000013, epsilon = 0.000302
 c42bf                                  6      0.0000       0.00000       A     3.39801e-01     4.52146e-01    ;  uncertainty sigma = 0.000017, epsilon = 0.001466
 h43bf                                  1      0.0000       0.00000       A     2.42199e-01     8.67367e-02    ;  uncertainty sigma = 0.000023, epsilon = 0.000598
 h44bf                                  1      0.0000       0.00000       A     2.42199e-01     8.67367e-02    ;  uncertainty sigma = 0.000023, epsilon = 0.000598
 h45bf                                  1      0.0000       0.00000       A     2.42199e-01     8.67368e-02    ;  uncertainty sigma = 0.000023, epsilon = 0.000598
 n46bf                                  7      0.0000       0.00000       A     3.20586e-01     8.55633e-01    ;  uncertainty sigma = 0.000052, epsilon = 0.001973

[ moleculetype ]
;name             nrexcl
 MOL                   3

[ atoms ]
;       nr            type      resi   res      atom      cgnr      charge          mass ; qtot
         1            o0bf         1   UNL        o0         1    -0.82426       15.9990 ; qtot   -0.824
         2            c1bf         1   UNL        c1         2     0.92035       12.0110 ; qtot    0.096
         3            o2bf         1   UNL        o2         3    -0.82426       15.9990 ; qtot   -0.728
         4            c3bf         1   UNL        c3         4    -0.08453       12.0110 ; qtot   -0.813
         5            c4bf         1   UNL        c4         5    -0.06831       12.0110 ; qtot   -0.881
         6            c5bf         1   UNL        c5         6    -0.16186       12.0110 ; qtot   -1.043
         7            c6bf         1   UNL        c6         7    -0.11347       12.0110 ; qtot   -1.156
         8            c7bf         1   UNL        c7         8    -0.15972       12.0110 ; qtot   -1.316
         9            c8bf         1   UNL        c8         9    -0.09953       12.0110 ; qtot   -1.416
        10            c9bf         1   UNL        c9        10    -0.09523       12.0110 ; qtot   -1.511
        11           c10bf         1   UNL       c10        11    -0.19085       12.0110 ; qtot   -1.702
        12           c11bf         1   UNL       c11        12    -0.00628       12.0110 ; qtot   -1.708
        13           c12bf         1   UNL       c12        13    -0.09657       12.0110 ; qtot   -1.805
        14           c13bf         1   UNL       c13        14     0.13662       12.0110 ; qtot   -1.668
        15           o14bf         1   UNL       o14        15    -0.33774       15.9990 ; qtot   -2.006
        16           c15bf         1   UNL       c15        16     0.14513       12.0110 ; qtot   -1.861
        17           c16bf         1   UNL       c16        17    -0.13575       12.0110 ; qtot   -1.996
        18           c17bf         1   UNL       c17        18    -0.09521       12.0110 ; qtot   -2.091
        19           c18bf         1   UNL       c18        19    -0.21404       12.0110 ; qtot   -2.306
        20           h19bf         1   UNL       h19        20     0.13247        1.0080 ; qtot   -2.173
        21           h20bf         1   UNL       h20        21     0.12936        1.0080 ; qtot   -2.044
        22           h21bf         1   UNL       h21        22     0.12900        1.0080 ; qtot   -1.915
        23           h22bf         1   UNL       h22        23     0.13404        1.0080 ; qtot   -1.781
        24           h23bf         1   UNL       h23        24     0.04201        1.0080 ; qtot   -1.739
        25           h24bf         1   UNL       h24        25     0.04201        1.0080 ; qtot   -1.697
        26           h25bf         1   UNL       h25        26     0.05436        1.0080 ; qtot   -1.642
        27           h26bf         1   UNL       h26        27     0.05436        1.0080 ; qtot   -1.588
        28           h27bf         1   UNL       h27        28     0.04657        1.0080 ; qtot   -1.541
        29           h28bf         1   UNL       h28        29     0.04657        1.0080 ; qtot   -1.495
        30           h29bf         1   UNL       h29        30     0.14093        1.0080 ; qtot   -1.354
        31           c30bf         1   UNL       c30        31    -0.02304       12.0110 ; qtot   -1.377
        32           c31bf         1   UNL       c31        32    -0.05635       12.0110 ; qtot   -1.433
        33           c32bf         1   UNL       c32        33    -0.10394       12.0110 ; qtot   -1.537
        34           c33bf         1   UNL       c33        34    -0.13597       12.0110 ; qtot   -1.673
        35           c34bf         1   UNL       c34        35    -0.12037       12.0110 ; qtot   -1.793
        36           c35bf         1   UNL       c35        36    -0.12275       12.0110 ; qtot   -1.916
        37           h36bf         1   UNL       h36        37     0.14397        1.0080 ; qtot   -1.772
        38           h37bf         1   UNL       h37        38     0.13455        1.0080 ; qtot   -1.638
        39           h38bf         1   UNL       h38        39     0.13276        1.0080 ; qtot   -1.505
        40           h39bf         1   UNL       h39        40     0.13307        1.0080 ; qtot   -1.372
        41           h40bf         1   UNL       h40        41     0.13604        1.0080 ; qtot   -1.236
        42           h41bf         1   UNL       h41        42     0.13458        1.0080 ; qtot   -1.101
        43           c42bf         1   UNL       c42        43     0.02339       12.0110 ; qtot   -1.078
        44           h43bf         1   UNL       h43        44     0.04707        1.0080 ; qtot   -1.031
        45           h44bf         1   UNL       h44        45     0.04707        1.0080 ; qtot   -0.984
        46           h45bf         1   UNL       h45        46     0.04707        1.0080 ; qtot   -0.937
        47           n46bf         1   UNL       n46        47    -0.06332       14.0070 ; qtot   -1.000

[ bonds ]
;       ai        aj funct               r               k
         1         2     1        0.126214   545643.754883    ;  uncertainty r = 0.000074, k = 9.631283
         2         3     1        0.126214   545643.754883    ;  uncertainty r = 0.000074, k = 9.631283
         2         4     1        0.153629   165972.249634    ;  uncertainty r = 0.000139, k = 57.911487
         4        11     1        0.138849   384472.417969    ;  uncertainty r = 0.000105, k = 33.051934
         4        47     1        0.140068   271707.999805    ;  uncertainty r = 0.000182, k = 23.603799
         5         6     1        0.140065   362296.400781    ;  uncertainty r = 0.000073, k = 5.961410
         5        10     1        0.142956   352142.590723    ;  uncertainty r = 0.000122, k = 20.537283
         5        47     1        0.137621   287915.100732    ;  uncertainty r = 0.000086, k = 18.571983
         6         7     1        0.139331   368841.587451    ;  uncertainty r = 0.000046, k = 1.686987
         6        20     1        0.108816   338137.733496    ;  uncertainty r = 0.000025, k = 1.310224
         7         8     1        0.141071   350626.682373    ;  uncertainty r = 0.000041, k = 2.740426
         7        21     1        0.108793   334449.817383    ;  uncertainty r = 0.000016, k = 1.390191
         8         9     1        0.139162   367062.314893    ;  uncertainty r = 0.000025, k = 2.347642
         8        22     1        0.108813   335291.367285    ;  uncertainty r = 0.000018, k = 0.841713
         9        10     1        0.140642   363480.786377    ;  uncertainty r = 0.000070, k = 7.460288
         9        23     1        0.108822   336786.054297    ;  uncertainty r = 0.000023, k = 2.496664
        10        11     1        0.143558   260148.627246    ;  uncertainty r = 0.000096, k = 24.564703
        11        12     1        0.150098   233611.637891    ;  uncertainty r = 0.000160, k = 11.391078
        12        13     1        0.153902   206609.924219    ;  uncertainty r = 0.000082, k = 6.971346
        12        24     1        0.109701   309281.310645    ;  uncertainty r = 0.000027, k = 1.355473
        12        25     1        0.109701   309281.310645    ;  uncertainty r = 0.000027, k = 1.355473
        13        14     1        0.152147   209964.555518    ;  uncertainty r = 0.000038, k = 3.683491
        13        26     1        0.109662   307656.256689    ;  uncertainty r = 0.000026, k = 1.423811
        13        27     1        0.109662   307656.256689    ;  uncertainty r = 0.000026, k = 1.423811
        14        15     1        0.142782   231869.547363    ;  uncertainty r = 0.000050, k = 4.849853
        14        28     1        0.109724   308279.106787    ;  uncertainty r = 0.000019, k = 1.483942
        14        29     1        0.109724   308279.106787    ;  uncertainty r = 0.000019, k = 1.483942
        15        16     1        0.136655   326316.196973    ;  uncertainty r = 0.000064, k = 10.302416
        16        19     1        0.138195   347784.427637    ;  uncertainty r = 0.000087, k = 7.943559
        16        32     1        0.142488   314726.230957    ;  uncertainty r = 0.000062, k = 8.281809
        17        18     1        0.137749   374604.751221    ;  uncertainty r = 0.000037, k = 4.265693
        17        31     1        0.142098   349009.698145    ;  uncertainty r = 0.000048, k = 5.218720
        17        42     1        0.108802   334878.074707    ;  uncertainty r = 0.000015, k = 1.345281
        18        19     1        0.141654   351742.500830    ;  uncertainty r = 0.000138, k = 8.139820
        18        41     1        0.108730   333619.069678    ;  uncertainty r = 0.000016, k = 1.862027
        19        30     1        0.108748   338790.257715    ;  uncertainty r = 0.000030, k = 1.699329
        31        32     1        0.143171   332447.248340    ;  uncertainty r = 0.000057, k = 5.746983
        31        36     1        0.142103   349376.104590    ;  uncertainty r = 0.000053, k = 3.058872
        32        33     1        0.141848   331211.865137    ;  uncertainty r = 0.000038, k = 5.635551
        33        34     1        0.138023   367791.322754    ;  uncertainty r = 0.000025, k = 2.241963
        33        37     1        0.108628   335903.057666    ;  uncertainty r = 0.000013, k = 0.678311
        34        35     1        0.141669   357736.903125    ;  uncertainty r = 0.000034, k = 2.704735
        34        38     1        0.108804   334143.984961    ;  uncertainty r = 0.000012, k = 1.469926
        35        36     1        0.137829   370848.676562    ;  uncertainty r = 0.000014, k = 2.697028
        35        39     1        0.108812   334757.871533    ;  uncertainty r = 0.000008, k = 1.170087
        36        40     1        0.108836   335130.713330    ;  uncertainty r = 0.000009, k = 0.888113
        43        44     1        0.109485   309279.165527    ;  uncertainty r = 0.000057, k = 5.667978
        43        45     1        0.109485   309279.165527    ;  uncertainty r = 0.000057, k = 5.667978
        43        46     1        0.109485   309279.165527    ;  uncertainty r = 0.000057, k = 5.667979
        43        47     1        0.145520   257316.663965    ;  uncertainty r = 0.000137, k = 7.908965

[ angles ]
;       ai        aj        ak funct           theta             cth
         1         2         3     1      131.192535      808.524483    ;  uncertainty theta = 0.006297, k = 0.124761
         1         2         4     1      115.423691      377.289787    ;  uncertainty theta = 0.012081, k = 0.578059
         2         4        11     1      126.291321      299.386536    ;  uncertainty theta = 0.009540, k = 0.176366
         2         4        47     1      117.616600      360.791697    ;  uncertainty theta = 0.009200, k = 0.452543
         3         2         4     1      115.423691      377.289787    ;  uncertainty theta = 0.012081, k = 0.578059
         4        11        10     1      107.844643      743.356908    ;  uncertainty theta = 0.006405, k = 0.279529
         4        11        12     1      125.656509      347.081429    ;  uncertainty theta = 0.005782, k = 0.120906
         4        47         5     1      108.800522      842.903433    ;  uncertainty theta = 0.007237, k = 0.263659
         4        47        43     1      121.187302      412.751159    ;  uncertainty theta = 0.004014, k = 0.177939
         5         6         7     1      117.745201      530.337227    ;  uncertainty theta = 0.002036, k = 0.137662
         5         6        20     1      122.226135      288.395811    ;  uncertainty theta = 0.001707, k = 0.062926
         5        10         9     1      117.231041      407.980381    ;  uncertainty theta = 0.003790, k = 0.066215
         5        10        11     1      107.162865      696.468796    ;  uncertainty theta = 0.005458, k = 0.204514
         5        47        43     1      120.308861      410.433380    ;  uncertainty theta = 0.002533, k = 0.177178
         6         5        10     1      121.028725      371.097165    ;  uncertainty theta = 0.004854, k = 0.120130
         6         5        47     1      127.928322      389.271032    ;  uncertainty theta = 0.001668, k = 0.144190
         6         7         8     1      122.248032      519.764097    ;  uncertainty theta = 0.001788, k = 0.037545
         6         7        21     1      119.498886      285.529526    ;  uncertainty theta = 0.001685, k = 0.040883
         7         6        20     1      121.049500      285.488858    ;  uncertainty theta = 0.001748, k = 0.062150
         7         8         9     1      121.364243      519.659235    ;  uncertainty theta = 0.001527, k = 0.043135
         7         8        22     1      119.658302      288.053039    ;  uncertainty theta = 0.001611, k = 0.029870
         8         7        21     1      119.911270      287.951019    ;  uncertainty theta = 0.001171, k = 0.056684
         8         9        10     1      119.055054      547.849650    ;  uncertainty theta = 0.002649, k = 0.058557
         8         9        23     1      120.621201      285.381858    ;  uncertainty theta = 0.001559, k = 0.045108
         9         8        22     1      119.846214      288.037334    ;  uncertainty theta = 0.001912, k = 0.029712
         9        10        11     1      132.148712      362.090099    ;  uncertainty theta = 0.004021, k = 0.117725
        10         5        47     1      108.504166      692.414780    ;  uncertainty theta = 0.003330, k = 0.134515
        10         9        23     1      121.426163      287.416463    ;  uncertainty theta = 0.003173, k = 0.074913
        10        11        12     1      125.307213      370.030097    ;  uncertainty theta = 0.007477, k = 0.176004
        11         4        47     1      111.583336      704.919664    ;  uncertainty theta = 0.005630, k = 0.070418
        11        12        13     1      111.553612      547.750694    ;  uncertainty theta = 0.004414, k = 0.054874
        11        12        24     1      107.114052      409.123709    ;  uncertainty theta = 0.002553, k = 0.061271
        11        12        25     1      107.114052      409.123709    ;  uncertainty theta = 0.002553, k = 0.061271
        12        13        14     1      109.889114      550.043543    ;  uncertainty theta = 0.002261, k = 0.069684
        12        13        26     1      107.804588      395.320997    ;  uncertainty theta = 0.002441, k = 0.064046
        12        13        27     1      107.804588      395.320997    ;  uncertainty theta = 0.002441, k = 0.064046
        13        12        24     1      106.894165      401.786610    ;  uncertainty theta = 0.002760, k = 0.098259
        13        12        25     1      106.894165      401.786610    ;  uncertainty theta = 0.002760, k = 0.098259
        13        14        15     1      109.030472      594.555619    ;  uncertainty theta = 0.001696, k = 0.045001
        13        14        28     1      109.925400      407.172610    ;  uncertainty theta = 0.001735, k = 0.045223
        13        14        29     1      109.925400      407.172610    ;  uncertainty theta = 0.001735, k = 0.045223
        14        13        26     1      106.724709      398.206180    ;  uncertainty theta = 0.001391, k = 0.023130
        14        13        27     1      106.724709      398.206180    ;  uncertainty theta = 0.001391, k = 0.023130
        14        15        16     1      110.885666      496.686754    ;  uncertainty theta = 0.001424, k = 0.095319
        15        14        28     1      106.960228      431.689001    ;  uncertainty theta = 0.001451, k = 0.023371
        15        14        29     1      106.960228      431.689001    ;  uncertainty theta = 0.001451, k = 0.023371
        15        16        19     1      120.880371      437.394087    ;  uncertainty theta = 0.002970, k = 0.200699
        15        16        32     1      116.489357      458.690472    ;  uncertainty theta = 0.005226, k = 0.228959
        16        19        18     1      120.722633      518.175976    ;  uncertainty theta = 0.002195, k = 0.141477
        16        19        30     1      118.073547      268.457585    ;  uncertainty theta = 0.004557, k = 0.050618
        16        32        31     1      117.886742      446.079992    ;  uncertainty theta = 0.004650, k = 0.148889
        16        32        33     1      121.055542      434.027434    ;  uncertainty theta = 0.002581, k = 0.247580
        17        18        19     1      120.807838      514.806929    ;  uncertainty theta = 0.001881, k = 0.085063
        17        18        41     1      119.944679      287.263017    ;  uncertainty theta = 0.001380, k = 0.039752
        17        31        32     1      119.359840      455.161627    ;  uncertainty theta = 0.004738, k = 0.151465
        17        31        36     1      123.340538      467.533813    ;  uncertainty theta = 0.002575, k = 0.078913
        18        17        31     1      119.297020      530.734680    ;  uncertainty theta = 0.001581, k = 0.054548
        18        17        42     1      121.059166      288.732869    ;  uncertainty theta = 0.001304, k = 0.052632
        18        19        30     1      120.640701      288.788317    ;  uncertainty theta = 0.002480, k = 0.056035
        19        16        32     1      123.092026      415.535439    ;  uncertainty theta = 0.003571, k = 0.180852
        19        18        41     1      119.891098      282.551420    ;  uncertainty theta = 0.001723, k = 0.073948
        24        12        25     1      104.535194      313.603364    ;  uncertainty theta = 0.003792, k = 0.055103
        26        13        27     1      105.098839      317.589452    ;  uncertainty theta = 0.002581, k = 0.027066
        28        14        29     1      107.557716      332.505071    ;  uncertainty theta = 0.001738, k = 0.040091
        31        17        42     1      119.503296      276.877490    ;  uncertainty theta = 0.002196, k = 0.043077
        31        32        33     1      119.544373      455.792042    ;  uncertainty theta = 0.003353, k = 0.075921
        31        36        35     1      120.307373      540.568191    ;  uncertainty theta = 0.001705, k = 0.049107
        31        36        40     1      119.335144      278.316857    ;  uncertainty theta = 0.002520, k = 0.045302
        32        31        36     1      118.325851      453.057433    ;  uncertainty theta = 0.003579, k = 0.122749
        32        33        34     1      120.765099      522.187984    ;  uncertainty theta = 0.000878, k = 0.092445
        32        33        37     1      118.487877      261.075956    ;  uncertainty theta = 0.001939, k = 0.118010
        33        34        35     1      120.327049      530.332311    ;  uncertainty theta = 0.001259, k = 0.030035
        33        34        38     1      119.709885      291.029485    ;  uncertainty theta = 0.000552, k = 0.039936
        34        33        37     1      120.799538      286.723609    ;  uncertainty theta = 0.001427, k = 0.049122
        34        35        36     1      119.492630      527.209378    ;  uncertainty theta = 0.001081, k = 0.017886
        34        35        39     1      120.342430      288.088696    ;  uncertainty theta = 0.001400, k = 0.008231
        35        34        38     1      120.521278      289.271128    ;  uncertainty theta = 0.001411, k = 0.008024
        35        36        40     1      120.925461      287.525826    ;  uncertainty theta = 0.001171, k = 0.023439
        36        35        39     1      119.773743      289.592799    ;  uncertainty theta = 0.001086, k = 0.026821
        44        43        45     1      107.489273      320.470612    ;  uncertainty theta = 0.006452, k = 0.046098
        44        43        46     1      107.489273      320.470612    ;  uncertainty theta = 0.006452, k = 0.046098
        44        43        47     1      108.273056      468.409736    ;  uncertainty theta = 0.003375, k = 0.023585
        45        43        46     1      107.489273      320.470612    ;  uncertainty theta = 0.006452, k = 0.046098
        45        43        47     1      108.273056      468.409736    ;  uncertainty theta = 0.003375, k = 0.023585
        46        43        47     1      108.273056      468.409672    ;  uncertainty theta = 0.003375, k = 0.023585

[ dihedrals ] ; propers for gromacs 4.5 or higher, use funct 9
;       ai        aj        ak        al funct           phase               k        pn
         1         2         4        11     9        0.000000       -0.769888         1    ;  uncertainty k = 0.881216
         1         2         4        11     9      180.000000        2.790330         2    ;  uncertainty k = 0.333340
         1         2         4        11     9        0.000000        0.169909         3    ;  uncertainty k = 0.232382
         1         2         4        11     9      180.000000        0.104335         4    ;  uncertainty k = 0.153246
         1         2         4        47     9        0.000000        1.466326         1    ;  uncertainty k = 1.198535
         1         2         4        47     9      180.000000        5.215257         2    ;  uncertainty k = 0.364927
         1         2         4        47     9        0.000000        0.656581         3    ;  uncertainty k = 0.231491
         1         2         4        47     9      180.000000        0.142350         4    ;  uncertainty k = 0.174443
         2         4        11        10     9        0.000000        0.303521         1    ;  uncertainty k = 0.814499
         2         4        11        10     9      180.000000       11.527116         2    ;  uncertainty k = 0.430111
         2         4        11        10     9        0.000000        1.977102         3    ;  uncertainty k = 0.464080
         2         4        11        10     9      180.000000        0.885954         4    ;  uncertainty k = 0.212571
         2         4        11        12     9        0.000000       -0.111261         1    ;  uncertainty k = 0.515863
         2         4        11        12     9      180.000000        9.235439         2    ;  uncertainty k = 0.522575
         2         4        11        12     9        0.000000        1.524999         3    ;  uncertainty k = 0.370316
         2         4        11        12     9      180.000000        0.474480         4    ;  uncertainty k = 0.324096
         2         4        47         5     9        0.000000       -0.262493         1    ;  uncertainty k = 1.784784
         2         4        47         5     9      180.000000        6.672232         2    ;  uncertainty k = 0.833179
         2         4        47         5     9        0.000000        1.819092         3    ;  uncertainty k = 0.644884
         2         4        47         5     9      180.000000        0.322445         4    ;  uncertainty k = 0.192460
         2         4        47        43     9        0.000000       -0.028923         1    ;  uncertainty k = 1.270322
         2         4        47        43     9      180.000000        4.799255         2    ;  uncertainty k = 0.285733
         2         4        47        43     9        0.000000        1.190076         3    ;  uncertainty k = 0.304559
         2         4        47        43     9      180.000000       -0.126753         4    ;  uncertainty k = 0.256908
         3         2         4        11     9        0.000000       -0.769888         1    ;  uncertainty k = 0.881216
         3         2         4        11     9      180.000000        2.790330         2    ;  uncertainty k = 0.333340
         3         2         4        11     9        0.000000        0.169909         3    ;  uncertainty k = 0.232382
         3         2         4        11     9      180.000000        0.104335         4    ;  uncertainty k = 0.153246
         3         2         4        47     9        0.000000        1.466326         1    ;  uncertainty k = 1.198535
         3         2         4        47     9      180.000000        5.215257         2    ;  uncertainty k = 0.364927
         3         2         4        47     9        0.000000        0.656581         3    ;  uncertainty k = 0.231491
         3         2         4        47     9      180.000000        0.142350         4    ;  uncertainty k = 0.174443
         4        11        10         5     9        0.000000       -0.055719         1    ;  uncertainty k = 0.604746
         4        11        10         5     9      180.000000       11.849929         2    ;  uncertainty k = 1.502006
         4        11        10         5     9        0.000000       -9.569160         3    ;  uncertainty k = 2.036682
         4        11        10         5     9      180.000000        2.146005         4    ;  uncertainty k = 0.638510
         4        11        10         9     9        0.000000        0.135526         1    ;  uncertainty k = 1.356278
         4        11        10         9     9      180.000000        5.400985         2    ;  uncertainty k = 0.104773
         4        11        10         9     9        0.000000        0.367530         3    ;  uncertainty k = 0.537251
         4        11        10         9     9      180.000000        0.922220         4    ;  uncertainty k = 0.180354
         4        11        12        13     9        0.000000       -0.246088         1    ;  uncertainty k = 1.052404
         4        11        12        13     9      180.000000        1.782495         2    ;  uncertainty k = 0.507436
         4        11        12        13     9        0.000000        0.120112         3    ;  uncertainty k = 0.409795
         4        11        12        13     9      180.000000        0.109087         4    ;  uncertainty k = 0.143183
         4        11        12        24     9        0.000000        1.915768         1    ;  uncertainty k = 0.438469
         4        11        12        24     9      180.000000        2.568468         2    ;  uncertainty k = 0.379998
         4        11        12        24     9        0.000000       -0.069329         3    ;  uncertainty k = 0.092598
         4        11        12        24     9      180.000000        0.178984         4    ;  uncertainty k = 0.151017
         4        11        12        25     9        0.000000        1.915768         1    ;  uncertainty k = 0.438469
         4        11        12        25     9      180.000000        2.568468         2    ;  uncertainty k = 0.379998
         4        11        12        25     9        0.000000       -0.069329         3    ;  uncertainty k = 0.092598
         4        11        12        25     9      180.000000        0.178984         4    ;  uncertainty k = 0.151017
         4        47         5         6     9        0.000000        0.668791         1    ;  uncertainty k = 1.579169
         4        47         5         6     9      180.000000        6.369207         2    ;  uncertainty k = 0.593909
         4        47         5         6     9        0.000000        0.858257         3    ;  uncertainty k = 0.508951
         4        47         5         6     9      180.000000        0.308116         4    ;  uncertainty k = 0.210609
         4        47         5        10     9        0.000000        0.221273         1    ;  uncertainty k = 0.818780
         4        47         5        10     9      180.000000       13.389857         2    ;  uncertainty k = 0.942844
         4        47         5        10     9        0.000000       -6.992942         3    ;  uncertainty k = 1.283932
         4        47         5        10     9      180.000000        0.926919         4    ;  uncertainty k = 0.957422
         4        47        43        44     9        0.000000        0.706233         1    ;  uncertainty k = 0.933189
         4        47        43        44     9      180.000000        0.183083         2    ;  uncertainty k = 0.531900
         4        47        43        44     9        0.000000        0.206168         3    ;  uncertainty k = 0.139861
         4        47        43        44     9      180.000000        0.239414         4    ;  uncertainty k = 0.101806
         4        47        43        45     9        0.000000        0.706233         1    ;  uncertainty k = 0.933189
         4        47        43        45     9      180.000000        0.183083         2    ;  uncertainty k = 0.531900
         4        47        43        45     9        0.000000        0.206168         3    ;  uncertainty k = 0.139861
         4        47        43        45     9      180.000000        0.239414         4    ;  uncertainty k = 0.101806
         4        47        43        46     9        0.000000        0.706233         1    ;  uncertainty k = 0.933189
         4        47        43        46     9      180.000000        0.183083         2    ;  uncertainty k = 0.531900
         4        47        43        46     9        0.000000        0.206168         3    ;  uncertainty k = 0.139861
         4        47        43        46     9      180.000000        0.239414         4    ;  uncertainty k = 0.101806
         5         6         7         8     9        0.000000       -0.004371         1    ;  uncertainty k = 0.364340
         5         6         7         8     9      180.000000       16.507916         2    ;  uncertainty k = 0.241761
         5         6         7         8     9        0.000000       -0.431717         3    ;  uncertainty k = 0.413209
         5         6         7         8     9      180.000000        0.640261         4    ;  uncertainty k = 0.298252
         5         6         7        21     9        0.000000        0.075238         1    ;  uncertainty k = 0.310752
         5         6         7        21     9      180.000000       10.524096         2    ;  uncertainty k = 0.365633
         5         6         7        21     9        0.000000        1.411601         3    ;  uncertainty k = 0.347121
         5         6         7        21     9      180.000000        1.572319         4    ;  uncertainty k = 0.294168
         5        10         9         8     9        0.000000       -0.057070         1    ;  uncertainty k = 0.434744
         5        10         9         8     9      180.000000       13.424747         2    ;  uncertainty k = 0.179341
         5        10         9         8     9        0.000000       -1.490073         3    ;  uncertainty k = 0.297441
         5        10         9         8     9      180.000000        0.722415         4    ;  uncertainty k = 0.240118
         5        10         9        23     9        0.000000        0.303031         1    ;  uncertainty k = 0.139579
         5        10         9        23     9      180.000000        7.077833         2    ;  uncertainty k = 0.769910
         5        10         9        23     9        0.000000        1.416154         3    ;  uncertainty k = 0.372412
         5        10         9        23     9      180.000000        1.249588         4    ;  uncertainty k = 0.351143
         5        10        11        12     9        0.000000        1.040107         1    ;  uncertainty k = 0.854422
         5        10        11        12     9      180.000000       10.129643         2    ;  uncertainty k = 0.174908
         5        10        11        12     9        0.000000        1.744360         3    ;  uncertainty k = 0.447474
         5        10        11        12     9      180.000000        0.286178         4    ;  uncertainty k = 0.368099
         5        47         4        11     9        0.000000       -0.486152         1    ;  uncertainty k = 0.761094
         5        47         4        11     9      180.000000       15.001035         2    ;  uncertainty k = 0.587483
         5        47         4        11     9        0.000000       -5.611267         3    ;  uncertainty k = 0.655073
         5        47         4        11     9      180.000000        0.821549         4    ;  uncertainty k = 0.473322
         5        47        43        44     9        0.000000       -1.015308         1    ;  uncertainty k = 0.473795
         5        47        43        44     9      180.000000       -0.607947         2    ;  uncertainty k = 0.294047
         5        47        43        44     9        0.000000        1.245573         3    ;  uncertainty k = 0.235751
         5        47        43        44     9      180.000000        0.228448         4    ;  uncertainty k = 0.062560
         5        47        43        45     9        0.000000       -1.015308         1    ;  uncertainty k = 0.473795
         5        47        43        45     9      180.000000       -0.607947         2    ;  uncertainty k = 0.294047
         5        47        43        45     9        0.000000        1.245573         3    ;  uncertainty k = 0.235751
         5        47        43        45     9      180.000000        0.228448         4    ;  uncertainty k = 0.062560
         5        47        43        46     9        0.000000       -1.015308         1    ;  uncertainty k = 0.473795
         5        47        43        46     9      180.000000       -0.607947         2    ;  uncertainty k = 0.294047
         5        47        43        46     9        0.000000        1.245573         3    ;  uncertainty k = 0.235751
         5        47        43        46     9      180.000000        0.228448         4    ;  uncertainty k = 0.062560
         6         5        10         9     9        0.000000       -0.536065         1    ;  uncertainty k = 0.668795
         6         5        10         9     9      180.000000        7.622800         2    ;  uncertainty k = 0.800281
         6         5        10         9     9        0.000000        0.142148         3    ;  uncertainty k = 0.516499
         6         5        10         9     9      180.000000        0.895472         4    ;  uncertainty k = 0.391900
         6         5        10        11     9        0.000000       -0.027673         1    ;  uncertainty k = 0.527153
         6         5        10        11     9      180.000000        7.210356         2    ;  uncertainty k = 0.452136
         6         5        10        11     9        0.000000        0.172045         3    ;  uncertainty k = 0.738062
         6         5        10        11     9      180.000000        1.178422         4    ;  uncertainty k = 0.346273
         6         5        47        43     9        0.000000        0.087734         1    ;  uncertainty k = 1.784607
         6         5        47        43     9      180.000000        3.695304         2    ;  uncertainty k = 0.773791
         6         5        47        43     9        0.000000        0.817121         3    ;  uncertainty k = 0.189466
         6         5        47        43     9      180.000000        0.139797         4    ;  uncertainty k = 0.147564
         6         7         8         9     9        0.000000       -0.201005         1    ;  uncertainty k = 0.216906
         6         7         8         9     9      180.000000       12.964665         2    ;  uncertainty k = 0.312592
         6         7         8         9     9        0.000000       -0.898191         3    ;  uncertainty k = 0.704201
         6         7         8         9     9      180.000000        0.608237         4    ;  uncertainty k = 0.215082
         6         7         8        22     9        0.000000        0.078316         1    ;  uncertainty k = 0.091349
         6         7         8        22     9      180.000000        7.075305         2    ;  uncertainty k = 0.399969
         6         7         8        22     9        0.000000        1.377411         3    ;  uncertainty k = 0.280277
         6         7         8        22     9      180.000000        1.644686         4    ;  uncertainty k = 0.211949
         7         6         5        10     9        0.000000        0.045081         1    ;  uncertainty k = 0.347169
         7         6         5        10     9      180.000000       12.472791         2    ;  uncertainty k = 0.075783
         7         6         5        10     9        0.000000       -1.231625         3    ;  uncertainty k = 0.156144
         7         6         5        10     9      180.000000        0.843955         4    ;  uncertainty k = 0.248011
         7         6         5        47     9        0.000000        0.226606         1    ;  uncertainty k = 0.462657
         7         6         5        47     9      180.000000       10.728437         2    ;  uncertainty k = 0.430769
         7         6         5        47     9        0.000000        0.684229         3    ;  uncertainty k = 0.218747
         7         6         5        47     9      180.000000        1.128885         4    ;  uncertainty k = 0.188584
         7         8         9        10     9        0.000000        0.031365         1    ;  uncertainty k = 0.469812
         7         8         9        10     9      180.000000       17.070472         2    ;  uncertainty k = 0.274350
         7         8         9        10     9        0.000000       -0.451331         3    ;  uncertainty k = 0.495561
         7         8         9        10     9      180.000000        0.562124         4    ;  uncertainty k = 0.370268
         7         8         9        23     9        0.000000        0.156514         1    ;  uncertainty k = 0.189363
         7         8         9        23     9      180.000000        8.763485         2    ;  uncertainty k = 0.528331
         7         8         9        23     9        0.000000        1.537133         3    ;  uncertainty k = 0.252885
         7         8         9        23     9      180.000000        1.871338         4    ;  uncertainty k = 0.287606
         8         7         6        20     9        0.000000        0.172157         1    ;  uncertainty k = 0.187575
         8         7         6        20     9      180.000000        8.831636         2    ;  uncertainty k = 0.610476
         8         7         6        20     9        0.000000        1.588922         3    ;  uncertainty k = 0.257091
         8         7         6        20     9      180.000000        1.892939         4    ;  uncertainty k = 0.304604
         8         9        10        11     9        0.000000        0.164740         1    ;  uncertainty k = 0.291495
         8         9        10        11     9      180.000000        9.165126         2    ;  uncertainty k = 0.461647
         8         9        10        11     9        0.000000        0.524753         3    ;  uncertainty k = 0.455084
         8         9        10        11     9      180.000000        1.176526         4    ;  uncertainty k = 0.194779
         9         8         7        21     9        0.000000       -0.049469         1    ;  uncertainty k = 0.132774
         9         8         7        21     9      180.000000        6.923235         2    ;  uncertainty k = 0.418662
         9         8         7        21     9        0.000000        1.346625         3    ;  uncertainty k = 0.236877
         9         8         7        21     9      180.000000        1.583416         4    ;  uncertainty k = 0.175392
         9        10         5        47     9        0.000000        0.343580         1    ;  uncertainty k = 0.195247
         9        10         5        47     9      180.000000        8.171550         2    ;  uncertainty k = 0.319200
         9        10         5        47     9        0.000000       -0.094806         3    ;  uncertainty k = 0.609481
         9        10         5        47     9      180.000000        1.282640         4    ;  uncertainty k = 0.430200
         9        10        11        12     9        0.000000        0.289929         1    ;  uncertainty k = 1.471117
         9        10        11        12     9      180.000000        5.661901         2    ;  uncertainty k = 0.459622
         9        10        11        12     9        0.000000        1.704880         3    ;  uncertainty k = 0.295419
         9        10        11        12     9      180.000000        0.185039         4    ;  uncertainty k = 0.219073
        10         5         6        20     9        0.000000        0.221809         1    ;  uncertainty k = 0.589471
        10         5         6        20     9      180.000000        6.584048         2    ;  uncertainty k = 0.884997
        10         5         6        20     9        0.000000        1.267814         3    ;  uncertainty k = 0.215713
        10         5         6        20     9      180.000000        1.204223         4    ;  uncertainty k = 0.314742
        10         5        47        43     9        0.000000        1.743178         1    ;  uncertainty k = 0.873866
        10         5        47        43     9      180.000000        5.440780         2    ;  uncertainty k = 0.780912
        10         5        47        43     9        0.000000        1.481468         3    ;  uncertainty k = 0.313361
        10         5        47        43     9      180.000000        0.265037         4    ;  uncertainty k = 0.179163
        10         9         8        22     9        0.000000        0.122909         1    ;  uncertainty k = 0.353155
        10         9         8        22     9      180.000000       11.000895         2    ;  uncertainty k = 0.392996
        10         9         8        22     9        0.000000        1.498551         3    ;  uncertainty k = 0.338481
        10         9         8        22     9      180.000000        1.660786         4    ;  uncertainty k = 0.327220
        10        11         4        47     9        0.000000       -0.334572         1    ;  uncertainty k = 0.350626
        10        11         4        47     9      180.000000       20.169412         2    ;  uncertainty k = 0.341197
        10        11         4        47     9        0.000000       -5.378619         3    ;  uncertainty k = 1.277195
        10        11         4        47     9      180.000000        1.276490         4    ;  uncertainty k = 0.344328
        10        11        12        13     9        0.000000       -0.492816         1    ;  uncertainty k = 0.940939
        10        11        12        13     9      180.000000        1.237103         2    ;  uncertainty k = 0.488291
        10        11        12        13     9        0.000000        0.641774         3    ;  uncertainty k = 0.228747
        10        11        12        13     9      180.000000        0.145946         4    ;  uncertainty k = 0.065277
        10        11        12        24     9        0.000000       -0.679163         1    ;  uncertainty k = 0.383421
        10        11        12        24     9      180.000000        1.998262         2    ;  uncertainty k = 0.370057
        10        11        12        24     9        0.000000        0.768277         3    ;  uncertainty k = 0.110336
        10        11        12        24     9      180.000000        0.229094         4    ;  uncertainty k = 0.085956
        10        11        12        25     9        0.000000       -0.679163         1    ;  uncertainty k = 0.383421
        10        11        12        25     9      180.000000        1.998262         2    ;  uncertainty k = 0.370057
        10        11        12        25     9        0.000000        0.768277         3    ;  uncertainty k = 0.110336
        10        11        12        25     9      180.000000        0.229094         4    ;  uncertainty k = 0.085956
        11         4        47        43     9        0.000000        1.604799         1    ;  uncertainty k = 1.793205
        11         4        47        43     9      180.000000        8.411924         2    ;  uncertainty k = 0.597932
        11         4        47        43     9        0.000000        1.876858         3    ;  uncertainty k = 0.675100
        11         4        47        43     9      180.000000        0.007097         4    ;  uncertainty k = 0.230552
        11        10         5        47     9        0.000000       -0.198263         1    ;  uncertainty k = 0.336721
        11        10         5        47     9      180.000000       13.019524         2    ;  uncertainty k = 0.767504
        11        10         5        47     9        0.000000       -4.498365         3    ;  uncertainty k = 1.234408
        11        10         5        47     9      180.000000        1.359574         4    ;  uncertainty k = 0.850061
        11        10         9        23     9        0.000000        0.487754         1    ;  uncertainty k = 0.842716
        11        10         9        23     9      180.000000        5.663639         2    ;  uncertainty k = 0.478173
        11        10         9        23     9        0.000000        1.131917         3    ;  uncertainty k = 0.354087
        11        10         9        23     9      180.000000        0.784688         4    ;  uncertainty k = 0.272792
        11        12        13        14     9        0.000000       -2.846721         1    ;  uncertainty k = 0.974690
        11        12        13        14     9      180.000000       -0.424778         2    ;  uncertainty k = 0.304829
        11        12        13        14     9        0.000000        1.349911         3    ;  uncertainty k = 0.117308
        11        12        13        14     9      180.000000       -0.313197         4    ;  uncertainty k = 0.112373
        11        12        13        26     9        0.000000        0.383428         1    ;  uncertainty k = 0.663152
        11        12        13        26     9      180.000000       -0.295793         2    ;  uncertainty k = 0.259707
        11        12        13        26     9        0.000000        1.142470         3    ;  uncertainty k = 0.187805
        11        12        13        26     9      180.000000       -0.005278         4    ;  uncertainty k = 0.056954
        11        12        13        27     9        0.000000        0.383428         1    ;  uncertainty k = 0.663152
        11        12        13        27     9      180.000000       -0.295793         2    ;  uncertainty k = 0.259707
        11        12        13        27     9        0.000000        1.142470         3    ;  uncertainty k = 0.187805
        11        12        13        27     9      180.000000       -0.005278         4    ;  uncertainty k = 0.056954
        12        11         4        47     9        0.000000        0.376399         1    ;  uncertainty k = 0.626326
        12        11         4        47     9      180.000000       15.482003         2    ;  uncertainty k = 0.432409
        12        11         4        47     9        0.000000        1.634055         3    ;  uncertainty k = 0.423266
        12        11         4        47     9      180.000000        1.017916         4    ;  uncertainty k = 0.411976
        12        13        14        15     9        0.000000       -4.132053         1    ;  uncertainty k = 0.840353
        12        13        14        15     9      180.000000       -2.514036         2    ;  uncertainty k = 0.571665
        12        13        14        15     9        0.000000        2.154894         3    ;  uncertainty k = 0.303117
        12        13        14        15     9      180.000000       -0.450349         4    ;  uncertainty k = 0.168489
        12        13        14        28     9        0.000000       -1.925879         1    ;  uncertainty k = 0.514492
        12        13        14        28     9      180.000000        0.064244         2    ;  uncertainty k = 0.234695
        12        13        14        28     9        0.000000        0.919806         3    ;  uncertainty k = 0.060095
        12        13        14        28     9      180.000000       -0.371321         4    ;  uncertainty k = 0.107918
        12        13        14        29     9        0.000000       -1.925879         1    ;  uncertainty k = 0.514492
        12        13        14        29     9      180.000000        0.064244         2    ;  uncertainty k = 0.234695
        12        13        14        29     9        0.000000        0.919806         3    ;  uncertainty k = 0.060095
        12        13        14        29     9      180.000000       -0.371321         4    ;  uncertainty k = 0.107918
        13        14        15        16     9        0.000000       -0.855765         1    ;  uncertainty k = 0.958385
        13        14        15        16     9      180.000000       -0.362870         2    ;  uncertainty k = 0.288851
        13        14        15        16     9        0.000000        0.709124         3    ;  uncertainty k = 0.059714
        13        14        15        16     9      180.000000        0.510241         4    ;  uncertainty k = 0.046965
        14        13        12        24     9        0.000000       -1.672070         1    ;  uncertainty k = 0.394122
        14        13        12        24     9      180.000000       -0.621954         2    ;  uncertainty k = 0.292433
        14        13        12        24     9        0.000000        0.950548         3    ;  uncertainty k = 0.128032
        14        13        12        24     9      180.000000       -0.348105         4    ;  uncertainty k = 0.062160
        14        13        12        25     9        0.000000       -1.672070         1    ;  uncertainty k = 0.394122
        14        13        12        25     9      180.000000       -0.621954         2    ;  uncertainty k = 0.292433
        14        13        12        25     9        0.000000        0.950548         3    ;  uncertainty k = 0.128032
        14        13        12        25     9      180.000000       -0.348105         4    ;  uncertainty k = 0.062160
        14        15        16        19     9        0.000000        2.771474         1    ;  uncertainty k = 0.664062
        14        15        16        19     9      180.000000        7.058893         2    ;  uncertainty k = 0.050153
        14        15        16        19     9        0.000000        0.255364         3    ;  uncertainty k = 0.197562
        14        15        16        19     9      180.000000        0.108218         4    ;  uncertainty k = 0.093440
        14        15        16        32     9        0.000000        0.355527         1    ;  uncertainty k = 0.512071
        14        15        16        32     9      180.000000        6.877661         2    ;  uncertainty k = 0.167219
        14        15        16        32     9        0.000000        0.288506         3    ;  uncertainty k = 0.286217
        14        15        16        32     9      180.000000        0.282278         4    ;  uncertainty k = 0.092117
        15        14        13        26     9        0.000000        0.331853         1    ;  uncertainty k = 0.516652
        15        14        13        26     9      180.000000       -2.264471         2    ;  uncertainty k = 0.330961
        15        14        13        26     9        0.000000        1.406522         3    ;  uncertainty k = 0.115868
        15        14        13        26     9      180.000000        0.033184         4    ;  uncertainty k = 0.059062
        15        14        13        27     9        0.000000        0.331853         1    ;  uncertainty k = 0.516652
        15        14        13        27     9      180.000000       -2.264471         2    ;  uncertainty k = 0.330961
        15        14        13        27     9        0.000000        1.406522         3    ;  uncertainty k = 0.115868
        15        14        13        27     9      180.000000        0.033184         4    ;  uncertainty k = 0.059062
        15        16        19        18     9        0.000000        0.075865         1    ;  uncertainty k = 0.261988
        15        16        19        18     9      180.000000       13.527382         2    ;  uncertainty k = 0.350832
        15        16        19        18     9        0.000000        1.302846         3    ;  uncertainty k = 0.248461
        15        16        19        18     9      180.000000        1.573148         4    ;  uncertainty k = 0.228848
        15        16        19        30     9        0.000000       -0.183857         1    ;  uncertainty k = 0.238167
        15        16        19        30     9      180.000000       10.497921         2    ;  uncertainty k = 0.651178
        15        16        19        30     9        0.000000        0.910160         3    ;  uncertainty k = 0.112595
        15        16        19        30     9      180.000000        1.240318         4    ;  uncertainty k = 0.494985
        15        16        32        31     9        0.000000        0.137852         1    ;  uncertainty k = 0.298693
        15        16        32        31     9      180.000000        9.678080         2    ;  uncertainty k = 0.190325
        15        16        32        31     9        0.000000        1.155274         3    ;  uncertainty k = 0.179630
        15        16        32        31     9      180.000000        1.490570         4    ;  uncertainty k = 0.231045
        15        16        32        33     9        0.000000        0.181835         1    ;  uncertainty k = 0.443366
        15        16        32        33     9      180.000000        9.773729         2    ;  uncertainty k = 0.205658
        15        16        32        33     9        0.000000        1.079929         3    ;  uncertainty k = 0.299362
        15        16        32        33     9      180.000000        1.468690         4    ;  uncertainty k = 0.362095
        16        15        14        28     9        0.000000        0.906562         1    ;  uncertainty k = 0.666674
        16        15        14        28     9      180.000000       -1.280776         2    ;  uncertainty k = 0.127342
        16        15        14        28     9        0.000000        0.652214         3    ;  uncertainty k = 0.091067
        16        15        14        28     9      180.000000        0.249136         4    ;  uncertainty k = 0.049478
        16        15        14        29     9        0.000000        0.906562         1    ;  uncertainty k = 0.666674
        16        15        14        29     9      180.000000       -1.280776         2    ;  uncertainty k = 0.127342
        16        15        14        29     9        0.000000        0.652214         3    ;  uncertainty k = 0.091067
        16        15        14        29     9      180.000000        0.249136         4    ;  uncertainty k = 0.049478
        16        19        18        17     9        0.000000       -0.223631         1    ;  uncertainty k = 0.257927
        16        19        18        17     9      180.000000       11.307064         2    ;  uncertainty k = 0.442432
        16        19        18        17     9        0.000000       -0.668154         3    ;  uncertainty k = 0.466698
        16        19        18        17     9      180.000000        0.877377         4    ;  uncertainty k = 0.187087
        16        19        18        41     9        0.000000       -0.081235         1    ;  uncertainty k = 0.183357
        16        19        18        41     9      180.000000        6.743736         2    ;  uncertainty k = 0.496825
        16        19        18        41     9        0.000000        1.288673         3    ;  uncertainty k = 0.275167
        16        19        18        41     9      180.000000        1.502547         4    ;  uncertainty k = 0.163671
        16        32        31        17     9        0.000000       -0.354612         1    ;  uncertainty k = 0.441142
        16        32        31        17     9      180.000000        6.627677         2    ;  uncertainty k = 0.497580
        16        32        31        17     9        0.000000        0.570882         3    ;  uncertainty k = 0.281132
        16        32        31        17     9      180.000000        1.486656         4    ;  uncertainty k = 0.229164
        16        32        31        36     9        0.000000       -0.333444         1    ;  uncertainty k = 0.417730
        16        32        31        36     9      180.000000        6.674444         2    ;  uncertainty k = 0.525750
        16        32        31        36     9        0.000000        0.560817         3    ;  uncertainty k = 0.275597
        16        32        31        36     9      180.000000        1.487407         4    ;  uncertainty k = 0.230347
        16        32        33        34     9        0.000000       -0.090356         1    ;  uncertainty k = 0.314127
        16        32        33        34     9      180.000000        9.233646         2    ;  uncertainty k = 0.235240
        16        32        33        34     9        0.000000        0.518618         3    ;  uncertainty k = 0.351538
        16        32        33        34     9      180.000000        1.357479         4    ;  uncertainty k = 0.109332
        16        32        33        37     9        0.000000       -0.151722         1    ;  uncertainty k = 0.278712
        16        32        33        37     9      180.000000        7.373250         2    ;  uncertainty k = 0.245707
        16        32        33        37     9        0.000000        1.290525         3    ;  uncertainty k = 0.176006
        16        32        33        37     9      180.000000        1.073830         4    ;  uncertainty k = 0.224703
        17        18        19        30     9        0.000000        0.180055         1    ;  uncertainty k = 0.478738
        17        18        19        30     9      180.000000        6.645621         2    ;  uncertainty k = 0.498611
        17        18        19        30     9        0.000000        1.364349         3    ;  uncertainty k = 0.345748
        17        18        19        30     9      180.000000        1.577532         4    ;  uncertainty k = 0.120519
        17        31        32        33     9        0.000000       -0.140075         1    ;  uncertainty k = 0.210171
        17        31        32        33     9      180.000000        6.924781         2    ;  uncertainty k = 0.423549
        17        31        32        33     9        0.000000        0.489571         3    ;  uncertainty k = 0.287980
        17        31        32        33     9      180.000000        1.460854         4    ;  uncertainty k = 0.218107
        17        31        36        35     9        0.000000       -0.176860         1    ;  uncertainty k = 0.439986
        17        31        36        35     9      180.000000        9.129413         2    ;  uncertainty k = 0.290007
        17        31        36        35     9        0.000000        0.364802         3    ;  uncertainty k = 0.321107
        17        31        36        35     9      180.000000        1.403096         4    ;  uncertainty k = 0.121695
        17        31        36        40     9        0.000000       -0.143798         1    ;  uncertainty k = 0.191240
        17        31        36        40     9      180.000000        6.459295         2    ;  uncertainty k = 0.452160
        17        31        36        40     9        0.000000        1.216640         3    ;  uncertainty k = 0.236253
        17        31        36        40     9      180.000000        1.159689         4    ;  uncertainty k = 0.126546
        18        17        31        32     9        0.000000       -0.094439         1    ;  uncertainty k = 0.389134
        18        17        31        32     9      180.000000       10.589317         2    ;  uncertainty k = 0.414391
        18        17        31        32     9        0.000000       -0.430098         3    ;  uncertainty k = 0.276932
        18        17        31        32     9      180.000000        1.070594         4    ;  uncertainty k = 0.171418
        18        17        31        36     9        0.000000       -0.276027         1    ;  uncertainty k = 0.565350
        18        17        31        36     9      180.000000        9.588580         2    ;  uncertainty k = 0.246595
        18        17        31        36     9        0.000000        0.308300         3    ;  uncertainty k = 0.228403
        18        17        31        36     9      180.000000        1.362272         4    ;  uncertainty k = 0.116932
        18        19        16        32     9        0.000000        0.083265         1    ;  uncertainty k = 0.257142
        18        19        16        32     9      180.000000       10.592162         2    ;  uncertainty k = 0.402398
        18        19        16        32     9        0.000000        0.424007         3    ;  uncertainty k = 0.354510
        18        19        16        32     9      180.000000        1.276310         4    ;  uncertainty k = 0.185277
        19        16        32        31     9        0.000000        0.341386         1    ;  uncertainty k = 0.588410
        19        16        32        31     9      180.000000        6.653230         2    ;  uncertainty k = 1.041475
        19        16        32        31     9        0.000000        0.291478         3    ;  uncertainty k = 0.164533
        19        16        32        31     9      180.000000        1.295455         4    ;  uncertainty k = 0.299561
        19        16        32        33     9        0.000000        0.182474         1    ;  uncertainty k = 0.489549
        19        16        32        33     9      180.000000        5.891528         2    ;  uncertainty k = 0.554824
        19        16        32        33     9        0.000000        0.582085         3    ;  uncertainty k = 0.517845
        19        16        32        33     9      180.000000        1.413616         4    ;  uncertainty k = 0.214656
        19        18        17        31     9        0.000000       -0.003248         1    ;  uncertainty k = 0.352724
        19        18        17        31     9      180.000000       16.271674         2    ;  uncertainty k = 0.152542
        19        18        17        31     9        0.000000       -0.538125         3    ;  uncertainty k = 0.324107
        19        18        17        31     9      180.000000        0.816524         4    ;  uncertainty k = 0.225103
        19        18        17        42     9        0.000000        0.270961         1    ;  uncertainty k = 0.164485
        19        18        17        42     9      180.000000        9.525204         2    ;  uncertainty k = 0.455421
        19        18        17        42     9        0.000000        1.463322         3    ;  uncertainty k = 0.357621
        19        18        17        42     9      180.000000        1.921881         4    ;  uncertainty k = 0.253112
        20         6         5        47     9        0.000000        0.314130         1    ;  uncertainty k = 0.456334
        20         6         5        47     9      180.000000        5.701145         2    ;  uncertainty k = 0.585640
        20         6         5        47     9        0.000000        1.135540         3    ;  uncertainty k = 0.371207
        20         6         5        47     9      180.000000        0.785385         4    ;  uncertainty k = 0.390001
        20         6         7        21     9        0.000000        0.105047         1    ;  uncertainty k = 0.276546
        20         6         7        21     9      180.000000        7.670929         2    ;  uncertainty k = 0.245411
        20         6         7        21     9        0.000000       -0.288364         3    ;  uncertainty k = 0.230159
        20         6         7        21     9      180.000000        0.128472         4    ;  uncertainty k = 0.151146
        21         7         8        22     9        0.000000        0.018255         1    ;  uncertainty k = 0.138460
        21         7         8        22     9      180.000000        6.909816         2    ;  uncertainty k = 0.462772
        21         7         8        22     9        0.000000       -0.258347         3    ;  uncertainty k = 0.204374
        21         7         8        22     9      180.000000        0.082243         4    ;  uncertainty k = 0.148698
        22         8         9        23     9        0.000000        0.071919         1    ;  uncertainty k = 0.097131
        22         8         9        23     9      180.000000        7.815944         2    ;  uncertainty k = 0.230547
        22         8         9        23     9        0.000000       -0.190609         3    ;  uncertainty k = 0.268283
        22         8         9        23     9      180.000000        0.163881         4    ;  uncertainty k = 0.176051
        24        12        13        26     9        0.000000        0.859077         1    ;  uncertainty k = 0.176029
        24        12        13        26     9      180.000000       -0.670804         2    ;  uncertainty k = 0.265739
        24        12        13        26     9        0.000000        0.186253         3    ;  uncertainty k = 0.066934
        24        12        13        26     9      180.000000        0.010872         4    ;  uncertainty k = 0.043164
        24        12        13        27     9        0.000000        0.859077         1    ;  uncertainty k = 0.176029
        24        12        13        27     9      180.000000       -0.670804         2    ;  uncertainty k = 0.265739
        24        12        13        27     9        0.000000        0.186253         3    ;  uncertainty k = 0.066934
        24        12        13        27     9      180.000000        0.010872         4    ;  uncertainty k = 0.043164
        25        12        13        26     9        0.000000        0.859077         1    ;  uncertainty k = 0.176029
        25        12        13        26     9      180.000000       -0.670804         2    ;  uncertainty k = 0.265739
        25        12        13        26     9        0.000000        0.186253         3    ;  uncertainty k = 0.066934
        25        12        13        26     9      180.000000        0.010872         4    ;  uncertainty k = 0.043164
        25        12        13        27     9        0.000000        0.859077         1    ;  uncertainty k = 0.176029
        25        12        13        27     9      180.000000       -0.670804         2    ;  uncertainty k = 0.265739
        25        12        13        27     9        0.000000        0.186253         3    ;  uncertainty k = 0.066934
        25        12        13        27     9      180.000000        0.010872         4    ;  uncertainty k = 0.043164
        26        13        14        28     9        0.000000        0.449444         1    ;  uncertainty k = 0.139280
        26        13        14        28     9      180.000000       -0.425396         2    ;  uncertainty k = 0.148300
        26        13        14        28     9        0.000000        0.104575         3    ;  uncertainty k = 0.086099
        26        13        14        28     9      180.000000       -0.040944         4    ;  uncertainty k = 0.070354
        26        13        14        29     9        0.000000        0.449444         1    ;  uncertainty k = 0.139280
        26        13        14        29     9      180.000000       -0.425396         2    ;  uncertainty k = 0.148300
        26        13        14        29     9        0.000000        0.104575         3    ;  uncertainty k = 0.086099
        26        13        14        29     9      180.000000       -0.040944         4    ;  uncertainty k = 0.070354
        27        13        14        28     9        0.000000        0.449444         1    ;  uncertainty k = 0.139280
        27        13        14        28     9      180.000000       -0.425396         2    ;  uncertainty k = 0.148300
        27        13        14        28     9        0.000000        0.104575         3    ;  uncertainty k = 0.086099
        27        13        14        28     9      180.000000       -0.040944         4    ;  uncertainty k = 0.070354
        27        13        14        29     9        0.000000        0.449444         1    ;  uncertainty k = 0.139280
        27        13        14        29     9      180.000000       -0.425396         2    ;  uncertainty k = 0.148300
        27        13        14        29     9        0.000000        0.104575         3    ;  uncertainty k = 0.086099
        27        13        14        29     9      180.000000       -0.040944         4    ;  uncertainty k = 0.070354
        30        19        16        32     9        0.000000        0.247996         1    ;  uncertainty k = 0.252535
        30        19        16        32     9      180.000000        7.598394         2    ;  uncertainty k = 0.197360
        30        19        16        32     9        0.000000        1.587497         3    ;  uncertainty k = 0.472589
        30        19        16        32     9      180.000000        1.697153         4    ;  uncertainty k = 0.034873
        30        19        18        41     9        0.000000       -0.202491         1    ;  uncertainty k = 0.263152
        30        19        18        41     9      180.000000        6.607604         2    ;  uncertainty k = 0.535020
        30        19        18        41     9        0.000000       -0.212382         3    ;  uncertainty k = 0.280609
        30        19        18        41     9      180.000000        0.205404         4    ;  uncertainty k = 0.183562
        31        17        18        41     9        0.000000        0.219114         1    ;  uncertainty k = 0.262413
        31        17        18        41     9      180.000000        9.995547         2    ;  uncertainty k = 0.249834
        31        17        18        41     9        0.000000        1.549278         3    ;  uncertainty k = 0.333763
        31        17        18        41     9      180.000000        1.762117         4    ;  uncertainty k = 0.255251
        31        32        33        34     9        0.000000        0.017421         1    ;  uncertainty k = 0.354577
        31        32        33        34     9      180.000000       10.401125         2    ;  uncertainty k = 0.239738
        31        32        33        34     9        0.000000       -0.337474         3    ;  uncertainty k = 0.324755
        31        32        33        34     9      180.000000        1.001848         4    ;  uncertainty k = 0.234457
        31        32        33        37     9        0.000000       -0.119247         1    ;  uncertainty k = 0.467483
        31        32        33        37     9      180.000000        6.774582         2    ;  uncertainty k = 0.660619
        31        32        33        37     9        0.000000        1.318225         3    ;  uncertainty k = 0.239736
        31        32        33        37     9      180.000000        1.274600         4    ;  uncertainty k = 0.138275
        31        36        35        34     9        0.000000       -0.041156         1    ;  uncertainty k = 0.464722
        31        36        35        34     9      180.000000       16.646176         2    ;  uncertainty k = 0.236707
        31        36        35        34     9        0.000000       -0.451885         3    ;  uncertainty k = 0.331121
        31        36        35        34     9      180.000000        0.706936         4    ;  uncertainty k = 0.236868
        31        36        35        39     9        0.000000        0.212063         1    ;  uncertainty k = 0.206454
        31        36        35        39     9      180.000000       10.208086         2    ;  uncertainty k = 0.270697
        31        36        35        39     9        0.000000        1.619069         3    ;  uncertainty k = 0.303973
        31        36        35        39     9      180.000000        1.801727         4    ;  uncertainty k = 0.231078
        32        31        17        42     9        0.000000       -0.047226         1    ;  uncertainty k = 0.304892
        32        31        17        42     9      180.000000        6.147641         2    ;  uncertainty k = 0.655637
        32        31        17        42     9        0.000000        1.285026         3    ;  uncertainty k = 0.284886
        32        31        17        42     9      180.000000        1.285042         4    ;  uncertainty k = 0.099160
        32        31        36        35     9        0.000000        0.030027         1    ;  uncertainty k = 0.266894
        32        31        36        35     9      180.000000       10.240496         2    ;  uncertainty k = 0.364716
        32        31        36        35     9        0.000000       -0.375420         3    ;  uncertainty k = 0.254391
        32        31        36        35     9      180.000000        1.067516         4    ;  uncertainty k = 0.160127
        32        31        36        40     9        0.000000       -0.118336         1    ;  uncertainty k = 0.388301
        32        31        36        40     9      180.000000        6.096992         2    ;  uncertainty k = 0.671236
        32        31        36        40     9        0.000000        1.281084         3    ;  uncertainty k = 0.264897
        32        31        36        40     9      180.000000        1.285825         4    ;  uncertainty k = 0.112008
        32        33        34        35     9        0.000000       -0.046811         1    ;  uncertainty k = 0.562746
        32        33        34        35     9      180.000000       16.009862         2    ;  uncertainty k = 0.260043
        32        33        34        35     9        0.000000       -0.590240         3    ;  uncertainty k = 0.329068
        32        33        34        35     9      180.000000        0.800415         4    ;  uncertainty k = 0.311631
        32        33        34        38     9        0.000000        0.182303         1    ;  uncertainty k = 0.221575
        32        33        34        38     9      180.000000        9.897201         2    ;  uncertainty k = 0.196454
        32        33        34        38     9        0.000000        1.581225         3    ;  uncertainty k = 0.374994
        32        33        34        38     9      180.000000        1.839612         4    ;  uncertainty k = 0.190327
        33        32        31        36     9        0.000000       -0.137549         1    ;  uncertainty k = 0.185615
        33        32        31        36     9      180.000000        6.976041         2    ;  uncertainty k = 0.423269
        33        32        31        36     9        0.000000        0.501177         3    ;  uncertainty k = 0.289879
        33        32        31        36     9      180.000000        1.464276         4    ;  uncertainty k = 0.222078
        33        34        35        36     9        0.000000       -0.135675         1    ;  uncertainty k = 0.161364
        33        34        35        36     9      180.000000       11.686206         2    ;  uncertainty k = 0.423927
        33        34        35        36     9        0.000000       -0.816607         3    ;  uncertainty k = 0.653290
        33        34        35        36     9      180.000000        0.673547         4    ;  uncertainty k = 0.221863
        33        34        35        39     9        0.000000        0.060593         1    ;  uncertainty k = 0.308481
        33        34        35        39     9      180.000000        6.622008         2    ;  uncertainty k = 0.491297
        33        34        35        39     9        0.000000        1.374178         3    ;  uncertainty k = 0.252327
        33        34        35        39     9      180.000000        1.537427         4    ;  uncertainty k = 0.113576
        34        35        36        40     9        0.000000        0.116326         1    ;  uncertainty k = 0.107801
        34        35        36        40     9      180.000000        9.705393         2    ;  uncertainty k = 0.412681
        34        35        36        40     9        0.000000        1.421035         3    ;  uncertainty k = 0.333095
        34        35        36        40     9      180.000000        1.914352         4    ;  uncertainty k = 0.277012
        35        34        33        37     9        0.000000        0.157504         1    ;  uncertainty k = 0.067139
        35        34        33        37     9      180.000000        9.460099         2    ;  uncertainty k = 0.284065
        35        34        33        37     9        0.000000        1.418796         3    ;  uncertainty k = 0.326926
        35        34        33        37     9      180.000000        1.936608         4    ;  uncertainty k = 0.277272
        36        31        17        42     9        0.000000       -0.147492         1    ;  uncertainty k = 0.133406
        36        31        17        42     9      180.000000        6.640371         2    ;  uncertainty k = 0.536224
        36        31        17        42     9        0.000000        1.200128         3    ;  uncertainty k = 0.261787
        36        31        17        42     9      180.000000        1.130046         4    ;  uncertainty k = 0.124856
        36        35        34        38     9        0.000000        0.013599         1    ;  uncertainty k = 0.388906
        36        35        34        38     9      180.000000        6.642468         2    ;  uncertainty k = 0.612274
        36        35        34        38     9        0.000000        1.342414         3    ;  uncertainty k = 0.269419
        36        35        34        38     9      180.000000        1.503843         4    ;  uncertainty k = 0.131189
        37        33        34        38     9        0.000000       -0.053072         1    ;  uncertainty k = 0.319564
        37        33        34        38     9      180.000000        8.718889         2    ;  uncertainty k = 0.426647
        37        33        34        38     9        0.000000       -0.292985         3    ;  uncertainty k = 0.284574
        37        33        34        38     9      180.000000        0.193140         4    ;  uncertainty k = 0.203840
        38        34        35        39     9        0.000000       -0.085302         1    ;  uncertainty k = 0.203880
        38        34        35        39     9      180.000000        6.764740         2    ;  uncertainty k = 0.514631
        38        34        35        39     9        0.000000       -0.229634         3    ;  uncertainty k = 0.303232
        38        34        35        39     9      180.000000        0.117028         4    ;  uncertainty k = 0.134173
        39        35        36        40     9        0.000000        0.042031         1    ;  uncertainty k = 0.219139
        39        35        36        40     9      180.000000        8.809241         2    ;  uncertainty k = 0.369501
        39        35        36        40     9        0.000000       -0.271928         3    ;  uncertainty k = 0.243967
        39        35        36        40     9      180.000000        0.194961         4    ;  uncertainty k = 0.209800
        41        18        17        42     9        0.000000        0.109781         1    ;  uncertainty k = 0.202624
        41        18        17        42     9      180.000000        8.516003         2    ;  uncertainty k = 0.380811
        41        18        17        42     9        0.000000       -0.263391         3    ;  uncertainty k = 0.284889
        41        18        17        42     9      180.000000        0.180740         4    ;  uncertainty k = 0.204186

[ dihedrals ] ; impropers
;       ai        aj        ak        al funct           phase               k        pn
         2         1         3         4     4      180.000000       65.083675         2    ;  uncertainty k = 0.050248
         2         3         4         1     4      180.000000       65.083675         2    ;  uncertainty k = 0.050248
         2         4         1         3     4      180.000000       65.083675         2    ;  uncertainty k = 0.050248
         4         2        11        47     4      180.000000        5.500880         2    ;  uncertainty k = 0.617253
         4        11        47         2     4      180.000000        5.500880         2    ;  uncertainty k = 0.617253
         4        47         2        11     4      180.000000        5.500880         2    ;  uncertainty k = 0.617253
         5         6        10        47     4      180.000000        0.129454         2    ;  uncertainty k = 0.289467
         5        10        47         6     4      180.000000        0.129454         2    ;  uncertainty k = 0.289467
         5        47         6        10     4      180.000000        0.129454         2    ;  uncertainty k = 0.289467
         6         5         7        20     4      180.000000        2.215936         2    ;  uncertainty k = 0.463553
         6         7        20         5     4      180.000000        2.215936         2    ;  uncertainty k = 0.463553
         6        20         5         7     4      180.000000        2.215936         2    ;  uncertainty k = 0.463553
         7         6         8        21     4      180.000000        3.647224         2    ;  uncertainty k = 0.166353
         7         8        21         6     4      180.000000        3.647224         2    ;  uncertainty k = 0.166353
         7        21         6         8     4      180.000000        3.647224         2    ;  uncertainty k = 0.166353
         8         7         9        22     4      180.000000        2.930445         2    ;  uncertainty k = 0.193636
         8         9        22         7     4      180.000000        2.930445         2    ;  uncertainty k = 0.193636
         8        22         7         9     4      180.000000        2.930445         2    ;  uncertainty k = 0.193636
         9         8        10        23     4      180.000000        3.886949         2    ;  uncertainty k = 0.140506
         9        10        23         8     4      180.000000        3.886949         2    ;  uncertainty k = 0.140506
         9        23         8        10     4      180.000000        3.886949         2    ;  uncertainty k = 0.140506
        11         4        10        12     4      180.000000        1.828614         2    ;  uncertainty k = 0.946267
        11        10        12         4     4      180.000000        1.828614         2    ;  uncertainty k = 0.946267
        11        12         4        10     4      180.000000        1.828614         2    ;  uncertainty k = 0.946267
        16        15        19        32     4      180.000000       18.386572         2    ;  uncertainty k = 0.037406
        16        19        32        15     4      180.000000       18.386572         2    ;  uncertainty k = 0.037406
        16        32        15        19     4      180.000000       18.386572         2    ;  uncertainty k = 0.037406
        17        18        31        42     4      180.000000        3.202598         2    ;  uncertainty k = 0.111123
        17        31        42        18     4      180.000000        3.202598         2    ;  uncertainty k = 0.111123
        17        42        18        31     4      180.000000        3.202598         2    ;  uncertainty k = 0.111123
        18        17        19        41     4      180.000000        4.517470         2    ;  uncertainty k = 0.112932
        18        19        41        17     4      180.000000        4.517470         2    ;  uncertainty k = 0.112932
        18        41        17        19     4      180.000000        4.517470         2    ;  uncertainty k = 0.112932
        19        16        18        30     4      180.000000        2.124675         2    ;  uncertainty k = 0.359781
        19        18        30        16     4      180.000000        2.124675         2    ;  uncertainty k = 0.359781
        19        30        16        18     4      180.000000        2.124675         2    ;  uncertainty k = 0.359781
        31        17        32        36     4      180.000000        8.794758         2    ;  uncertainty k = 0.135372
        31        32        36        17     4      180.000000        8.794758         2    ;  uncertainty k = 0.135372
        31        36        17        32     4      180.000000        8.794758         2    ;  uncertainty k = 0.135372
        32        16        31        33     4      180.000000        6.447873         2    ;  uncertainty k = 0.208436
        32        31        33        16     4      180.000000        6.447873         2    ;  uncertainty k = 0.208436
        32        33        16        31     4      180.000000        6.447873         2    ;  uncertainty k = 0.208436
        33        32        34        37     4      180.000000        4.159024         2    ;  uncertainty k = 0.064669
        33        34        37        32     4      180.000000        4.159024         2    ;  uncertainty k = 0.064669
        33        37        32        34     4      180.000000        4.159024         2    ;  uncertainty k = 0.064669
        34        33        35        38     4      180.000000        4.123012         2    ;  uncertainty k = 0.085110
        34        35        38        33     4      180.000000        4.123012         2    ;  uncertainty k = 0.085110
        34        38        33        35     4      180.000000        4.123012         2    ;  uncertainty k = 0.085110
        35        34        36        39     4      180.000000        4.525513         2    ;  uncertainty k = 0.072531
        35        36        39        34     4      180.000000        4.525513         2    ;  uncertainty k = 0.072531
        35        39        34        36     4      180.000000        4.525513         2    ;  uncertainty k = 0.072531
        36        31        35        40     4      180.000000        4.079318         2    ;  uncertainty k = 0.082584
        36        35        40        31     4      180.000000        4.079318         2    ;  uncertainty k = 0.082584
        36        40        31        35     4      180.000000        4.079318         2    ;  uncertainty k = 0.082584

[ pairs ]
;       ai        aj funct
         1        11     1
         1        47     1
         2         5     1
         2        10     1
         2        12     1
         2        43     1
         3        11     1
         3        47     1
         4         6     1
         4         9     1
         4        13     1
         4        24     1
         4        25     1
         4        44     1
         4        45     1
         4        46     1
         5         8     1
         5        12     1
         5        21     1
         5        23     1
         5        44     1
         5        45     1
         5        46     1
         6         9     1
         6        11     1
         6        22     1
         6        43     1
         7        10     1
         7        23     1
         7        47     1
         8        11     1
         8        20     1
         9        12     1
         9        21     1
         9        47     1
        10        13     1
        10        20     1
        10        22     1
        10        24     1
        10        25     1
        10        43     1
        11        14     1
        11        23     1
        11        26     1
        11        27     1
        11        43     1
        12        15     1
        12        28     1
        12        29     1
        12        47     1
        13        16     1
        14        19     1
        14        24     1
        14        25     1
        14        32     1
        15        18     1
        15        26     1
        15        27     1
        15        30     1
        15        31     1
        15        33     1
        16        17     1
        16        28     1
        16        29     1
        16        34     1
        16        36     1
        16        37     1
        16        41     1
        17        30     1
        17        33     1
        17        35     1
        17        40     1
        18        32     1
        18        36     1
        19        31     1
        19        33     1
        19        42     1
        20        21     1
        20        47     1
        21        22     1
        22        23     1
        24        26     1
        24        27     1
        25        26     1
        25        27     1
        26        28     1
        26        29     1
        27        28     1
        27        29     1
        30        32     1
        30        41     1
        31        34     1
        31        37     1
        31        39     1
        31        41     1
        32        35     1
        32        38     1
        32        40     1
        32        42     1
        33        36     1
        33        39     1
        34        40     1
        35        37     1
        36        38     1
        36        42     1
        37        38     1
        38        39     1
        39        40     1
        41        42     1
