; ITP file created by ByteFF-joint-25, 2026-02-17 09:14:13.302109

[ atomtypes ]
;name           bonded.type        at.num        mass        charge   ptype           sigma         epsilon
 o0bf                                   8      0.0000       0.00000       A     3.04821e-01     6.11590e-01    ;  uncertainty sigma = 0.000055, epsilon = 0.001784
 c1bf                                   6      0.0000       0.00000       A     3.31484e-01     4.14075e-01    ;  uncertainty sigma = 0.000035, epsilon = 0.002537
 o2bf                                   8      0.0000       0.00000       A     3.04821e-01     6.11590e-01    ;  uncertainty sigma = 0.000055, epsilon = 0.001784
 c3bf                                   6      0.0000       0.00000       A     3.31463e-01     4.14316e-01    ;  uncertainty sigma = 0.000031, epsilon = 0.002860
 s4bf                                  16      0.0000       0.00000       A     3.53158e-01     1.18121e+00    ;  uncertainty sigma = 0.000038, epsilon = 0.005342
 c5bf                                   6      0.0000       0.00000       A     3.31525e-01     4.13299e-01    ;  uncertainty sigma = 0.000012, epsilon = 0.000895
 c6bf                                   6      0.0000       0.00000       A     3.31534e-01     4.13151e-01    ;  uncertainty sigma = 0.000011, epsilon = 0.000716
 c7bf                                   6      0.0000       0.00000       A     3.31520e-01     4.13479e-01    ;  uncertainty sigma = 0.000004, epsilon = 0.000643
 c8bf                                   6      0.0000       0.00000       A     3.31519e-01     4.13331e-01    ;  uncertainty sigma = 0.000003, epsilon = 0.000560
 c9bf                                   6      0.0000       0.00000       A     3.31525e-01     4.13115e-01    ;  uncertainty sigma = 0.000007, epsilon = 0.000552
 c10bf                                  6      0.0000       0.00000       A     3.31514e-01     4.13060e-01    ;  uncertainty sigma = 0.000011, epsilon = 0.000654
 c11bf                                  6      0.0000       0.00000       A     3.31592e-01     4.13001e-01    ;  uncertainty sigma = 0.000010, epsilon = 0.001460
 c12bf                                  6      0.0000       0.00000       A     3.39765e-01     4.50670e-01    ;  uncertainty sigma = 0.000026, epsilon = 0.001010
 c13bf                                  6      0.0000       0.00000       A     3.39754e-01     4.50607e-01    ;  uncertainty sigma = 0.000007, epsilon = 0.000967
 c14bf                                  6      0.0000       0.00000       A     3.39779e-01     4.50532e-01    ;  uncertainty sigma = 0.000006, epsilon = 0.000794
 o15bf                                  8      0.0000       0.00000       A     3.15614e-01     3.03436e-01    ;  uncertainty sigma = 0.000012, epsilon = 0.000589
 c16bf                                  6      0.0000       0.00000       A     3.31528e-01     4.13444e-01    ;  uncertainty sigma = 0.000005, epsilon = 0.000609
 c17bf                                  6      0.0000       0.00000       A     3.31520e-01     4.13183e-01    ;  uncertainty sigma = 0.000005, epsilon = 0.000813
 c18bf                                  6      0.0000       0.00000       A     3.31517e-01     4.13213e-01    ;  uncertainty sigma = 0.000007, epsilon = 0.000573
 c19bf                                  6      0.0000       0.00000       A     3.39772e-01     4.51018e-01    ;  uncertainty sigma = 0.000005, epsilon = 0.000462
 c20bf                                  6      0.0000       0.00000       A     3.31522e-01     4.13276e-01    ;  uncertainty sigma = 0.000010, epsilon = 0.000456
 cl21bf                                17      0.0000       0.00000       A     3.46645e-01     1.10392e+00    ;  uncertainty sigma = 0.000011, epsilon = 0.001474
 c22bf                                  6      0.0000       0.00000       A     3.31517e-01     4.13213e-01    ;  uncertainty sigma = 0.000007, epsilon = 0.000574
 c23bf                                  6      0.0000       0.00000       A     3.39772e-01     4.51018e-01    ;  uncertainty sigma = 0.000005, epsilon = 0.000462
 c24bf                                  6      0.0000       0.00000       A     3.31520e-01     4.13183e-01    ;  uncertainty sigma = 0.000005, epsilon = 0.000813
 cl25bf                                17      0.0000       0.00000       A     3.46607e-01     1.10394e+00    ;  uncertainty sigma = 0.000023, epsilon = 0.003119
 h26bf                                  1      0.0000       0.00000       A     2.62561e-01     6.69707e-02    ;  uncertainty sigma = 0.000009, epsilon = 0.000724
 h27bf                                  1      0.0000       0.00000       A     2.62573e-01     6.69302e-02    ;  uncertainty sigma = 0.000010, epsilon = 0.000530
 h28bf                                  1      0.0000       0.00000       A     2.62569e-01     6.69692e-02    ;  uncertainty sigma = 0.000007, epsilon = 0.000343
 h29bf                                  1      0.0000       0.00000       A     2.60036e-01     8.65938e-02    ;  uncertainty sigma = 0.000009, epsilon = 0.000837
 h30bf                                  1      0.0000       0.00000       A     2.60036e-01     8.65938e-02    ;  uncertainty sigma = 0.000009, epsilon = 0.000837
 h31bf                                  1      0.0000       0.00000       A     2.60032e-01     8.63750e-02    ;  uncertainty sigma = 0.000011, epsilon = 0.000877
 h32bf                                  1      0.0000       0.00000       A     2.60032e-01     8.63750e-02    ;  uncertainty sigma = 0.000011, epsilon = 0.000877
 h33bf                                  1      0.0000       0.00000       A     2.42190e-01     8.69771e-02    ;  uncertainty sigma = 0.000031, epsilon = 0.000462
 h34bf                                  1      0.0000       0.00000       A     2.42190e-01     8.69771e-02    ;  uncertainty sigma = 0.000031, epsilon = 0.000462
 h35bf                                  1      0.0000       0.00000       A     2.62561e-01     6.71448e-02    ;  uncertainty sigma = 0.000003, epsilon = 0.000531
 h36bf                                  1      0.0000       0.00000       A     2.60030e-01     8.67436e-02    ;  uncertainty sigma = 0.000006, epsilon = 0.000502
 h37bf                                  1      0.0000       0.00000       A     2.60030e-01     8.67436e-02    ;  uncertainty sigma = 0.000006, epsilon = 0.000502
 h38bf                                  1      0.0000       0.00000       A     2.60030e-01     8.67436e-02    ;  uncertainty sigma = 0.000006, epsilon = 0.000502
 h39bf                                  1      0.0000       0.00000       A     2.60030e-01     8.67435e-02    ;  uncertainty sigma = 0.000006, epsilon = 0.000502
 h40bf                                  1      0.0000       0.00000       A     2.60030e-01     8.67437e-02    ;  uncertainty sigma = 0.000006, epsilon = 0.000502
 h41bf                                  1      0.0000       0.00000       A     2.60030e-01     8.67436e-02    ;  uncertainty sigma = 0.000006, epsilon = 0.000502
 h42bf                                  1      0.0000       0.00000       A     2.62561e-01     6.71447e-02    ;  uncertainty sigma = 0.000003, epsilon = 0.000531

[ moleculetype ]
;name             nrexcl
 MOL                   3

[ atoms ]
;       nr            type      resi   res      atom      cgnr      charge          mass ; qtot
         1            o0bf         1   UNL        o0         1    -0.82215       15.9990 ; qtot   -0.822
         2            c1bf         1   UNL        c1         2     0.92042       12.0110 ; qtot    0.098
         3            o2bf         1   UNL        o2         3    -0.82215       15.9990 ; qtot   -0.724
         4            c3bf         1   UNL        c3         4    -0.07700       12.0110 ; qtot   -0.801
         5            s4bf         1   UNL        s4         5    -0.06321       32.0670 ; qtot   -0.864
         6            c5bf         1   UNL        c5         6    -0.07311       12.0110 ; qtot   -0.937
         7            c6bf         1   UNL        c6         7     0.04330       12.0110 ; qtot   -0.894
         8            c7bf         1   UNL        c7         8    -0.11209       12.0110 ; qtot   -1.006
         9            c8bf         1   UNL        c8         9    -0.12758       12.0110 ; qtot   -1.134
        10            c9bf         1   UNL        c9        10    -0.09772       12.0110 ; qtot   -1.231
        11           c10bf         1   UNL       c10        11    -0.05298       12.0110 ; qtot   -1.284
        12           c11bf         1   UNL       c11        12    -0.12740       12.0110 ; qtot   -1.412
        13           c12bf         1   UNL       c12        13    -0.02138       12.0110 ; qtot   -1.433
        14           c13bf         1   UNL       c13        14    -0.09628       12.0110 ; qtot   -1.529
        15           c14bf         1   UNL       c14        15     0.13811       12.0110 ; qtot   -1.391
        16           o15bf         1   UNL       o15        16    -0.33483       15.9990 ; qtot   -1.726
        17           c16bf         1   UNL       c16        17     0.14818       12.0110 ; qtot   -1.578
        18           c17bf         1   UNL       c17        18    -0.18812       12.0110 ; qtot   -1.766
        19           c18bf         1   UNL       c18        19    -0.02830       12.0110 ; qtot   -1.794
        20           c19bf         1   UNL       c19        20    -0.04813       12.0110 ; qtot   -1.842
        21           c20bf         1   UNL       c20        21     0.00735       12.0110 ; qtot   -1.835
        22          cl21bf         1   UNL      cl21        22    -0.13305       35.4530 ; qtot   -1.968
        23           c22bf         1   UNL       c22        23    -0.02830       12.0110 ; qtot   -1.996
        24           c23bf         1   UNL       c23        24    -0.04813       12.0110 ; qtot   -2.045
        25           c24bf         1   UNL       c24        25    -0.18812       12.0110 ; qtot   -2.233
        26          cl25bf         1   UNL      cl25        26    -0.10547       35.4530 ; qtot   -2.338
        27           h26bf         1   UNL       h26        27     0.15058        1.0080 ; qtot   -2.188
        28           h27bf         1   UNL       h27        28     0.13891        1.0080 ; qtot   -2.049
        29           h28bf         1   UNL       h28        29     0.14180        1.0080 ; qtot   -1.907
        30           h29bf         1   UNL       h29        30     0.05244        1.0080 ; qtot   -1.854
        31           h30bf         1   UNL       h30        31     0.05244        1.0080 ; qtot   -1.802
        32           h31bf         1   UNL       h31        32     0.05637        1.0080 ; qtot   -1.746
        33           h32bf         1   UNL       h32        33     0.05637        1.0080 ; qtot   -1.689
        34           h33bf         1   UNL       h33        34     0.04465        1.0080 ; qtot   -1.645
        35           h34bf         1   UNL       h34        35     0.04465        1.0080 ; qtot   -1.600
        36           h35bf         1   UNL       h35        36     0.14550        1.0080 ; qtot   -1.454
        37           h36bf         1   UNL       h36        37     0.05149        1.0080 ; qtot   -1.403
        38           h37bf         1   UNL       h37        38     0.05149        1.0080 ; qtot   -1.351
        39           h38bf         1   UNL       h38        39     0.05149        1.0080 ; qtot   -1.300
        40           h39bf         1   UNL       h39        40     0.05149        1.0080 ; qtot   -1.248
        41           h40bf         1   UNL       h40        41     0.05149        1.0080 ; qtot   -1.197
        42           h41bf         1   UNL       h41        42     0.05149        1.0080 ; qtot   -1.145
        43           h42bf         1   UNL       h42        43     0.14549        1.0080 ; qtot   -1.000

[ bonds ]
;       ai        aj funct               r               k
         1         2     1        0.126206   550538.656934    ;  uncertainty r = 0.000120, k = 6.029842
         2         3     1        0.126206   550538.656934    ;  uncertainty r = 0.000120, k = 6.029842
         2         4     1        0.154065   167223.236011    ;  uncertainty r = 0.000190, k = 61.257521
         4         5     1        0.176360   154411.842822    ;  uncertainty r = 0.000229, k = 25.741841
         4        12     1        0.137258   381948.891895    ;  uncertainty r = 0.000131, k = 11.956098
         5         6     1        0.174584   176266.896851    ;  uncertainty r = 0.000046, k = 17.537197
         6         7     1        0.139690   362252.400342    ;  uncertainty r = 0.000110, k = 6.031937
         6        11     1        0.142384   343101.738965    ;  uncertainty r = 0.000191, k = 16.735415
         7         8     1        0.138886   364189.339014    ;  uncertainty r = 0.000096, k = 3.484621
         7        26     1        0.175563   198276.718530    ;  uncertainty r = 0.000127, k = 4.689435
         8         9     1        0.140756   356857.328467    ;  uncertainty r = 0.000079, k = 3.759320
         8        27     1        0.108678   335646.639551    ;  uncertainty r = 0.000008, k = 1.190893
         9        10     1        0.138902   371149.937842    ;  uncertainty r = 0.000042, k = 2.160424
         9        28     1        0.108738   334065.637109    ;  uncertainty r = 0.000015, k = 1.114689
        10        11     1        0.140701   352820.754199    ;  uncertainty r = 0.000080, k = 4.458453
        10        29     1        0.108755   335549.394238    ;  uncertainty r = 0.000020, k = 1.686046
        11        12     1        0.144601   236445.797363    ;  uncertainty r = 0.000140, k = 28.270556
        12        13     1        0.150408   229144.942090    ;  uncertainty r = 0.000106, k = 11.541938
        13        14     1        0.153700   203668.483350    ;  uncertainty r = 0.000115, k = 8.805974
        13        30     1        0.109592   311413.403906    ;  uncertainty r = 0.000035, k = 1.661212
        13        31     1        0.109592   311413.403906    ;  uncertainty r = 0.000035, k = 1.661212
        14        15     1        0.152198   209937.371265    ;  uncertainty r = 0.000036, k = 2.454539
        14        32     1        0.109647   307893.624121    ;  uncertainty r = 0.000033, k = 1.511728
        14        33     1        0.109647   307893.624121    ;  uncertainty r = 0.000033, k = 1.511728
        15        16     1        0.142379   234164.158789    ;  uncertainty r = 0.000042, k = 5.084621
        15        34     1        0.109775   308073.507520    ;  uncertainty r = 0.000024, k = 1.219206
        15        35     1        0.109775   308073.507520    ;  uncertainty r = 0.000024, k = 1.219206
        16        17     1        0.136677   322087.507031    ;  uncertainty r = 0.000044, k = 4.431137
        17        18     1        0.139703   363780.566504    ;  uncertainty r = 0.000052, k = 5.101449
        17        25     1        0.139703   363780.566504    ;  uncertainty r = 0.000052, k = 5.101441
        18        19     1        0.139807   359336.598730    ;  uncertainty r = 0.000044, k = 2.600117
        18        36     1        0.108762   338230.560889    ;  uncertainty r = 0.000020, k = 1.062522
        19        20     1        0.150844   237009.784424    ;  uncertainty r = 0.000033, k = 5.470365
        19        21     1        0.140382   343901.254785    ;  uncertainty r = 0.000043, k = 8.030227
        20        37     1        0.109438   308937.887598    ;  uncertainty r = 0.000004, k = 1.979630
        20        38     1        0.109438   308937.887598    ;  uncertainty r = 0.000004, k = 1.979630
        20        39     1        0.109438   308937.887598    ;  uncertainty r = 0.000004, k = 1.979630
        21        22     1        0.176833   180974.318213    ;  uncertainty r = 0.000059, k = 6.338416
        21        23     1        0.140382   343901.254785    ;  uncertainty r = 0.000043, k = 8.030220
        23        24     1        0.150844   237009.784424    ;  uncertainty r = 0.000033, k = 5.470347
        23        25     1        0.139807   359336.598730    ;  uncertainty r = 0.000044, k = 2.600109
        24        40     1        0.109438   308937.887598    ;  uncertainty r = 0.000004, k = 1.979630
        24        41     1        0.109438   308937.887598    ;  uncertainty r = 0.000004, k = 1.979621
        24        42     1        0.109438   308937.887598    ;  uncertainty r = 0.000004, k = 1.979621
        25        43     1        0.108762   338230.560889    ;  uncertainty r = 0.000020, k = 1.062513

[ angles ]
;       ai        aj        ak funct           theta             cth
         1         2         3     1      131.376190      795.605387    ;  uncertainty theta = 0.007064, k = 0.173884
         1         2         4     1      115.048927      363.380234    ;  uncertainty theta = 0.014201, k = 0.277151
         2         4         5     1      115.942551      349.159863    ;  uncertainty theta = 0.022191, k = 0.300890
         2         4        12     1      124.755905      298.421489    ;  uncertainty theta = 0.013353, k = 0.226681
         3         2         4     1      115.048927      363.380234    ;  uncertainty theta = 0.014201, k = 0.277151
         4         5         6     1       90.639748     1133.688177    ;  uncertainty theta = 0.006477, k = 0.151027
         4        12        11     1      114.329857      619.979663    ;  uncertainty theta = 0.006624, k = 0.099229
         4        12        13     1      122.525330      362.176574    ;  uncertainty theta = 0.006786, k = 0.143162
         5         4        12     1      114.628075      505.801172    ;  uncertainty theta = 0.005761, k = 0.382667
         5         6         7     1      126.540527      347.287673    ;  uncertainty theta = 0.004332, k = 0.288614
         5         6        11     1      111.175804      461.964425    ;  uncertainty theta = 0.002708, k = 0.300509
         6         7         8     1      120.643593      403.457471    ;  uncertainty theta = 0.003327, k = 0.153471
         6         7        26     1      119.950539      425.639356    ;  uncertainty theta = 0.002226, k = 0.333369
         6        11        10     1      118.207260      420.841667    ;  uncertainty theta = 0.001339, k = 0.222271
         6        11        12     1      113.357559      586.545521    ;  uncertainty theta = 0.007667, k = 0.209622
         7         6        11     1      118.114830      374.822104    ;  uncertainty theta = 0.004594, k = 0.172999
         7         8         9     1      120.195175      503.851765    ;  uncertainty theta = 0.002285, k = 0.086111
         7         8        27     1      120.085350      280.420253    ;  uncertainty theta = 0.001952, k = 0.058294
         8         7        26     1      121.498085      462.034812    ;  uncertainty theta = 0.001414, k = 0.083334
         8         9        10     1      121.591652      524.676607    ;  uncertainty theta = 0.002526, k = 0.027577
         8         9        28     1      119.263672      284.690249    ;  uncertainty theta = 0.000890, k = 0.032363
         9         8        27     1      120.837120      282.183016    ;  uncertainty theta = 0.001472, k = 0.034986
         9        10        11     1      119.037247      541.003024    ;  uncertainty theta = 0.005157, k = 0.138116
         9        10        29     1      120.739891      287.657055    ;  uncertainty theta = 0.002008, k = 0.024077
        10         9        28     1      120.043480      287.837187    ;  uncertainty theta = 0.002170, k = 0.023274
        10        11        12     1      127.251480      380.587872    ;  uncertainty theta = 0.006415, k = 0.154730
        11        10        29     1      120.723061      274.785937    ;  uncertainty theta = 0.002164, k = 0.089614
        11        12        13     1      121.787743      374.281260    ;  uncertainty theta = 0.007675, k = 0.197323
        12        13        14     1      111.369003      540.129144    ;  uncertainty theta = 0.005048, k = 0.073201
        12        13        30     1      106.672928      402.508448    ;  uncertainty theta = 0.002452, k = 0.081998
        12        13        31     1      106.672928      402.508448    ;  uncertainty theta = 0.002452, k = 0.081998
        13        14        15     1      109.674400      549.494559    ;  uncertainty theta = 0.002534, k = 0.055455
        13        14        32     1      107.601700      393.454330    ;  uncertainty theta = 0.002975, k = 0.054493
        13        14        33     1      107.601700      393.454330    ;  uncertainty theta = 0.002975, k = 0.054493
        14        13        30     1      107.022362      404.331734    ;  uncertainty theta = 0.001707, k = 0.104119
        14        13        31     1      107.022362      404.331734    ;  uncertainty theta = 0.001707, k = 0.104119
        14        15        16     1      109.182190      593.602191    ;  uncertainty theta = 0.001558, k = 0.042193
        14        15        34     1      109.774460      407.385398    ;  uncertainty theta = 0.001609, k = 0.045496
        14        15        35     1      109.774460      407.385398    ;  uncertainty theta = 0.001609, k = 0.045496
        15        14        32     1      106.806564      398.559262    ;  uncertainty theta = 0.001413, k = 0.026207
        15        14        33     1      106.806564      398.559262    ;  uncertainty theta = 0.001413, k = 0.026207
        15        16        17     1      110.117920      508.089584    ;  uncertainty theta = 0.000956, k = 0.049455
        16        15        34     1      106.844467      432.990723    ;  uncertainty theta = 0.001757, k = 0.026141
        16        15        35     1      106.844467      432.990723    ;  uncertainty theta = 0.001757, k = 0.026141
        16        17        18     1      119.975563      428.167689    ;  uncertainty theta = 0.002995, k = 0.047025
        16        17        25     1      119.975563      428.167657    ;  uncertainty theta = 0.002995, k = 0.047025
        17        18        19     1      120.525681      514.239686    ;  uncertainty theta = 0.001515, k = 0.050023
        17        18        36     1      119.592369      271.625400    ;  uncertainty theta = 0.003151, k = 0.050743
        17        25        23     1      120.525681      514.239750    ;  uncertainty theta = 0.001515, k = 0.050023
        17        25        43     1      119.592369      271.625432    ;  uncertainty theta = 0.003151, k = 0.050742
        18        17        25     1      120.791954      387.101878    ;  uncertainty theta = 0.003540, k = 0.148311
        18        19        20     1      120.378464      408.996279    ;  uncertainty theta = 0.000973, k = 0.088211
        18        19        21     1      119.937401      438.599790    ;  uncertainty theta = 0.002454, k = 0.211175
        19        18        36     1      118.691208      272.148560    ;  uncertainty theta = 0.003546, k = 0.097065
        19        20        37     1      109.658592      396.131481    ;  uncertainty theta = 0.000999, k = 0.037830
        19        20        38     1      109.658592      396.131481    ;  uncertainty theta = 0.000999, k = 0.037830
        19        20        39     1      109.658592      396.131481    ;  uncertainty theta = 0.000999, k = 0.037830
        19        21        22     1      117.555099      434.425973    ;  uncertainty theta = 0.003791, k = 0.049329
        19        21        23     1      125.322411      385.529207    ;  uncertainty theta = 0.003111, k = 0.204168
        20        19        21     1      120.053810      397.825453    ;  uncertainty theta = 0.002326, k = 0.241901
        21        23        24     1      120.053810      397.825485    ;  uncertainty theta = 0.002326, k = 0.241901
        21        23        25     1      119.937401      438.599790    ;  uncertainty theta = 0.002454, k = 0.211175
        22        21        23     1      117.555099      434.425909    ;  uncertainty theta = 0.003791, k = 0.049329
        23        24        40     1      109.658607      396.131481    ;  uncertainty theta = 0.000999, k = 0.037830
        23        24        41     1      109.658592      396.131545    ;  uncertainty theta = 0.000999, k = 0.037830
        23        24        42     1      109.658592      396.131545    ;  uncertainty theta = 0.000999, k = 0.037830
        23        25        43     1      118.691200      272.148592    ;  uncertainty theta = 0.003546, k = 0.097065
        24        23        25     1      120.378464      408.996279    ;  uncertainty theta = 0.000973, k = 0.088210
        30        13        31     1      104.818771      314.859343    ;  uncertainty theta = 0.004257, k = 0.083857
        32        14        33     1      105.145523      317.602571    ;  uncertainty theta = 0.002378, k = 0.028477
        34        15        35     1      107.450478      331.956853    ;  uncertainty theta = 0.001998, k = 0.040679
        37        20        38     1      106.799843      316.583673    ;  uncertainty theta = 0.001079, k = 0.018177
        37        20        39     1      106.799843      316.583673    ;  uncertainty theta = 0.001079, k = 0.018177
        38        20        39     1      106.799843      316.583673    ;  uncertainty theta = 0.001079, k = 0.018177
        40        24        41     1      106.799843      316.583641    ;  uncertainty theta = 0.001079, k = 0.018177
        40        24        42     1      106.799843      316.583641    ;  uncertainty theta = 0.001079, k = 0.018177
        41        24        42     1      106.799843      316.583673    ;  uncertainty theta = 0.001079, k = 0.018177

[ dihedrals ] ; propers for gromacs 4.5 or higher, use funct 9
;       ai        aj        ak        al funct           phase               k        pn
         1         2         4         5     9        0.000000       -0.048949         1    ;  uncertainty k = 1.102876
         1         2         4         5     9      180.000000        4.509061         2    ;  uncertainty k = 0.245882
         1         2         4         5     9        0.000000        0.064795         3    ;  uncertainty k = 0.342797
         1         2         4         5     9      180.000000        0.249087         4    ;  uncertainty k = 0.097864
         1         2         4        12     9        0.000000        0.937344         1    ;  uncertainty k = 1.464448
         1         2         4        12     9      180.000000        2.682677         2    ;  uncertainty k = 0.286055
         1         2         4        12     9        0.000000        0.255458         3    ;  uncertainty k = 0.431948
         1         2         4        12     9      180.000000        0.170069         4    ;  uncertainty k = 0.091696
         2         4         5         6     9        0.000000       -0.506326         1    ;  uncertainty k = 1.387807
         2         4         5         6     9      180.000000        8.062305         2    ;  uncertainty k = 0.856652
         2         4         5         6     9        0.000000        0.445989         3    ;  uncertainty k = 0.578809
         2         4         5         6     9      180.000000        0.421347         4    ;  uncertainty k = 0.369439
         2         4        12        11     9        0.000000        0.229069         1    ;  uncertainty k = 1.098099
         2         4        12        11     9      180.000000       12.582064         2    ;  uncertainty k = 0.287106
         2         4        12        11     9        0.000000        2.025512         3    ;  uncertainty k = 0.470258
         2         4        12        11     9      180.000000        0.913959         4    ;  uncertainty k = 0.277353
         2         4        12        13     9        0.000000        0.484227         1    ;  uncertainty k = 1.080985
         2         4        12        13     9      180.000000       11.516495         2    ;  uncertainty k = 0.633087
         2         4        12        13     9        0.000000        1.388466         3    ;  uncertainty k = 0.419808
         2         4        12        13     9      180.000000        0.676590         4    ;  uncertainty k = 0.250399
         3         2         4         5     9        0.000000       -0.048949         1    ;  uncertainty k = 1.102876
         3         2         4         5     9      180.000000        4.509061         2    ;  uncertainty k = 0.245882
         3         2         4         5     9        0.000000        0.064795         3    ;  uncertainty k = 0.342797
         3         2         4         5     9      180.000000        0.249087         4    ;  uncertainty k = 0.097864
         3         2         4        12     9        0.000000        0.937344         1    ;  uncertainty k = 1.464448
         3         2         4        12     9      180.000000        2.682677         2    ;  uncertainty k = 0.286055
         3         2         4        12     9        0.000000        0.255458         3    ;  uncertainty k = 0.431948
         3         2         4        12     9      180.000000        0.170069         4    ;  uncertainty k = 0.091696
         4         5         6         7     9        0.000000        0.070312         1    ;  uncertainty k = 0.963203
         4         5         6         7     9      180.000000        6.734987         2    ;  uncertainty k = 1.246061
         4         5         6         7     9        0.000000        0.993246         3    ;  uncertainty k = 0.729220
         4         5         6         7     9      180.000000        0.593965         4    ;  uncertainty k = 0.355683
         4         5         6        11     9        0.000000       -1.399910         1    ;  uncertainty k = 1.241802
         4         5         6        11     9      180.000000       15.264602         2    ;  uncertainty k = 0.942483
         4         5         6        11     9        0.000000       -5.638946         3    ;  uncertainty k = 0.693758
         4         5         6        11     9      180.000000        0.350899         4    ;  uncertainty k = 0.829682
         4        12        11         6     9        0.000000       -0.311272         1    ;  uncertainty k = 0.419217
         4        12        11         6     9      180.000000       11.013490         2    ;  uncertainty k = 0.575528
         4        12        11         6     9        0.000000       -4.720686         3    ;  uncertainty k = 1.456865
         4        12        11         6     9      180.000000        1.459854         4    ;  uncertainty k = 0.381103
         4        12        11        10     9        0.000000       -0.412215         1    ;  uncertainty k = 0.810266
         4        12        11        10     9      180.000000        6.302699         2    ;  uncertainty k = 0.424585
         4        12        11        10     9        0.000000        0.606112         3    ;  uncertainty k = 0.426940
         4        12        11        10     9      180.000000        0.706627         4    ;  uncertainty k = 0.111377
         4        12        13        14     9        0.000000       -0.081642         1    ;  uncertainty k = 0.971269
         4        12        13        14     9      180.000000        2.436116         2    ;  uncertainty k = 0.653099
         4        12        13        14     9        0.000000        0.097113         3    ;  uncertainty k = 0.412288
         4        12        13        14     9      180.000000        0.132493         4    ;  uncertainty k = 0.173509
         4        12        13        30     9        0.000000        1.952009         1    ;  uncertainty k = 0.593472
         4        12        13        30     9      180.000000        3.239144         2    ;  uncertainty k = 0.423785
         4        12        13        30     9        0.000000       -0.014319         3    ;  uncertainty k = 0.170334
         4        12        13        30     9      180.000000        0.249712         4    ;  uncertainty k = 0.069291
         4        12        13        31     9        0.000000        1.952009         1    ;  uncertainty k = 0.593472
         4        12        13        31     9      180.000000        3.239144         2    ;  uncertainty k = 0.423785
         4        12        13        31     9        0.000000       -0.014319         3    ;  uncertainty k = 0.170334
         4        12        13        31     9      180.000000        0.249712         4    ;  uncertainty k = 0.069291
         5         4        12        11     9        0.000000       -0.431297         1    ;  uncertainty k = 0.776022
         5         4        12        11     9      180.000000       17.595771         2    ;  uncertainty k = 0.521431
         5         4        12        11     9        0.000000       -0.928673         3    ;  uncertainty k = 1.148090
         5         4        12        11     9      180.000000        0.976651         4    ;  uncertainty k = 0.366216
         5         4        12        13     9        0.000000        0.172793         1    ;  uncertainty k = 0.286252
         5         4        12        13     9      180.000000       15.899329         2    ;  uncertainty k = 0.400479
         5         4        12        13     9        0.000000        1.904876         3    ;  uncertainty k = 0.240317
         5         4        12        13     9      180.000000        0.992637         4    ;  uncertainty k = 0.224722
         5         6         7         8     9        0.000000        0.322086         1    ;  uncertainty k = 0.788485
         5         6         7         8     9      180.000000        6.517090         2    ;  uncertainty k = 0.939500
         5         6         7         8     9        0.000000        1.013051         3    ;  uncertainty k = 0.309497
         5         6         7         8     9      180.000000        1.169618         4    ;  uncertainty k = 0.415565
         5         6         7        26     9        0.000000       -0.186337         1    ;  uncertainty k = 0.356476
         5         6         7        26     9      180.000000        5.919654         2    ;  uncertainty k = 0.427336
         5         6         7        26     9        0.000000        1.195798         3    ;  uncertainty k = 0.311146
         5         6         7        26     9      180.000000        1.082408         4    ;  uncertainty k = 0.216472
         5         6        11        10     9        0.000000        0.165382         1    ;  uncertainty k = 0.481963
         5         6        11        10     9      180.000000        7.878022         2    ;  uncertainty k = 0.322627
         5         6        11        10     9        0.000000        0.501710         3    ;  uncertainty k = 0.294451
         5         6        11        10     9      180.000000        1.246135         4    ;  uncertainty k = 0.190092
         5         6        11        12     9        0.000000        0.034826         1    ;  uncertainty k = 0.512551
         5         6        11        12     9      180.000000       10.469423         2    ;  uncertainty k = 0.667656
         5         6        11        12     9        0.000000       -1.390229         3    ;  uncertainty k = 0.650544
         5         6        11        12     9      180.000000        1.286713         4    ;  uncertainty k = 0.542013
         6         5         4        12     9        0.000000       -0.388564         1    ;  uncertainty k = 0.783285
         6         5         4        12     9      180.000000       12.533066         2    ;  uncertainty k = 0.445153
         6         5         4        12     9        0.000000       -5.198690         3    ;  uncertainty k = 1.835228
         6         5         4        12     9      180.000000        1.428957         4    ;  uncertainty k = 0.278578
         6         7         8         9     9        0.000000        0.010740         1    ;  uncertainty k = 0.327956
         6         7         8         9     9      180.000000       12.625872         2    ;  uncertainty k = 0.375789
         6         7         8         9     9        0.000000        0.080416         3    ;  uncertainty k = 0.671571
         6         7         8         9     9      180.000000        0.946932         4    ;  uncertainty k = 0.444259
         6         7         8        27     9        0.000000        0.035555         1    ;  uncertainty k = 0.439595
         6         7         8        27     9      180.000000        8.481290         2    ;  uncertainty k = 0.283872
         6         7         8        27     9        0.000000        1.326457         3    ;  uncertainty k = 0.351124
         6         7         8        27     9      180.000000        1.377588         4    ;  uncertainty k = 0.112856
         6        11        10         9     9        0.000000        0.177287         1    ;  uncertainty k = 0.347371
         6        11        10         9     9      180.000000       14.057631         2    ;  uncertainty k = 0.311204
         6        11        10         9     9        0.000000       -1.268067         3    ;  uncertainty k = 0.553907
         6        11        10         9     9      180.000000        0.602491         4    ;  uncertainty k = 0.350433
         6        11        10        29     9        0.000000        0.056504         1    ;  uncertainty k = 0.160668
         6        11        10        29     9      180.000000        7.194574         2    ;  uncertainty k = 0.422545
         6        11        10        29     9        0.000000        1.260497         3    ;  uncertainty k = 0.331355
         6        11        10        29     9      180.000000        1.382290         4    ;  uncertainty k = 0.220657
         6        11        12        13     9        0.000000        0.806622         1    ;  uncertainty k = 1.261036
         6        11        12        13     9      180.000000       10.463928         2    ;  uncertainty k = 0.562814
         6        11        12        13     9        0.000000        1.430220         3    ;  uncertainty k = 0.327391
         6        11        12        13     9      180.000000        0.271358         4    ;  uncertainty k = 0.377636
         7         6        11        10     9        0.000000       -0.308930         1    ;  uncertainty k = 0.155786
         7         6        11        10     9      180.000000        8.450291         2    ;  uncertainty k = 0.532828
         7         6        11        10     9        0.000000        0.221327         3    ;  uncertainty k = 0.313905
         7         6        11        10     9      180.000000        1.127501         4    ;  uncertainty k = 0.184555
         7         6        11        12     9        0.000000       -0.445507         1    ;  uncertainty k = 0.782835
         7         6        11        12     9      180.000000        7.886013         2    ;  uncertainty k = 0.782661
         7         6        11        12     9        0.000000        0.359352         3    ;  uncertainty k = 0.190383
         7         6        11        12     9      180.000000        1.243000         4    ;  uncertainty k = 0.182898
         7         8         9        10     9        0.000000       -0.092365         1    ;  uncertainty k = 0.144251
         7         8         9        10     9      180.000000       12.875231         2    ;  uncertainty k = 0.313162
         7         8         9        10     9        0.000000       -0.921870         3    ;  uncertainty k = 0.734454
         7         8         9        10     9      180.000000        0.764162         4    ;  uncertainty k = 0.198798
         7         8         9        28     9        0.000000        0.012929         1    ;  uncertainty k = 0.129673
         7         8         9        28     9      180.000000        7.073419         2    ;  uncertainty k = 0.381367
         7         8         9        28     9        0.000000        1.453704         3    ;  uncertainty k = 0.302936
         7         8         9        28     9      180.000000        1.699322         4    ;  uncertainty k = 0.089524
         8         7         6        11     9        0.000000       -0.295932         1    ;  uncertainty k = 0.399012
         8         7         6        11     9      180.000000        8.682950         2    ;  uncertainty k = 0.468700
         8         7         6        11     9        0.000000       -0.291556         3    ;  uncertainty k = 0.275498
         8         7         6        11     9      180.000000        1.067289         4    ;  uncertainty k = 0.201450
         8         9        10        11     9        0.000000        0.102403         1    ;  uncertainty k = 0.420428
         8         9        10        11     9      180.000000       16.321531         2    ;  uncertainty k = 0.233012
         8         9        10        11     9        0.000000       -0.491665         3    ;  uncertainty k = 0.331885
         8         9        10        11     9      180.000000        0.652567         4    ;  uncertainty k = 0.335521
         8         9        10        29     9        0.000000        0.118280         1    ;  uncertainty k = 0.092412
         8         9        10        29     9      180.000000        8.686783         2    ;  uncertainty k = 0.421367
         8         9        10        29     9        0.000000        1.491240         3    ;  uncertainty k = 0.251144
         8         9        10        29     9      180.000000        1.901620         4    ;  uncertainty k = 0.248061
         9         8         7        26     9        0.000000       -0.123756         1    ;  uncertainty k = 0.302699
         9         8         7        26     9      180.000000       10.872601         2    ;  uncertainty k = 0.538422
         9         8         7        26     9        0.000000        1.595481         3    ;  uncertainty k = 0.355773
         9         8         7        26     9      180.000000        1.645641         4    ;  uncertainty k = 0.237884
         9        10        11        12     9        0.000000        0.287295         1    ;  uncertainty k = 0.463806
         9        10        11        12     9      180.000000        9.266919         2    ;  uncertainty k = 0.447984
         9        10        11        12     9        0.000000        0.616735         3    ;  uncertainty k = 0.298027
         9        10        11        12     9      180.000000        1.306956         4    ;  uncertainty k = 0.101406
        10         9         8        27     9        0.000000        0.066430         1    ;  uncertainty k = 0.242828
        10         9         8        27     9      180.000000        6.968220         2    ;  uncertainty k = 0.340123
        10         9         8        27     9        0.000000        1.418853         3    ;  uncertainty k = 0.233365
        10         9         8        27     9      180.000000        1.631665         4    ;  uncertainty k = 0.165943
        10        11        12        13     9        0.000000       -0.066232         1    ;  uncertainty k = 0.800581
        10        11        12        13     9      180.000000        6.934267         2    ;  uncertainty k = 0.744557
        10        11        12        13     9        0.000000        1.500603         3    ;  uncertainty k = 0.453602
        10        11        12        13     9      180.000000        0.267017         4    ;  uncertainty k = 0.275775
        11         6         7        26     9        0.000000       -0.040991         1    ;  uncertainty k = 0.378705
        11         6         7        26     9      180.000000        7.299847         2    ;  uncertainty k = 0.501607
        11         6         7        26     9        0.000000        1.346803         3    ;  uncertainty k = 0.219673
        11         6         7        26     9      180.000000        1.279394         4    ;  uncertainty k = 0.325100
        11        10         9        28     9        0.000000        0.141246         1    ;  uncertainty k = 0.361930
        11        10         9        28     9      180.000000       10.242016         2    ;  uncertainty k = 0.266127
        11        10         9        28     9        0.000000        1.527863         3    ;  uncertainty k = 0.298321
        11        10         9        28     9      180.000000        1.721654         4    ;  uncertainty k = 0.230549
        11        12        13        14     9        0.000000       -0.830847         1    ;  uncertainty k = 1.015588
        11        12        13        14     9      180.000000        1.697735         2    ;  uncertainty k = 0.454785
        11        12        13        14     9        0.000000        0.542852         3    ;  uncertainty k = 0.226231
        11        12        13        14     9      180.000000        0.164270         4    ;  uncertainty k = 0.074074
        11        12        13        30     9        0.000000       -0.675099         1    ;  uncertainty k = 0.517407
        11        12        13        30     9      180.000000        2.494786         2    ;  uncertainty k = 0.186666
        11        12        13        30     9        0.000000        0.765711         3    ;  uncertainty k = 0.091480
        11        12        13        30     9      180.000000        0.287019         4    ;  uncertainty k = 0.061332
        11        12        13        31     9        0.000000       -0.675099         1    ;  uncertainty k = 0.517407
        11        12        13        31     9      180.000000        2.494786         2    ;  uncertainty k = 0.186666
        11        12        13        31     9        0.000000        0.765711         3    ;  uncertainty k = 0.091480
        11        12        13        31     9      180.000000        0.287019         4    ;  uncertainty k = 0.061332
        12        11        10        29     9        0.000000        0.427127         1    ;  uncertainty k = 0.623793
        12        11        10        29     9      180.000000        6.166755         2    ;  uncertainty k = 0.544514
        12        11        10        29     9        0.000000        1.284381         3    ;  uncertainty k = 0.264511
        12        11        10        29     9      180.000000        1.055287         4    ;  uncertainty k = 0.228971
        12        13        14        15     9        0.000000       -2.717883         1    ;  uncertainty k = 0.842336
        12        13        14        15     9      180.000000       -0.565054         2    ;  uncertainty k = 0.474729
        12        13        14        15     9        0.000000        1.280536         3    ;  uncertainty k = 0.201616
        12        13        14        15     9      180.000000       -0.216752         4    ;  uncertainty k = 0.105065
        12        13        14        32     9        0.000000        0.740883         1    ;  uncertainty k = 0.352162
        12        13        14        32     9      180.000000       -0.713150         2    ;  uncertainty k = 0.427333
        12        13        14        32     9        0.000000        1.178887         3    ;  uncertainty k = 0.151952
        12        13        14        32     9      180.000000        0.000081         4    ;  uncertainty k = 0.050117
        12        13        14        33     9        0.000000        0.740883         1    ;  uncertainty k = 0.352162
        12        13        14        33     9      180.000000       -0.713150         2    ;  uncertainty k = 0.427333
        12        13        14        33     9        0.000000        1.178887         3    ;  uncertainty k = 0.151952
        12        13        14        33     9      180.000000        0.000081         4    ;  uncertainty k = 0.050117
        13        14        15        16     9        0.000000       -3.729103         1    ;  uncertainty k = 1.148332
        13        14        15        16     9      180.000000       -2.463364         2    ;  uncertainty k = 0.495956
        13        14        15        16     9        0.000000        2.181882         3    ;  uncertainty k = 0.293624
        13        14        15        16     9      180.000000       -0.496409         4    ;  uncertainty k = 0.130483
        13        14        15        34     9        0.000000       -1.806243         1    ;  uncertainty k = 0.457976
        13        14        15        34     9      180.000000        0.005881         2    ;  uncertainty k = 0.200425
        13        14        15        34     9        0.000000        0.967789         3    ;  uncertainty k = 0.043415
        13        14        15        34     9      180.000000       -0.332601         4    ;  uncertainty k = 0.104657
        13        14        15        35     9        0.000000       -1.806243         1    ;  uncertainty k = 0.457976
        13        14        15        35     9      180.000000        0.005881         2    ;  uncertainty k = 0.200425
        13        14        15        35     9        0.000000        0.967789         3    ;  uncertainty k = 0.043415
        13        14        15        35     9      180.000000       -0.332601         4    ;  uncertainty k = 0.104657
        14        15        16        17     9        0.000000       -1.328281         1    ;  uncertainty k = 0.549236
        14        15        16        17     9      180.000000       -0.170654         2    ;  uncertainty k = 0.278539
        14        15        16        17     9        0.000000        0.756555         3    ;  uncertainty k = 0.105828
        14        15        16        17     9      180.000000        0.496849         4    ;  uncertainty k = 0.066915
        15        14        13        30     9        0.000000       -1.692469         1    ;  uncertainty k = 0.370449
        15        14        13        30     9      180.000000       -0.553099         2    ;  uncertainty k = 0.192472
        15        14        13        30     9        0.000000        0.874307         3    ;  uncertainty k = 0.107446
        15        14        13        30     9      180.000000       -0.351480         4    ;  uncertainty k = 0.059022
        15        14        13        31     9        0.000000       -1.692469         1    ;  uncertainty k = 0.370449
        15        14        13        31     9      180.000000       -0.553099         2    ;  uncertainty k = 0.192472
        15        14        13        31     9        0.000000        0.874307         3    ;  uncertainty k = 0.107446
        15        14        13        31     9      180.000000       -0.351480         4    ;  uncertainty k = 0.059022
        15        16        17        18     9        0.000000        0.547703         1    ;  uncertainty k = 0.316049
        15        16        17        18     9      180.000000        6.969757         2    ;  uncertainty k = 0.117903
        15        16        17        18     9        0.000000        0.630607         3    ;  uncertainty k = 0.108645
        15        16        17        18     9      180.000000        0.195588         4    ;  uncertainty k = 0.037238
        15        16        17        25     9        0.000000        0.547703         1    ;  uncertainty k = 0.316049
        15        16        17        25     9      180.000000        6.969757         2    ;  uncertainty k = 0.117902
        15        16        17        25     9        0.000000        0.630607         3    ;  uncertainty k = 0.108645
        15        16        17        25     9      180.000000        0.195588         4    ;  uncertainty k = 0.037238
        16        15        14        32     9        0.000000        0.242563         1    ;  uncertainty k = 0.534507
        16        15        14        32     9      180.000000       -2.117935         2    ;  uncertainty k = 0.268781
        16        15        14        32     9        0.000000        1.409327         3    ;  uncertainty k = 0.111066
        16        15        14        32     9      180.000000        0.041869         4    ;  uncertainty k = 0.071104
        16        15        14        33     9        0.000000        0.242563         1    ;  uncertainty k = 0.534507
        16        15        14        33     9      180.000000       -2.117935         2    ;  uncertainty k = 0.268781
        16        15        14        33     9        0.000000        1.409327         3    ;  uncertainty k = 0.111066
        16        15        14        33     9      180.000000        0.041869         4    ;  uncertainty k = 0.071104
        16        17        18        19     9        0.000000        0.013006         1    ;  uncertainty k = 0.272649
        16        17        18        19     9      180.000000       10.162812         2    ;  uncertainty k = 0.527138
        16        17        18        19     9        0.000000        1.169094         3    ;  uncertainty k = 0.321813
        16        17        18        19     9      180.000000        1.626286         4    ;  uncertainty k = 0.204628
        16        17        18        36     9        0.000000       -0.267262         1    ;  uncertainty k = 0.272099
        16        17        18        36     9      180.000000        8.579503         2    ;  uncertainty k = 0.254809
        16        17        18        36     9        0.000000        0.692491         3    ;  uncertainty k = 0.124809
        16        17        18        36     9      180.000000        1.020921         4    ;  uncertainty k = 0.191378
        16        17        25        23     9        0.000000        0.013005         1    ;  uncertainty k = 0.272649
        16        17        25        23     9      180.000000       10.162811         2    ;  uncertainty k = 0.527138
        16        17        25        23     9        0.000000        1.169093         3    ;  uncertainty k = 0.321813
        16        17        25        23     9      180.000000        1.626286         4    ;  uncertainty k = 0.204628
        16        17        25        43     9        0.000000       -0.267263         1    ;  uncertainty k = 0.272099
        16        17        25        43     9      180.000000        8.579503         2    ;  uncertainty k = 0.254809
        16        17        25        43     9        0.000000        0.692491         3    ;  uncertainty k = 0.124809
        16        17        25        43     9      180.000000        1.020921         4    ;  uncertainty k = 0.191377
        17        16        15        34     9        0.000000        0.624479         1    ;  uncertainty k = 0.477708
        17        16        15        34     9      180.000000       -1.168698         2    ;  uncertainty k = 0.141593
        17        16        15        34     9        0.000000        0.546859         3    ;  uncertainty k = 0.047096
        17        16        15        34     9      180.000000        0.244923         4    ;  uncertainty k = 0.048761
        17        16        15        35     9        0.000000        0.624479         1    ;  uncertainty k = 0.477708
        17        16        15        35     9      180.000000       -1.168698         2    ;  uncertainty k = 0.141593
        17        16        15        35     9        0.000000        0.546859         3    ;  uncertainty k = 0.047096
        17        16        15        35     9      180.000000        0.244923         4    ;  uncertainty k = 0.048761
        17        18        19        20     9        0.000000        0.145992         1    ;  uncertainty k = 0.145661
        17        18        19        20     9      180.000000       10.410670         2    ;  uncertainty k = 0.466683
        17        18        19        20     9        0.000000        1.319718         3    ;  uncertainty k = 0.225512
        17        18        19        20     9      180.000000        1.756199         4    ;  uncertainty k = 0.123279
        17        18        19        21     9        0.000000       -0.042609         1    ;  uncertainty k = 0.241785
        17        18        19        21     9      180.000000       11.572872         2    ;  uncertainty k = 0.360953
        17        18        19        21     9        0.000000        0.095109         3    ;  uncertainty k = 0.340695
        17        18        19        21     9      180.000000        1.155020         4    ;  uncertainty k = 0.248068
        17        25        23        21     9        0.000000       -0.042610         1    ;  uncertainty k = 0.241785
        17        25        23        21     9      180.000000       11.572872         2    ;  uncertainty k = 0.360953
        17        25        23        21     9        0.000000        0.095109         3    ;  uncertainty k = 0.340695
        17        25        23        21     9      180.000000        1.155020         4    ;  uncertainty k = 0.248068
        17        25        23        24     9        0.000000        0.145992         1    ;  uncertainty k = 0.145660
        17        25        23        24     9      180.000000       10.410670         2    ;  uncertainty k = 0.466683
        17        25        23        24     9        0.000000        1.319718         3    ;  uncertainty k = 0.225512
        17        25        23        24     9      180.000000        1.756200         4    ;  uncertainty k = 0.123279
        18        17        25        23     9        0.000000       -0.062414         1    ;  uncertainty k = 0.159969
        18        17        25        23     9      180.000000        8.644185         2    ;  uncertainty k = 0.549838
        18        17        25        23     9        0.000000        0.044770         3    ;  uncertainty k = 0.484714
        18        17        25        23     9      180.000000        1.249603         4    ;  uncertainty k = 0.340738
        18        17        25        43     9        0.000000        0.229573         1    ;  uncertainty k = 0.284941
        18        17        25        43     9      180.000000        6.281227         2    ;  uncertainty k = 0.540805
        18        17        25        43     9        0.000000        1.498919         3    ;  uncertainty k = 0.322615
        18        17        25        43     9      180.000000        1.614843         4    ;  uncertainty k = 0.102429
        18        19        20        37     9        0.000000        0.064249         1    ;  uncertainty k = 0.241125
        18        19        20        37     9      180.000000        1.764069         2    ;  uncertainty k = 0.101958
        18        19        20        37     9        0.000000        0.221206         3    ;  uncertainty k = 0.066566
        18        19        20        37     9      180.000000        0.226088         4    ;  uncertainty k = 0.040934
        18        19        20        38     9        0.000000        0.064249         1    ;  uncertainty k = 0.241125
        18        19        20        38     9      180.000000        1.764069         2    ;  uncertainty k = 0.101958
        18        19        20        38     9        0.000000        0.221206         3    ;  uncertainty k = 0.066566
        18        19        20        38     9      180.000000        0.226088         4    ;  uncertainty k = 0.040934
        18        19        20        39     9        0.000000        0.064249         1    ;  uncertainty k = 0.241125
        18        19        20        39     9      180.000000        1.764069         2    ;  uncertainty k = 0.101958
        18        19        20        39     9        0.000000        0.221206         3    ;  uncertainty k = 0.066566
        18        19        20        39     9      180.000000        0.226088         4    ;  uncertainty k = 0.040934
        18        19        21        22     9        0.000000        0.196014         1    ;  uncertainty k = 0.128734
        18        19        21        22     9      180.000000        8.981239         2    ;  uncertainty k = 0.509920
        18        19        21        22     9        0.000000        1.481870         3    ;  uncertainty k = 0.327981
        18        19        21        22     9      180.000000        1.593722         4    ;  uncertainty k = 0.160471
        18        19        21        23     9        0.000000       -0.119143         1    ;  uncertainty k = 0.187407
        18        19        21        23     9      180.000000        7.123352         2    ;  uncertainty k = 0.781340
        18        19        21        23     9        0.000000        0.577028         3    ;  uncertainty k = 0.539681
        18        19        21        23     9      180.000000        1.259895         4    ;  uncertainty k = 0.455643
        19        18        17        25     9        0.000000       -0.062414         1    ;  uncertainty k = 0.159969
        19        18        17        25     9      180.000000        8.644186         2    ;  uncertainty k = 0.549838
        19        18        17        25     9        0.000000        0.044770         3    ;  uncertainty k = 0.484715
        19        18        17        25     9      180.000000        1.249603         4    ;  uncertainty k = 0.340738
        19        21        23        24     9        0.000000        0.252592         1    ;  uncertainty k = 0.125542
        19        21        23        24     9      180.000000        7.213959         2    ;  uncertainty k = 0.402835
        19        21        23        24     9        0.000000        1.206011         3    ;  uncertainty k = 0.155089
        19        21        23        24     9      180.000000        1.605822         4    ;  uncertainty k = 0.282734
        19        21        23        25     9        0.000000       -0.119144         1    ;  uncertainty k = 0.187407
        19        21        23        25     9      180.000000        7.123351         2    ;  uncertainty k = 0.781340
        19        21        23        25     9        0.000000        0.577029         3    ;  uncertainty k = 0.539681
        19        21        23        25     9      180.000000        1.259895         4    ;  uncertainty k = 0.455643
        20        19        18        36     9        0.000000       -0.239239         1    ;  uncertainty k = 0.227515
        20        19        18        36     9      180.000000        8.292003         2    ;  uncertainty k = 0.253713
        20        19        18        36     9        0.000000        0.504699         3    ;  uncertainty k = 0.337930
        20        19        18        36     9      180.000000        1.016984         4    ;  uncertainty k = 0.201348
        20        19        21        22     9        0.000000       -0.121780         1    ;  uncertainty k = 0.337212
        20        19        21        22     9      180.000000        9.191366         2    ;  uncertainty k = 0.278719
        20        19        21        22     9        0.000000        0.988064         3    ;  uncertainty k = 0.271083
        20        19        21        22     9      180.000000        1.222911         4    ;  uncertainty k = 0.318129
        20        19        21        23     9        0.000000        0.252591         1    ;  uncertainty k = 0.125542
        20        19        21        23     9      180.000000        7.213959         2    ;  uncertainty k = 0.402834
        20        19        21        23     9        0.000000        1.206011         3    ;  uncertainty k = 0.155089
        20        19        21        23     9      180.000000        1.605822         4    ;  uncertainty k = 0.282734
        21        19        18        36     9        0.000000        0.276662         1    ;  uncertainty k = 0.165641
        21        19        18        36     9      180.000000        7.511755         2    ;  uncertainty k = 0.274704
        21        19        18        36     9        0.000000        1.624213         3    ;  uncertainty k = 0.311176
        21        19        18        36     9      180.000000        1.762843         4    ;  uncertainty k = 0.142029
        21        19        20        37     9        0.000000       -0.059323         1    ;  uncertainty k = 0.357974
        21        19        20        37     9      180.000000        2.363540         2    ;  uncertainty k = 0.193083
        21        19        20        37     9        0.000000        0.498612         3    ;  uncertainty k = 0.041718
        21        19        20        37     9      180.000000        0.369585         4    ;  uncertainty k = 0.037380
        21        19        20        38     9        0.000000       -0.059323         1    ;  uncertainty k = 0.357974
        21        19        20        38     9      180.000000        2.363540         2    ;  uncertainty k = 0.193083
        21        19        20        38     9        0.000000        0.498612         3    ;  uncertainty k = 0.041718
        21        19        20        38     9      180.000000        0.369585         4    ;  uncertainty k = 0.037380
        21        19        20        39     9        0.000000       -0.059323         1    ;  uncertainty k = 0.357974
        21        19        20        39     9      180.000000        2.363540         2    ;  uncertainty k = 0.193083
        21        19        20        39     9        0.000000        0.498612         3    ;  uncertainty k = 0.041718
        21        19        20        39     9      180.000000        0.369585         4    ;  uncertainty k = 0.037380
        21        23        24        40     9        0.000000       -0.059322         1    ;  uncertainty k = 0.357974
        21        23        24        40     9      180.000000        2.363540         2    ;  uncertainty k = 0.193083
        21        23        24        40     9        0.000000        0.498612         3    ;  uncertainty k = 0.041718
        21        23        24        40     9      180.000000        0.369585         4    ;  uncertainty k = 0.037380
        21        23        24        41     9        0.000000       -0.059323         1    ;  uncertainty k = 0.357975
        21        23        24        41     9      180.000000        2.363540         2    ;  uncertainty k = 0.193083
        21        23        24        41     9        0.000000        0.498612         3    ;  uncertainty k = 0.041717
        21        23        24        41     9      180.000000        0.369585         4    ;  uncertainty k = 0.037380
        21        23        24        42     9        0.000000       -0.059323         1    ;  uncertainty k = 0.357975
        21        23        24        42     9      180.000000        2.363540         2    ;  uncertainty k = 0.193083
        21        23        24        42     9        0.000000        0.498612         3    ;  uncertainty k = 0.041717
        21        23        24        42     9      180.000000        0.369585         4    ;  uncertainty k = 0.037380
        21        23        25        43     9        0.000000        0.276661         1    ;  uncertainty k = 0.165641
        21        23        25        43     9      180.000000        7.511754         2    ;  uncertainty k = 0.274705
        21        23        25        43     9        0.000000        1.624213         3    ;  uncertainty k = 0.311176
        21        23        25        43     9      180.000000        1.762843         4    ;  uncertainty k = 0.142030
        22        21        23        24     9        0.000000       -0.121780         1    ;  uncertainty k = 0.337211
        22        21        23        24     9      180.000000        9.191366         2    ;  uncertainty k = 0.278718
        22        21        23        24     9        0.000000        0.988064         3    ;  uncertainty k = 0.271083
        22        21        23        24     9      180.000000        1.222912         4    ;  uncertainty k = 0.318129
        22        21        23        25     9        0.000000        0.196014         1    ;  uncertainty k = 0.128734
        22        21        23        25     9      180.000000        8.981239         2    ;  uncertainty k = 0.509920
        22        21        23        25     9        0.000000        1.481870         3    ;  uncertainty k = 0.327981
        22        21        23        25     9      180.000000        1.593722         4    ;  uncertainty k = 0.160471
        24        23        25        43     9        0.000000       -0.239240         1    ;  uncertainty k = 0.227515
        24        23        25        43     9      180.000000        8.292003         2    ;  uncertainty k = 0.253713
        24        23        25        43     9        0.000000        0.504699         3    ;  uncertainty k = 0.337931
        24        23        25        43     9      180.000000        1.016983         4    ;  uncertainty k = 0.201348
        25        17        18        36     9        0.000000        0.229573         1    ;  uncertainty k = 0.284940
        25        17        18        36     9      180.000000        6.281226         2    ;  uncertainty k = 0.540805
        25        17        18        36     9        0.000000        1.498919         3    ;  uncertainty k = 0.322615
        25        17        18        36     9      180.000000        1.614843         4    ;  uncertainty k = 0.102429
        25        23        24        40     9        0.000000        0.064249         1    ;  uncertainty k = 0.241125
        25        23        24        40     9      180.000000        1.764070         2    ;  uncertainty k = 0.101958
        25        23        24        40     9        0.000000        0.221206         3    ;  uncertainty k = 0.066566
        25        23        24        40     9      180.000000        0.226087         4    ;  uncertainty k = 0.040934
        25        23        24        41     9        0.000000        0.064249         1    ;  uncertainty k = 0.241125
        25        23        24        41     9      180.000000        1.764069         2    ;  uncertainty k = 0.101958
        25        23        24        41     9        0.000000        0.221206         3    ;  uncertainty k = 0.066566
        25        23        24        41     9      180.000000        0.226087         4    ;  uncertainty k = 0.040934
        25        23        24        42     9        0.000000        0.064249         1    ;  uncertainty k = 0.241125
        25        23        24        42     9      180.000000        1.764069         2    ;  uncertainty k = 0.101958
        25        23        24        42     9        0.000000        0.221206         3    ;  uncertainty k = 0.066566
        25        23        24        42     9      180.000000        0.226087         4    ;  uncertainty k = 0.040934
        26         7         8        27     9        0.000000       -0.202990         1    ;  uncertainty k = 0.374133
        26         7         8        27     9      180.000000        8.176703         2    ;  uncertainty k = 0.461242
        26         7         8        27     9        0.000000        0.714384         3    ;  uncertainty k = 0.372261
        26         7         8        27     9      180.000000        0.987022         4    ;  uncertainty k = 0.291764
        27         8         9        28     9        0.000000       -0.013706         1    ;  uncertainty k = 0.233550
        27         8         9        28     9      180.000000        7.219560         2    ;  uncertainty k = 0.612429
        27         8         9        28     9        0.000000       -0.303565         3    ;  uncertainty k = 0.201589
        27         8         9        28     9      180.000000        0.095970         4    ;  uncertainty k = 0.141774
        28         9        10        29     9        0.000000        0.053308         1    ;  uncertainty k = 0.220899
        28         9        10        29     9      180.000000        8.009918         2    ;  uncertainty k = 0.333981
        28         9        10        29     9        0.000000       -0.301276         3    ;  uncertainty k = 0.257496
        28         9        10        29     9      180.000000        0.136015         4    ;  uncertainty k = 0.161900
        30        13        14        32     9        0.000000        0.850092         1    ;  uncertainty k = 0.180291
        30        13        14        32     9      180.000000       -0.616063         2    ;  uncertainty k = 0.188227
        30        13        14        32     9        0.000000        0.188356         3    ;  uncertainty k = 0.045721
        30        13        14        32     9      180.000000        0.012791         4    ;  uncertainty k = 0.036929
        30        13        14        33     9        0.000000        0.850092         1    ;  uncertainty k = 0.180291
        30        13        14        33     9      180.000000       -0.616063         2    ;  uncertainty k = 0.188227
        30        13        14        33     9        0.000000        0.188356         3    ;  uncertainty k = 0.045721
        30        13        14        33     9      180.000000        0.012791         4    ;  uncertainty k = 0.036929
        31        13        14        32     9        0.000000        0.850092         1    ;  uncertainty k = 0.180291
        31        13        14        32     9      180.000000       -0.616063         2    ;  uncertainty k = 0.188227
        31        13        14        32     9        0.000000        0.188356         3    ;  uncertainty k = 0.045721
        31        13        14        32     9      180.000000        0.012791         4    ;  uncertainty k = 0.036929
        31        13        14        33     9        0.000000        0.850092         1    ;  uncertainty k = 0.180291
        31        13        14        33     9      180.000000       -0.616063         2    ;  uncertainty k = 0.188227
        31        13        14        33     9        0.000000        0.188356         3    ;  uncertainty k = 0.045721
        31        13        14        33     9      180.000000        0.012791         4    ;  uncertainty k = 0.036929
        32        14        15        34     9        0.000000        0.461245         1    ;  uncertainty k = 0.147009
        32        14        15        34     9      180.000000       -0.418229         2    ;  uncertainty k = 0.143533
        32        14        15        34     9        0.000000        0.094940         3    ;  uncertainty k = 0.078197
        32        14        15        34     9      180.000000       -0.036829         4    ;  uncertainty k = 0.077505
        32        14        15        35     9        0.000000        0.461245         1    ;  uncertainty k = 0.147009
        32        14        15        35     9      180.000000       -0.418229         2    ;  uncertainty k = 0.143533
        32        14        15        35     9        0.000000        0.094940         3    ;  uncertainty k = 0.078197
        32        14        15        35     9      180.000000       -0.036829         4    ;  uncertainty k = 0.077505
        33        14        15        34     9        0.000000        0.461245         1    ;  uncertainty k = 0.147009
        33        14        15        34     9      180.000000       -0.418229         2    ;  uncertainty k = 0.143533
        33        14        15        34     9        0.000000        0.094940         3    ;  uncertainty k = 0.078197
        33        14        15        34     9      180.000000       -0.036829         4    ;  uncertainty k = 0.077505
        33        14        15        35     9        0.000000        0.461245         1    ;  uncertainty k = 0.147009
        33        14        15        35     9      180.000000       -0.418229         2    ;  uncertainty k = 0.143533
        33        14        15        35     9        0.000000        0.094940         3    ;  uncertainty k = 0.078197
        33        14        15        35     9      180.000000       -0.036829         4    ;  uncertainty k = 0.077505

[ dihedrals ] ; impropers
;       ai        aj        ak        al funct           phase               k        pn
         2         1         3         4     4      180.000000       66.373256         2    ;  uncertainty k = 0.088298
         2         3         4         1     4      180.000000       66.373256         2    ;  uncertainty k = 0.088298
         2         4         1         3     4      180.000000       66.373256         2    ;  uncertainty k = 0.088298
         4         2         5        12     4      180.000000        6.075165         2    ;  uncertainty k = 0.518208
         4         5        12         2     4      180.000000        6.075165         2    ;  uncertainty k = 0.518208
         4        12         2         5     4      180.000000        6.075165         2    ;  uncertainty k = 0.518208
         6         5         7        11     4      180.000000        0.443512         2    ;  uncertainty k = 0.618599
         6         7        11         5     4      180.000000        0.443512         2    ;  uncertainty k = 0.618599
         6        11         5         7     4      180.000000        0.443512         2    ;  uncertainty k = 0.618599
         7         6         8        26     4      180.000000       11.183490         2    ;  uncertainty k = 0.156819
         7         8        26         6     4      180.000000       11.183490         2    ;  uncertainty k = 0.156819
         7        26         6         8     4      180.000000       11.183490         2    ;  uncertainty k = 0.156819
         8         7         9        27     4      180.000000        3.152301         2    ;  uncertainty k = 0.193765
         8         9        27         7     4      180.000000        3.152301         2    ;  uncertainty k = 0.193765
         8        27         7         9     4      180.000000        3.152301         2    ;  uncertainty k = 0.193765
         9         8        10        28     4      180.000000        3.898743         2    ;  uncertainty k = 0.125121
         9        10        28         8     4      180.000000        3.898743         2    ;  uncertainty k = 0.125121
         9        28         8        10     4      180.000000        3.898743         2    ;  uncertainty k = 0.125121
        10         9        11        29     4      180.000000        3.907515         2    ;  uncertainty k = 0.096601
        10        11        29         9     4      180.000000        3.907515         2    ;  uncertainty k = 0.096601
        10        29         9        11     4      180.000000        3.907515         2    ;  uncertainty k = 0.096601
        11         6        10        12     4      180.000000        1.879614         2    ;  uncertainty k = 0.516786
        11        10        12         6     4      180.000000        1.879614         2    ;  uncertainty k = 0.516786
        11        12         6        10     4      180.000000        1.879614         2    ;  uncertainty k = 0.516786
        12         4        11        13     4      180.000000        7.054904         2    ;  uncertainty k = 0.313976
        12        11        13         4     4      180.000000        7.054904         2    ;  uncertainty k = 0.313976
        12        13         4        11     4      180.000000        7.054904         2    ;  uncertainty k = 0.313976
        17        16        18        25     4      180.000000       19.484180         2    ;  uncertainty k = 0.084612
        17        18        25        16     4      180.000000       19.484180         2    ;  uncertainty k = 0.084612
        17        25        16        18     4      180.000000       19.484180         2    ;  uncertainty k = 0.084612
        18        17        19        36     4      180.000000        1.802842         2    ;  uncertainty k = 0.423562
        18        19        36        17     4      180.000000        1.802842         2    ;  uncertainty k = 0.423562
        18        36        17        19     4      180.000000        1.802842         2    ;  uncertainty k = 0.423562
        19        18        20        21     4      180.000000       15.574143         2    ;  uncertainty k = 0.081448
        19        20        21        18     4      180.000000       15.574143         2    ;  uncertainty k = 0.081448
        19        21        18        20     4      180.000000       15.574143         2    ;  uncertainty k = 0.081448
        21        19        22        23     4      180.000000       10.845938         2    ;  uncertainty k = 0.216128
        21        22        23        19     4      180.000000       10.845938         2    ;  uncertainty k = 0.216128
        21        23        19        22     4      180.000000       10.845938         2    ;  uncertainty k = 0.216128
        23        21        24        25     4      180.000000       15.574139         2    ;  uncertainty k = 0.081448
        23        24        25        21     4      180.000000       15.574139         2    ;  uncertainty k = 0.081448
        23        25        21        24     4      180.000000       15.574139         2    ;  uncertainty k = 0.081448
        25        17        23        43     4      180.000000        1.802842         2    ;  uncertainty k = 0.423561
        25        23        43        17     4      180.000000        1.802842         2    ;  uncertainty k = 0.423561
        25        43        17        23     4      180.000000        1.802842         2    ;  uncertainty k = 0.423561

[ pairs ]
;       ai        aj funct
         1         5     1
         1        12     1
         2         6     1
         2        11     1
         2        13     1
         3         5     1
         3        12     1
         4         7     1
         4        10     1
         4        14     1
         4        30     1
         4        31     1
         5         8     1
         5        10     1
         5        13     1
         5        26     1
         6         9     1
         6        13     1
         6        27     1
         6        29     1
         7        10     1
         7        12     1
         7        28     1
         8        11     1
         8        29     1
         9        12     1
         9        26     1
        10        13     1
        10        27     1
        11        14     1
        11        26     1
        11        28     1
        11        30     1
        11        31     1
        12        15     1
        12        29     1
        12        32     1
        12        33     1
        13        16     1
        13        34     1
        13        35     1
        14        17     1
        15        18     1
        15        25     1
        15        30     1
        15        31     1
        16        19     1
        16        23     1
        16        32     1
        16        33     1
        16        36     1
        16        43     1
        17        20     1
        17        21     1
        17        24     1
        17        34     1
        17        35     1
        18        22     1
        18        23     1
        18        37     1
        18        38     1
        18        39     1
        18        43     1
        19        24     1
        19        25     1
        20        22     1
        20        23     1
        20        36     1
        21        36     1
        21        37     1
        21        38     1
        21        39     1
        21        40     1
        21        41     1
        21        42     1
        21        43     1
        22        24     1
        22        25     1
        24        43     1
        25        36     1
        25        40     1
        25        41     1
        25        42     1
        26        27     1
        27        28     1
        28        29     1
        30        32     1
        30        33     1
        31        32     1
        31        33     1
        32        34     1
        32        35     1
        33        34     1
        33        35     1
