; ITP file created by ByteFF-joint-25, 2026-02-17 09:21:55.600225

[ atomtypes ]
;name           bonded.type        at.num        mass        charge   ptype           sigma         epsilon
 o0bf                                   8      0.0000       0.00000       A     3.04821e-01     6.11590e-01    ;  uncertainty sigma = 0.000055, epsilon = 0.001784
 c1bf                                   6      0.0000       0.00000       A     3.31484e-01     4.14075e-01    ;  uncertainty sigma = 0.000035, epsilon = 0.002537
 o2bf                                   8      0.0000       0.00000       A     3.04821e-01     6.11590e-01    ;  uncertainty sigma = 0.000055, epsilon = 0.001784
 c3bf                                   6      0.0000       0.00000       A     3.31463e-01     4.14316e-01    ;  uncertainty sigma = 0.000031, epsilon = 0.002860
 s4bf                                  16      0.0000       0.00000       A     3.53158e-01     1.18121e+00    ;  uncertainty sigma = 0.000038, epsilon = 0.005342
 c5bf                                   6      0.0000       0.00000       A     3.31525e-01     4.13299e-01    ;  uncertainty sigma = 0.000012, epsilon = 0.000895
 c6bf                                   6      0.0000       0.00000       A     3.31534e-01     4.13151e-01    ;  uncertainty sigma = 0.000011, epsilon = 0.000716
 c7bf                                   6      0.0000       0.00000       A     3.31520e-01     4.13479e-01    ;  uncertainty sigma = 0.000004, epsilon = 0.000643
 c8bf                                   6      0.0000       0.00000       A     3.31519e-01     4.13331e-01    ;  uncertainty sigma = 0.000003, epsilon = 0.000560
 c9bf                                   6      0.0000       0.00000       A     3.31525e-01     4.13115e-01    ;  uncertainty sigma = 0.000007, epsilon = 0.000552
 c10bf                                  6      0.0000       0.00000       A     3.31514e-01     4.13060e-01    ;  uncertainty sigma = 0.000011, epsilon = 0.000654
 c11bf                                  6      0.0000       0.00000       A     3.31592e-01     4.13001e-01    ;  uncertainty sigma = 0.000010, epsilon = 0.001460
 c12bf                                  6      0.0000       0.00000       A     3.39765e-01     4.50670e-01    ;  uncertainty sigma = 0.000026, epsilon = 0.001010
 c13bf                                  6      0.0000       0.00000       A     3.39754e-01     4.50591e-01    ;  uncertainty sigma = 0.000007, epsilon = 0.000968
 c14bf                                  6      0.0000       0.00000       A     3.39780e-01     4.50469e-01    ;  uncertainty sigma = 0.000008, epsilon = 0.000834
 o15bf                                  8      0.0000       0.00000       A     3.15667e-01     3.03012e-01    ;  uncertainty sigma = 0.000025, epsilon = 0.001888
 c16bf                                  6      0.0000       0.00000       A     3.31550e-01     4.13524e-01    ;  uncertainty sigma = 0.000007, epsilon = 0.000519
 c17bf                                  6      0.0000       0.00000       A     3.31525e-01     4.13209e-01    ;  uncertainty sigma = 0.000006, epsilon = 0.000593
 c18bf                                  6      0.0000       0.00000       A     3.31529e-01     4.13386e-01    ;  uncertainty sigma = 0.000002, epsilon = 0.000727
 c19bf                                  6      0.0000       0.00000       A     3.31514e-01     4.13155e-01    ;  uncertainty sigma = 0.000007, epsilon = 0.000630
 cl20bf                                17      0.0000       0.00000       A     3.46607e-01     1.10394e+00    ;  uncertainty sigma = 0.000023, epsilon = 0.003119
 h21bf                                  1      0.0000       0.00000       A     2.62561e-01     6.69707e-02    ;  uncertainty sigma = 0.000009, epsilon = 0.000724
 h22bf                                  1      0.0000       0.00000       A     2.62573e-01     6.69302e-02    ;  uncertainty sigma = 0.000010, epsilon = 0.000530
 h23bf                                  1      0.0000       0.00000       A     2.62569e-01     6.69692e-02    ;  uncertainty sigma = 0.000007, epsilon = 0.000343
 h24bf                                  1      0.0000       0.00000       A     2.60036e-01     8.65938e-02    ;  uncertainty sigma = 0.000009, epsilon = 0.000837
 h25bf                                  1      0.0000       0.00000       A     2.60036e-01     8.65938e-02    ;  uncertainty sigma = 0.000009, epsilon = 0.000837
 h26bf                                  1      0.0000       0.00000       A     2.60032e-01     8.63750e-02    ;  uncertainty sigma = 0.000011, epsilon = 0.000877
 h27bf                                  1      0.0000       0.00000       A     2.60032e-01     8.63750e-02    ;  uncertainty sigma = 0.000011, epsilon = 0.000877
 h28bf                                  1      0.0000       0.00000       A     2.42191e-01     8.69833e-02    ;  uncertainty sigma = 0.000030, epsilon = 0.000474
 h29bf                                  1      0.0000       0.00000       A     2.42191e-01     8.69833e-02    ;  uncertainty sigma = 0.000030, epsilon = 0.000474
 h30bf                                  1      0.0000       0.00000       A     2.62574e-01     6.69587e-02    ;  uncertainty sigma = 0.000012, epsilon = 0.000438
 c31bf                                  6      0.0000       0.00000       A     3.31525e-01     4.13520e-01    ;  uncertainty sigma = 0.000007, epsilon = 0.000401
 c32bf                                  6      0.0000       0.00000       A     3.31499e-01     4.13379e-01    ;  uncertainty sigma = 0.000012, epsilon = 0.000710
 c33bf                                  6      0.0000       0.00000       A     3.31518e-01     4.13093e-01    ;  uncertainty sigma = 0.000007, epsilon = 0.000322
 c34bf                                  6      0.0000       0.00000       A     3.31524e-01     4.13323e-01    ;  uncertainty sigma = 0.000003, epsilon = 0.000661
 c35bf                                  6      0.0000       0.00000       A     3.31523e-01     4.13359e-01    ;  uncertainty sigma = 0.000003, epsilon = 0.000695
 c36bf                                  6      0.0000       0.00000       A     3.31524e-01     4.13214e-01    ;  uncertainty sigma = 0.000004, epsilon = 0.000571
 h37bf                                  1      0.0000       0.00000       A     2.62548e-01     6.70306e-02    ;  uncertainty sigma = 0.000019, epsilon = 0.000384
 h38bf                                  1      0.0000       0.00000       A     2.62567e-01     6.69733e-02    ;  uncertainty sigma = 0.000010, epsilon = 0.000525
 h39bf                                  1      0.0000       0.00000       A     2.62567e-01     6.69734e-02    ;  uncertainty sigma = 0.000010, epsilon = 0.000525
 h40bf                                  1      0.0000       0.00000       A     2.62559e-01     6.70662e-02    ;  uncertainty sigma = 0.000013, epsilon = 0.000302
 h41bf                                  1      0.0000       0.00000       A     2.62585e-01     6.69641e-02    ;  uncertainty sigma = 0.000009, epsilon = 0.000462
 h42bf                                  1      0.0000       0.00000       A     2.62559e-01     6.70663e-02    ;  uncertainty sigma = 0.000013, epsilon = 0.000302

[ moleculetype ]
;name             nrexcl
 MOL                   3

[ atoms ]
;       nr            type      resi   res      atom      cgnr      charge          mass ; qtot
         1            o0bf         1   UNL        o0         1    -0.82215       15.9990 ; qtot   -0.822
         2            c1bf         1   UNL        c1         2     0.92042       12.0110 ; qtot    0.098
         3            o2bf         1   UNL        o2         3    -0.82215       15.9990 ; qtot   -0.724
         4            c3bf         1   UNL        c3         4    -0.07700       12.0110 ; qtot   -0.801
         5            s4bf         1   UNL        s4         5    -0.06321       32.0670 ; qtot   -0.864
         6            c5bf         1   UNL        c5         6    -0.07311       12.0110 ; qtot   -0.937
         7            c6bf         1   UNL        c6         7     0.04330       12.0110 ; qtot   -0.894
         8            c7bf         1   UNL        c7         8    -0.11209       12.0110 ; qtot   -1.006
         9            c8bf         1   UNL        c8         9    -0.12758       12.0110 ; qtot   -1.134
        10            c9bf         1   UNL        c9        10    -0.09772       12.0110 ; qtot   -1.231
        11           c10bf         1   UNL       c10        11    -0.05298       12.0110 ; qtot   -1.284
        12           c11bf         1   UNL       c11        12    -0.12740       12.0110 ; qtot   -1.412
        13           c12bf         1   UNL       c12        13    -0.02141       12.0110 ; qtot   -1.433
        14           c13bf         1   UNL       c13        14    -0.09594       12.0110 ; qtot   -1.529
        15           c14bf         1   UNL       c14        15     0.13628       12.0110 ; qtot   -1.393
        16           o15bf         1   UNL       o15        16    -0.33774       15.9990 ; qtot   -1.730
        17           c16bf         1   UNL       c16        17     0.14513       12.0110 ; qtot   -1.585
        18           c17bf         1   UNL       c17        18    -0.13575       12.0110 ; qtot   -1.721
        19           c18bf         1   UNL       c18        19    -0.09521       12.0110 ; qtot   -1.816
        20           c19bf         1   UNL       c19        20    -0.21404       12.0110 ; qtot   -2.030
        21          cl20bf         1   UNL      cl20        21    -0.10547       35.4530 ; qtot   -2.136
        22           h21bf         1   UNL       h21        22     0.15058        1.0080 ; qtot   -1.985
        23           h22bf         1   UNL       h22        23     0.13891        1.0080 ; qtot   -1.846
        24           h23bf         1   UNL       h23        24     0.14180        1.0080 ; qtot   -1.705
        25           h24bf         1   UNL       h24        25     0.05244        1.0080 ; qtot   -1.652
        26           h25bf         1   UNL       h25        26     0.05244        1.0080 ; qtot   -1.600
        27           h26bf         1   UNL       h26        27     0.05654        1.0080 ; qtot   -1.543
        28           h27bf         1   UNL       h27        28     0.05654        1.0080 ; qtot   -1.487
        29           h28bf         1   UNL       h28        29     0.04657        1.0080 ; qtot   -1.440
        30           h29bf         1   UNL       h29        30     0.04657        1.0080 ; qtot   -1.393
        31           h30bf         1   UNL       h30        31     0.14093        1.0080 ; qtot   -1.252
        32           c31bf         1   UNL       c31        32    -0.02304       12.0110 ; qtot   -1.276
        33           c32bf         1   UNL       c32        33    -0.05635       12.0110 ; qtot   -1.332
        34           c33bf         1   UNL       c33        34    -0.10394       12.0110 ; qtot   -1.436
        35           c34bf         1   UNL       c34        35    -0.13597       12.0110 ; qtot   -1.572
        36           c35bf         1   UNL       c35        36    -0.12037       12.0110 ; qtot   -1.692
        37           c36bf         1   UNL       c36        37    -0.12275       12.0110 ; qtot   -1.815
        38           h37bf         1   UNL       h37        38     0.14397        1.0080 ; qtot   -1.671
        39           h38bf         1   UNL       h38        39     0.13455        1.0080 ; qtot   -1.536
        40           h39bf         1   UNL       h39        40     0.13276        1.0080 ; qtot   -1.404
        41           h40bf         1   UNL       h40        41     0.13307        1.0080 ; qtot   -1.271
        42           h41bf         1   UNL       h41        42     0.13604        1.0080 ; qtot   -1.135
        43           h42bf         1   UNL       h42        43     0.13453        1.0080 ; qtot   -1.000

[ bonds ]
;       ai        aj funct               r               k
         1         2     1        0.126206   550538.656934    ;  uncertainty r = 0.000120, k = 6.029842
         2         3     1        0.126206   550538.656934    ;  uncertainty r = 0.000120, k = 6.029842
         2         4     1        0.154065   167223.236011    ;  uncertainty r = 0.000190, k = 61.257521
         4         5     1        0.176360   154411.842822    ;  uncertainty r = 0.000229, k = 25.741841
         4        12     1        0.137258   381948.891895    ;  uncertainty r = 0.000131, k = 11.956098
         5         6     1        0.174584   176266.896851    ;  uncertainty r = 0.000046, k = 17.537197
         6         7     1        0.139690   362252.400342    ;  uncertainty r = 0.000110, k = 6.031937
         6        11     1        0.142384   343101.738965    ;  uncertainty r = 0.000191, k = 16.735415
         7         8     1        0.138886   364189.339014    ;  uncertainty r = 0.000096, k = 3.484621
         7        21     1        0.175563   198276.718530    ;  uncertainty r = 0.000127, k = 4.689435
         8         9     1        0.140756   356857.328467    ;  uncertainty r = 0.000079, k = 3.759320
         8        22     1        0.108678   335646.639551    ;  uncertainty r = 0.000008, k = 1.190893
         9        10     1        0.138902   371149.937842    ;  uncertainty r = 0.000042, k = 2.160424
         9        23     1        0.108738   334065.637109    ;  uncertainty r = 0.000015, k = 1.114689
        10        11     1        0.140701   352820.754199    ;  uncertainty r = 0.000080, k = 4.458453
        10        24     1        0.108755   335549.394238    ;  uncertainty r = 0.000020, k = 1.686046
        11        12     1        0.144601   236445.797363    ;  uncertainty r = 0.000140, k = 28.270556
        12        13     1        0.150408   229144.942090    ;  uncertainty r = 0.000106, k = 11.541938
        13        14     1        0.153699   203619.464868    ;  uncertainty r = 0.000117, k = 8.765826
        13        25     1        0.109592   311413.403906    ;  uncertainty r = 0.000035, k = 1.661212
        13        26     1        0.109592   311413.403906    ;  uncertainty r = 0.000035, k = 1.661212
        14        15     1        0.152154   209837.227490    ;  uncertainty r = 0.000045, k = 4.154369
        14        27     1        0.109645   307905.754248    ;  uncertainty r = 0.000031, k = 1.503098
        14        28     1        0.109645   307905.754248    ;  uncertainty r = 0.000031, k = 1.503098
        15        16     1        0.142782   231869.521826    ;  uncertainty r = 0.000050, k = 4.849883
        15        29     1        0.109724   308279.106787    ;  uncertainty r = 0.000019, k = 1.483942
        15        30     1        0.109724   308279.106787    ;  uncertainty r = 0.000019, k = 1.483942
        16        17     1        0.136655   326316.222510    ;  uncertainty r = 0.000064, k = 10.302412
        17        20     1        0.138195   347784.427637    ;  uncertainty r = 0.000087, k = 7.943545
        17        33     1        0.142488   314726.230957    ;  uncertainty r = 0.000062, k = 8.281804
        18        19     1        0.137749   374604.751221    ;  uncertainty r = 0.000037, k = 4.265673
        18        32     1        0.142098   349009.749219    ;  uncertainty r = 0.000048, k = 5.218715
        18        43     1        0.108802   334878.074707    ;  uncertainty r = 0.000015, k = 1.345249
        19        20     1        0.141654   351742.500830    ;  uncertainty r = 0.000138, k = 8.139821
        19        42     1        0.108730   333619.069678    ;  uncertainty r = 0.000016, k = 1.862021
        20        31     1        0.108748   338790.257715    ;  uncertainty r = 0.000030, k = 1.699317
        32        33     1        0.143171   332447.248340    ;  uncertainty r = 0.000057, k = 5.746975
        32        37     1        0.142103   349376.104590    ;  uncertainty r = 0.000053, k = 3.058877
        33        34     1        0.141848   331211.839600    ;  uncertainty r = 0.000038, k = 5.635547
        34        35     1        0.138023   367791.322754    ;  uncertainty r = 0.000025, k = 2.241963
        34        38     1        0.108628   335903.057666    ;  uncertainty r = 0.000013, k = 0.678321
        35        36     1        0.141669   357736.903125    ;  uncertainty r = 0.000034, k = 2.704723
        35        39     1        0.108804   334144.036035    ;  uncertainty r = 0.000012, k = 1.469940
        36        37     1        0.137829   370848.727637    ;  uncertainty r = 0.000014, k = 2.697030
        36        40     1        0.108812   334757.871533    ;  uncertainty r = 0.000008, k = 1.170074
        37        41     1        0.108836   335130.713330    ;  uncertainty r = 0.000009, k = 0.888129

[ angles ]
;       ai        aj        ak funct           theta             cth
         1         2         3     1      131.376190      795.605387    ;  uncertainty theta = 0.007064, k = 0.173884
         1         2         4     1      115.048927      363.380234    ;  uncertainty theta = 0.014201, k = 0.277151
         2         4         5     1      115.942551      349.159863    ;  uncertainty theta = 0.022191, k = 0.300890
         2         4        12     1      124.755905      298.421489    ;  uncertainty theta = 0.013353, k = 0.226681
         3         2         4     1      115.048927      363.380234    ;  uncertainty theta = 0.014201, k = 0.277151
         4         5         6     1       90.639748     1133.688177    ;  uncertainty theta = 0.006477, k = 0.151027
         4        12        11     1      114.329857      619.979663    ;  uncertainty theta = 0.006624, k = 0.099229
         4        12        13     1      122.525330      362.176574    ;  uncertainty theta = 0.006786, k = 0.143162
         5         4        12     1      114.628075      505.801172    ;  uncertainty theta = 0.005761, k = 0.382667
         5         6         7     1      126.540527      347.287673    ;  uncertainty theta = 0.004332, k = 0.288614
         5         6        11     1      111.175804      461.964425    ;  uncertainty theta = 0.002708, k = 0.300509
         6         7         8     1      120.643593      403.457471    ;  uncertainty theta = 0.003327, k = 0.153471
         6         7        21     1      119.950539      425.639356    ;  uncertainty theta = 0.002226, k = 0.333369
         6        11        10     1      118.207260      420.841667    ;  uncertainty theta = 0.001339, k = 0.222271
         6        11        12     1      113.357559      586.545521    ;  uncertainty theta = 0.007667, k = 0.209622
         7         6        11     1      118.114830      374.822104    ;  uncertainty theta = 0.004594, k = 0.172999
         7         8         9     1      120.195175      503.851765    ;  uncertainty theta = 0.002285, k = 0.086111
         7         8        22     1      120.085350      280.420253    ;  uncertainty theta = 0.001952, k = 0.058294
         8         7        21     1      121.498085      462.034812    ;  uncertainty theta = 0.001414, k = 0.083334
         8         9        10     1      121.591652      524.676607    ;  uncertainty theta = 0.002526, k = 0.027577
         8         9        23     1      119.263672      284.690249    ;  uncertainty theta = 0.000890, k = 0.032363
         9         8        22     1      120.837120      282.183016    ;  uncertainty theta = 0.001472, k = 0.034986
         9        10        11     1      119.037247      541.003024    ;  uncertainty theta = 0.005157, k = 0.138116
         9        10        24     1      120.739891      287.657055    ;  uncertainty theta = 0.002008, k = 0.024077
        10         9        23     1      120.043480      287.837187    ;  uncertainty theta = 0.002170, k = 0.023274
        10        11        12     1      127.251480      380.587872    ;  uncertainty theta = 0.006415, k = 0.154730
        11        10        24     1      120.723061      274.785937    ;  uncertainty theta = 0.002164, k = 0.089614
        11        12        13     1      121.787743      374.281260    ;  uncertainty theta = 0.007675, k = 0.197323
        12        13        14     1      111.366188      540.244380    ;  uncertainty theta = 0.005047, k = 0.073111
        12        13        25     1      106.672928      402.508448    ;  uncertainty theta = 0.002452, k = 0.081998
        12        13        26     1      106.672928      402.508448    ;  uncertainty theta = 0.002452, k = 0.081998
        13        14        15     1      109.637352      549.717052    ;  uncertainty theta = 0.002281, k = 0.061173
        13        14        27     1      107.607239      393.541092    ;  uncertainty theta = 0.002929, k = 0.054506
        13        14        28     1      107.607239      393.541092    ;  uncertainty theta = 0.002929, k = 0.054506
        14        13        25     1      107.018509      404.245929    ;  uncertainty theta = 0.001674, k = 0.104735
        14        13        26     1      107.018509      404.245929    ;  uncertainty theta = 0.001674, k = 0.104735
        14        15        16     1      109.019180      593.382827    ;  uncertainty theta = 0.001655, k = 0.038481
        14        15        29     1      109.865097      406.988902    ;  uncertainty theta = 0.001773, k = 0.047659
        14        15        30     1      109.865097      406.988902    ;  uncertainty theta = 0.001773, k = 0.047659
        15        14        27     1      106.775635      398.271076    ;  uncertainty theta = 0.001183, k = 0.026042
        15        14        28     1      106.775635      398.271076    ;  uncertainty theta = 0.001183, k = 0.026042
        15        16        17     1      110.885666      496.686722    ;  uncertainty theta = 0.001423, k = 0.095319
        16        15        29     1      106.960228      431.689001    ;  uncertainty theta = 0.001451, k = 0.023371
        16        15        30     1      106.960228      431.689001    ;  uncertainty theta = 0.001451, k = 0.023371
        16        17        20     1      120.880371      437.394055    ;  uncertainty theta = 0.002970, k = 0.200699
        16        17        33     1      116.489357      458.690472    ;  uncertainty theta = 0.005226, k = 0.228959
        17        20        19     1      120.722633      518.175976    ;  uncertainty theta = 0.002195, k = 0.141477
        17        20        31     1      118.073547      268.457585    ;  uncertainty theta = 0.004557, k = 0.050619
        17        33        32     1      117.886742      446.079992    ;  uncertainty theta = 0.004650, k = 0.148889
        17        33        34     1      121.055542      434.027434    ;  uncertainty theta = 0.002581, k = 0.247580
        18        19        20     1      120.807838      514.806993    ;  uncertainty theta = 0.001881, k = 0.085063
        18        19        42     1      119.944664      287.263017    ;  uncertainty theta = 0.001380, k = 0.039752
        18        32        33     1      119.359840      455.161627    ;  uncertainty theta = 0.004738, k = 0.151466
        18        32        37     1      123.340538      467.533750    ;  uncertainty theta = 0.002575, k = 0.078913
        19        18        32     1      119.297020      530.734680    ;  uncertainty theta = 0.001581, k = 0.054548
        19        18        43     1      121.059166      288.732837    ;  uncertainty theta = 0.001304, k = 0.052632
        19        20        31     1      120.640709      288.788285    ;  uncertainty theta = 0.002480, k = 0.056035
        20        17        33     1      123.092026      415.535439    ;  uncertainty theta = 0.003571, k = 0.180852
        20        19        42     1      119.891098      282.551420    ;  uncertainty theta = 0.001723, k = 0.073948
        25        13        26     1      104.818787      314.859343    ;  uncertainty theta = 0.004257, k = 0.083857
        27        14        28     1      105.151428      317.628938    ;  uncertainty theta = 0.002395, k = 0.027901
        29        15        30     1      107.557716      332.505071    ;  uncertainty theta = 0.001738, k = 0.040091
        32        18        43     1      119.503296      276.877490    ;  uncertainty theta = 0.002196, k = 0.043077
        32        33        34     1      119.544357      455.792106    ;  uncertainty theta = 0.003353, k = 0.075921
        32        37        36     1      120.307373      540.568191    ;  uncertainty theta = 0.001705, k = 0.049107
        32        37        41     1      119.335144      278.316857    ;  uncertainty theta = 0.002520, k = 0.045302
        33        32        37     1      118.325851      453.057369    ;  uncertainty theta = 0.003579, k = 0.122749
        33        34        35     1      120.765099      522.188016    ;  uncertainty theta = 0.000878, k = 0.092445
        33        34        38     1      118.487877      261.075988    ;  uncertainty theta = 0.001939, k = 0.118010
        34        35        36     1      120.327049      530.332311    ;  uncertainty theta = 0.001259, k = 0.030035
        34        35        39     1      119.709885      291.029485    ;  uncertainty theta = 0.000552, k = 0.039936
        35        34        38     1      120.799538      286.723609    ;  uncertainty theta = 0.001427, k = 0.049122
        35        36        37     1      119.492630      527.209378    ;  uncertainty theta = 0.001081, k = 0.017885
        35        36        40     1      120.342430      288.088664    ;  uncertainty theta = 0.001400, k = 0.008231
        36        35        39     1      120.521278      289.271128    ;  uncertainty theta = 0.001411, k = 0.008024
        36        37        41     1      120.925461      287.525826    ;  uncertainty theta = 0.001171, k = 0.023439
        37        36        40     1      119.773727      289.592799    ;  uncertainty theta = 0.001086, k = 0.026821

[ dihedrals ] ; propers for gromacs 4.5 or higher, use funct 9
;       ai        aj        ak        al funct           phase               k        pn
         1         2         4         5     9        0.000000       -0.048949         1    ;  uncertainty k = 1.102876
         1         2         4         5     9      180.000000        4.509061         2    ;  uncertainty k = 0.245882
         1         2         4         5     9        0.000000        0.064795         3    ;  uncertainty k = 0.342797
         1         2         4         5     9      180.000000        0.249087         4    ;  uncertainty k = 0.097864
         1         2         4        12     9        0.000000        0.937344         1    ;  uncertainty k = 1.464448
         1         2         4        12     9      180.000000        2.682677         2    ;  uncertainty k = 0.286055
         1         2         4        12     9        0.000000        0.255458         3    ;  uncertainty k = 0.431948
         1         2         4        12     9      180.000000        0.170069         4    ;  uncertainty k = 0.091696
         2         4         5         6     9        0.000000       -0.506326         1    ;  uncertainty k = 1.387807
         2         4         5         6     9      180.000000        8.062305         2    ;  uncertainty k = 0.856652
         2         4         5         6     9        0.000000        0.445989         3    ;  uncertainty k = 0.578809
         2         4         5         6     9      180.000000        0.421347         4    ;  uncertainty k = 0.369439
         2         4        12        11     9        0.000000        0.229069         1    ;  uncertainty k = 1.098099
         2         4        12        11     9      180.000000       12.582064         2    ;  uncertainty k = 0.287106
         2         4        12        11     9        0.000000        2.025512         3    ;  uncertainty k = 0.470258
         2         4        12        11     9      180.000000        0.913959         4    ;  uncertainty k = 0.277353
         2         4        12        13     9        0.000000        0.484227         1    ;  uncertainty k = 1.080985
         2         4        12        13     9      180.000000       11.516495         2    ;  uncertainty k = 0.633087
         2         4        12        13     9        0.000000        1.388466         3    ;  uncertainty k = 0.419808
         2         4        12        13     9      180.000000        0.676590         4    ;  uncertainty k = 0.250399
         3         2         4         5     9        0.000000       -0.048949         1    ;  uncertainty k = 1.102876
         3         2         4         5     9      180.000000        4.509061         2    ;  uncertainty k = 0.245882
         3         2         4         5     9        0.000000        0.064795         3    ;  uncertainty k = 0.342797
         3         2         4         5     9      180.000000        0.249087         4    ;  uncertainty k = 0.097864
         3         2         4        12     9        0.000000        0.937344         1    ;  uncertainty k = 1.464448
         3         2         4        12     9      180.000000        2.682677         2    ;  uncertainty k = 0.286055
         3         2         4        12     9        0.000000        0.255458         3    ;  uncertainty k = 0.431948
         3         2         4        12     9      180.000000        0.170069         4    ;  uncertainty k = 0.091696
         4         5         6         7     9        0.000000        0.070312         1    ;  uncertainty k = 0.963203
         4         5         6         7     9      180.000000        6.734987         2    ;  uncertainty k = 1.246061
         4         5         6         7     9        0.000000        0.993246         3    ;  uncertainty k = 0.729220
         4         5         6         7     9      180.000000        0.593965         4    ;  uncertainty k = 0.355683
         4         5         6        11     9        0.000000       -1.399910         1    ;  uncertainty k = 1.241802
         4         5         6        11     9      180.000000       15.264602         2    ;  uncertainty k = 0.942483
         4         5         6        11     9        0.000000       -5.638946         3    ;  uncertainty k = 0.693758
         4         5         6        11     9      180.000000        0.350899         4    ;  uncertainty k = 0.829682
         4        12        11         6     9        0.000000       -0.311272         1    ;  uncertainty k = 0.419217
         4        12        11         6     9      180.000000       11.013490         2    ;  uncertainty k = 0.575528
         4        12        11         6     9        0.000000       -4.720686         3    ;  uncertainty k = 1.456865
         4        12        11         6     9      180.000000        1.459854         4    ;  uncertainty k = 0.381103
         4        12        11        10     9        0.000000       -0.412215         1    ;  uncertainty k = 0.810266
         4        12        11        10     9      180.000000        6.302699         2    ;  uncertainty k = 0.424585
         4        12        11        10     9        0.000000        0.606112         3    ;  uncertainty k = 0.426940
         4        12        11        10     9      180.000000        0.706627         4    ;  uncertainty k = 0.111377
         4        12        13        14     9        0.000000       -0.079381         1    ;  uncertainty k = 0.963089
         4        12        13        14     9      180.000000        2.434268         2    ;  uncertainty k = 0.653267
         4        12        13        14     9        0.000000        0.097934         3    ;  uncertainty k = 0.411931
         4        12        13        14     9      180.000000        0.132894         4    ;  uncertainty k = 0.172795
         4        12        13        25     9        0.000000        1.952009         1    ;  uncertainty k = 0.593472
         4        12        13        25     9      180.000000        3.239144         2    ;  uncertainty k = 0.423785
         4        12        13        25     9        0.000000       -0.014319         3    ;  uncertainty k = 0.170334
         4        12        13        25     9      180.000000        0.249712         4    ;  uncertainty k = 0.069291
         4        12        13        26     9        0.000000        1.952009         1    ;  uncertainty k = 0.593472
         4        12        13        26     9      180.000000        3.239144         2    ;  uncertainty k = 0.423785
         4        12        13        26     9        0.000000       -0.014319         3    ;  uncertainty k = 0.170334
         4        12        13        26     9      180.000000        0.249712         4    ;  uncertainty k = 0.069291
         5         4        12        11     9        0.000000       -0.431297         1    ;  uncertainty k = 0.776022
         5         4        12        11     9      180.000000       17.595771         2    ;  uncertainty k = 0.521431
         5         4        12        11     9        0.000000       -0.928673         3    ;  uncertainty k = 1.148090
         5         4        12        11     9      180.000000        0.976651         4    ;  uncertainty k = 0.366216
         5         4        12        13     9        0.000000        0.172793         1    ;  uncertainty k = 0.286252
         5         4        12        13     9      180.000000       15.899329         2    ;  uncertainty k = 0.400479
         5         4        12        13     9        0.000000        1.904876         3    ;  uncertainty k = 0.240317
         5         4        12        13     9      180.000000        0.992637         4    ;  uncertainty k = 0.224722
         5         6         7         8     9        0.000000        0.322086         1    ;  uncertainty k = 0.788485
         5         6         7         8     9      180.000000        6.517090         2    ;  uncertainty k = 0.939500
         5         6         7         8     9        0.000000        1.013051         3    ;  uncertainty k = 0.309497
         5         6         7         8     9      180.000000        1.169618         4    ;  uncertainty k = 0.415565
         5         6         7        21     9        0.000000       -0.186337         1    ;  uncertainty k = 0.356476
         5         6         7        21     9      180.000000        5.919654         2    ;  uncertainty k = 0.427336
         5         6         7        21     9        0.000000        1.195798         3    ;  uncertainty k = 0.311146
         5         6         7        21     9      180.000000        1.082408         4    ;  uncertainty k = 0.216472
         5         6        11        10     9        0.000000        0.165382         1    ;  uncertainty k = 0.481963
         5         6        11        10     9      180.000000        7.878022         2    ;  uncertainty k = 0.322627
         5         6        11        10     9        0.000000        0.501710         3    ;  uncertainty k = 0.294451
         5         6        11        10     9      180.000000        1.246135         4    ;  uncertainty k = 0.190092
         5         6        11        12     9        0.000000        0.034826         1    ;  uncertainty k = 0.512551
         5         6        11        12     9      180.000000       10.469423         2    ;  uncertainty k = 0.667656
         5         6        11        12     9        0.000000       -1.390229         3    ;  uncertainty k = 0.650544
         5         6        11        12     9      180.000000        1.286713         4    ;  uncertainty k = 0.542013
         6         5         4        12     9        0.000000       -0.388564         1    ;  uncertainty k = 0.783285
         6         5         4        12     9      180.000000       12.533066         2    ;  uncertainty k = 0.445153
         6         5         4        12     9        0.000000       -5.198690         3    ;  uncertainty k = 1.835228
         6         5         4        12     9      180.000000        1.428957         4    ;  uncertainty k = 0.278578
         6         7         8         9     9        0.000000        0.010740         1    ;  uncertainty k = 0.327956
         6         7         8         9     9      180.000000       12.625872         2    ;  uncertainty k = 0.375789
         6         7         8         9     9        0.000000        0.080416         3    ;  uncertainty k = 0.671571
         6         7         8         9     9      180.000000        0.946932         4    ;  uncertainty k = 0.444259
         6         7         8        22     9        0.000000        0.035555         1    ;  uncertainty k = 0.439595
         6         7         8        22     9      180.000000        8.481290         2    ;  uncertainty k = 0.283872
         6         7         8        22     9        0.000000        1.326457         3    ;  uncertainty k = 0.351124
         6         7         8        22     9      180.000000        1.377588         4    ;  uncertainty k = 0.112856
         6        11        10         9     9        0.000000        0.177287         1    ;  uncertainty k = 0.347371
         6        11        10         9     9      180.000000       14.057631         2    ;  uncertainty k = 0.311204
         6        11        10         9     9        0.000000       -1.268067         3    ;  uncertainty k = 0.553907
         6        11        10         9     9      180.000000        0.602491         4    ;  uncertainty k = 0.350433
         6        11        10        24     9        0.000000        0.056504         1    ;  uncertainty k = 0.160668
         6        11        10        24     9      180.000000        7.194574         2    ;  uncertainty k = 0.422545
         6        11        10        24     9        0.000000        1.260497         3    ;  uncertainty k = 0.331355
         6        11        10        24     9      180.000000        1.382290         4    ;  uncertainty k = 0.220657
         6        11        12        13     9        0.000000        0.806622         1    ;  uncertainty k = 1.261036
         6        11        12        13     9      180.000000       10.463928         2    ;  uncertainty k = 0.562814
         6        11        12        13     9        0.000000        1.430220         3    ;  uncertainty k = 0.327391
         6        11        12        13     9      180.000000        0.271358         4    ;  uncertainty k = 0.377636
         7         6        11        10     9        0.000000       -0.308930         1    ;  uncertainty k = 0.155786
         7         6        11        10     9      180.000000        8.450291         2    ;  uncertainty k = 0.532828
         7         6        11        10     9        0.000000        0.221327         3    ;  uncertainty k = 0.313905
         7         6        11        10     9      180.000000        1.127501         4    ;  uncertainty k = 0.184555
         7         6        11        12     9        0.000000       -0.445507         1    ;  uncertainty k = 0.782835
         7         6        11        12     9      180.000000        7.886013         2    ;  uncertainty k = 0.782661
         7         6        11        12     9        0.000000        0.359352         3    ;  uncertainty k = 0.190383
         7         6        11        12     9      180.000000        1.243000         4    ;  uncertainty k = 0.182898
         7         8         9        10     9        0.000000       -0.092365         1    ;  uncertainty k = 0.144251
         7         8         9        10     9      180.000000       12.875231         2    ;  uncertainty k = 0.313162
         7         8         9        10     9        0.000000       -0.921870         3    ;  uncertainty k = 0.734454
         7         8         9        10     9      180.000000        0.764162         4    ;  uncertainty k = 0.198798
         7         8         9        23     9        0.000000        0.012929         1    ;  uncertainty k = 0.129673
         7         8         9        23     9      180.000000        7.073419         2    ;  uncertainty k = 0.381367
         7         8         9        23     9        0.000000        1.453704         3    ;  uncertainty k = 0.302936
         7         8         9        23     9      180.000000        1.699322         4    ;  uncertainty k = 0.089524
         8         7         6        11     9        0.000000       -0.295932         1    ;  uncertainty k = 0.399012
         8         7         6        11     9      180.000000        8.682950         2    ;  uncertainty k = 0.468700
         8         7         6        11     9        0.000000       -0.291556         3    ;  uncertainty k = 0.275498
         8         7         6        11     9      180.000000        1.067289         4    ;  uncertainty k = 0.201450
         8         9        10        11     9        0.000000        0.102403         1    ;  uncertainty k = 0.420428
         8         9        10        11     9      180.000000       16.321531         2    ;  uncertainty k = 0.233012
         8         9        10        11     9        0.000000       -0.491665         3    ;  uncertainty k = 0.331885
         8         9        10        11     9      180.000000        0.652567         4    ;  uncertainty k = 0.335521
         8         9        10        24     9        0.000000        0.118280         1    ;  uncertainty k = 0.092412
         8         9        10        24     9      180.000000        8.686783         2    ;  uncertainty k = 0.421367
         8         9        10        24     9        0.000000        1.491240         3    ;  uncertainty k = 0.251144
         8         9        10        24     9      180.000000        1.901620         4    ;  uncertainty k = 0.248061
         9         8         7        21     9        0.000000       -0.123756         1    ;  uncertainty k = 0.302699
         9         8         7        21     9      180.000000       10.872601         2    ;  uncertainty k = 0.538422
         9         8         7        21     9        0.000000        1.595481         3    ;  uncertainty k = 0.355773
         9         8         7        21     9      180.000000        1.645641         4    ;  uncertainty k = 0.237884
         9        10        11        12     9        0.000000        0.287295         1    ;  uncertainty k = 0.463806
         9        10        11        12     9      180.000000        9.266919         2    ;  uncertainty k = 0.447984
         9        10        11        12     9        0.000000        0.616735         3    ;  uncertainty k = 0.298027
         9        10        11        12     9      180.000000        1.306956         4    ;  uncertainty k = 0.101406
        10         9         8        22     9        0.000000        0.066430         1    ;  uncertainty k = 0.242828
        10         9         8        22     9      180.000000        6.968220         2    ;  uncertainty k = 0.340123
        10         9         8        22     9        0.000000        1.418853         3    ;  uncertainty k = 0.233365
        10         9         8        22     9      180.000000        1.631665         4    ;  uncertainty k = 0.165943
        10        11        12        13     9        0.000000       -0.066232         1    ;  uncertainty k = 0.800581
        10        11        12        13     9      180.000000        6.934267         2    ;  uncertainty k = 0.744557
        10        11        12        13     9        0.000000        1.500603         3    ;  uncertainty k = 0.453602
        10        11        12        13     9      180.000000        0.267017         4    ;  uncertainty k = 0.275775
        11         6         7        21     9        0.000000       -0.040991         1    ;  uncertainty k = 0.378705
        11         6         7        21     9      180.000000        7.299847         2    ;  uncertainty k = 0.501607
        11         6         7        21     9        0.000000        1.346803         3    ;  uncertainty k = 0.219673
        11         6         7        21     9      180.000000        1.279394         4    ;  uncertainty k = 0.325100
        11        10         9        23     9        0.000000        0.141246         1    ;  uncertainty k = 0.361930
        11        10         9        23     9      180.000000       10.242016         2    ;  uncertainty k = 0.266127
        11        10         9        23     9        0.000000        1.527863         3    ;  uncertainty k = 0.298321
        11        10         9        23     9      180.000000        1.721654         4    ;  uncertainty k = 0.230549
        11        12        13        14     9        0.000000       -0.826868         1    ;  uncertainty k = 1.016220
        11        12        13        14     9      180.000000        1.696665         2    ;  uncertainty k = 0.454844
        11        12        13        14     9        0.000000        0.541831         3    ;  uncertainty k = 0.227678
        11        12        13        14     9      180.000000        0.164146         4    ;  uncertainty k = 0.074082
        11        12        13        25     9        0.000000       -0.675099         1    ;  uncertainty k = 0.517407
        11        12        13        25     9      180.000000        2.494786         2    ;  uncertainty k = 0.186666
        11        12        13        25     9        0.000000        0.765711         3    ;  uncertainty k = 0.091480
        11        12        13        25     9      180.000000        0.287019         4    ;  uncertainty k = 0.061332
        11        12        13        26     9        0.000000       -0.675099         1    ;  uncertainty k = 0.517407
        11        12        13        26     9      180.000000        2.494786         2    ;  uncertainty k = 0.186666
        11        12        13        26     9        0.000000        0.765711         3    ;  uncertainty k = 0.091480
        11        12        13        26     9      180.000000        0.287019         4    ;  uncertainty k = 0.061332
        12        11        10        24     9        0.000000        0.427127         1    ;  uncertainty k = 0.623793
        12        11        10        24     9      180.000000        6.166755         2    ;  uncertainty k = 0.544514
        12        11        10        24     9        0.000000        1.284381         3    ;  uncertainty k = 0.264511
        12        11        10        24     9      180.000000        1.055287         4    ;  uncertainty k = 0.228971
        12        13        14        15     9        0.000000       -2.676362         1    ;  uncertainty k = 0.844432
        12        13        14        15     9      180.000000       -0.566004         2    ;  uncertainty k = 0.479172
        12        13        14        15     9        0.000000        1.282989         3    ;  uncertainty k = 0.195857
        12        13        14        15     9      180.000000       -0.224580         4    ;  uncertainty k = 0.100777
        12        13        14        27     9        0.000000        0.744060         1    ;  uncertainty k = 0.356049
        12        13        14        27     9      180.000000       -0.712199         2    ;  uncertainty k = 0.427718
        12        13        14        27     9        0.000000        1.178698         3    ;  uncertainty k = 0.152134
        12        13        14        27     9      180.000000        0.000342         4    ;  uncertainty k = 0.049964
        12        13        14        28     9        0.000000        0.744060         1    ;  uncertainty k = 0.356049
        12        13        14        28     9      180.000000       -0.712199         2    ;  uncertainty k = 0.427718
        12        13        14        28     9        0.000000        1.178698         3    ;  uncertainty k = 0.152134
        12        13        14        28     9      180.000000        0.000342         4    ;  uncertainty k = 0.049964
        13        14        15        16     9        0.000000       -3.885216         1    ;  uncertainty k = 0.858790
        13        14        15        16     9      180.000000       -2.533142         2    ;  uncertainty k = 0.577325
        13        14        15        16     9        0.000000        2.162336         3    ;  uncertainty k = 0.320220
        13        14        15        16     9      180.000000       -0.484478         4    ;  uncertainty k = 0.128367
        13        14        15        29     9        0.000000       -1.844576         1    ;  uncertainty k = 0.477926
        13        14        15        29     9      180.000000        0.003613         2    ;  uncertainty k = 0.200065
        13        14        15        29     9        0.000000        0.948355         3    ;  uncertainty k = 0.042058
        13        14        15        29     9      180.000000       -0.337956         4    ;  uncertainty k = 0.110810
        13        14        15        30     9        0.000000       -1.844576         1    ;  uncertainty k = 0.477926
        13        14        15        30     9      180.000000        0.003613         2    ;  uncertainty k = 0.200065
        13        14        15        30     9        0.000000        0.948355         3    ;  uncertainty k = 0.042058
        13        14        15        30     9      180.000000       -0.337956         4    ;  uncertainty k = 0.110810
        14        15        16        17     9        0.000000       -0.828140         1    ;  uncertainty k = 0.928296
        14        15        16        17     9      180.000000       -0.377729         2    ;  uncertainty k = 0.304749
        14        15        16        17     9        0.000000        0.711101         3    ;  uncertainty k = 0.056072
        14        15        16        17     9      180.000000        0.508289         4    ;  uncertainty k = 0.049734
        15        14        13        25     9        0.000000       -1.700127         1    ;  uncertainty k = 0.357123
        15        14        13        25     9      180.000000       -0.560980         2    ;  uncertainty k = 0.191939
        15        14        13        25     9        0.000000        0.879534         3    ;  uncertainty k = 0.108869
        15        14        13        25     9      180.000000       -0.350679         4    ;  uncertainty k = 0.058199
        15        14        13        26     9        0.000000       -1.700127         1    ;  uncertainty k = 0.357123
        15        14        13        26     9      180.000000       -0.560980         2    ;  uncertainty k = 0.191939
        15        14        13        26     9        0.000000        0.879534         3    ;  uncertainty k = 0.108869
        15        14        13        26     9      180.000000       -0.350679         4    ;  uncertainty k = 0.058199
        15        16        17        20     9        0.000000        2.771473         1    ;  uncertainty k = 0.664062
        15        16        17        20     9      180.000000        7.058895         2    ;  uncertainty k = 0.050152
        15        16        17        20     9        0.000000        0.255365         3    ;  uncertainty k = 0.197562
        15        16        17        20     9      180.000000        0.108218         4    ;  uncertainty k = 0.093441
        15        16        17        33     9        0.000000        0.355527         1    ;  uncertainty k = 0.512070
        15        16        17        33     9      180.000000        6.877661         2    ;  uncertainty k = 0.167219
        15        16        17        33     9        0.000000        0.288506         3    ;  uncertainty k = 0.286217
        15        16        17        33     9      180.000000        0.282278         4    ;  uncertainty k = 0.092117
        16        15        14        27     9        0.000000        0.326423         1    ;  uncertainty k = 0.509567
        16        15        14        27     9      180.000000       -2.238227         2    ;  uncertainty k = 0.331665
        16        15        14        27     9        0.000000        1.402376         3    ;  uncertainty k = 0.126932
        16        15        14        27     9      180.000000        0.032887         4    ;  uncertainty k = 0.060552
        16        15        14        28     9        0.000000        0.326423         1    ;  uncertainty k = 0.509567
        16        15        14        28     9      180.000000       -2.238227         2    ;  uncertainty k = 0.331665
        16        15        14        28     9        0.000000        1.402376         3    ;  uncertainty k = 0.126932
        16        15        14        28     9      180.000000        0.032887         4    ;  uncertainty k = 0.060552
        16        17        20        19     9        0.000000        0.075865         1    ;  uncertainty k = 0.261988
        16        17        20        19     9      180.000000       13.527380         2    ;  uncertainty k = 0.350832
        16        17        20        19     9        0.000000        1.302846         3    ;  uncertainty k = 0.248461
        16        17        20        19     9      180.000000        1.573148         4    ;  uncertainty k = 0.228848
        16        17        20        31     9        0.000000       -0.183857         1    ;  uncertainty k = 0.238167
        16        17        20        31     9      180.000000       10.497921         2    ;  uncertainty k = 0.651179
        16        17        20        31     9        0.000000        0.910160         3    ;  uncertainty k = 0.112595
        16        17        20        31     9      180.000000        1.240318         4    ;  uncertainty k = 0.494985
        16        17        33        32     9        0.000000        0.137851         1    ;  uncertainty k = 0.298693
        16        17        33        32     9      180.000000        9.678081         2    ;  uncertainty k = 0.190325
        16        17        33        32     9        0.000000        1.155273         3    ;  uncertainty k = 0.179630
        16        17        33        32     9      180.000000        1.490570         4    ;  uncertainty k = 0.231045
        16        17        33        34     9        0.000000        0.181835         1    ;  uncertainty k = 0.443367
        16        17        33        34     9      180.000000        9.773730         2    ;  uncertainty k = 0.205658
        16        17        33        34     9        0.000000        1.079929         3    ;  uncertainty k = 0.299362
        16        17        33        34     9      180.000000        1.468690         4    ;  uncertainty k = 0.362094
        17        16        15        29     9        0.000000        0.906563         1    ;  uncertainty k = 0.666674
        17        16        15        29     9      180.000000       -1.280777         2    ;  uncertainty k = 0.127342
        17        16        15        29     9        0.000000        0.652214         3    ;  uncertainty k = 0.091067
        17        16        15        29     9      180.000000        0.249136         4    ;  uncertainty k = 0.049477
        17        16        15        30     9        0.000000        0.906563         1    ;  uncertainty k = 0.666674
        17        16        15        30     9      180.000000       -1.280777         2    ;  uncertainty k = 0.127342
        17        16        15        30     9        0.000000        0.652214         3    ;  uncertainty k = 0.091067
        17        16        15        30     9      180.000000        0.249136         4    ;  uncertainty k = 0.049477
        17        20        19        18     9        0.000000       -0.223631         1    ;  uncertainty k = 0.257928
        17        20        19        18     9      180.000000       11.307064         2    ;  uncertainty k = 0.442432
        17        20        19        18     9        0.000000       -0.668154         3    ;  uncertainty k = 0.466698
        17        20        19        18     9      180.000000        0.877377         4    ;  uncertainty k = 0.187087
        17        20        19        42     9        0.000000       -0.081235         1    ;  uncertainty k = 0.183357
        17        20        19        42     9      180.000000        6.743737         2    ;  uncertainty k = 0.496825
        17        20        19        42     9        0.000000        1.288673         3    ;  uncertainty k = 0.275168
        17        20        19        42     9      180.000000        1.502547         4    ;  uncertainty k = 0.163670
        17        33        32        18     9        0.000000       -0.354612         1    ;  uncertainty k = 0.441142
        17        33        32        18     9      180.000000        6.627677         2    ;  uncertainty k = 0.497580
        17        33        32        18     9        0.000000        0.570882         3    ;  uncertainty k = 0.281133
        17        33        32        18     9      180.000000        1.486656         4    ;  uncertainty k = 0.229164
        17        33        32        37     9        0.000000       -0.333444         1    ;  uncertainty k = 0.417730
        17        33        32        37     9      180.000000        6.674444         2    ;  uncertainty k = 0.525750
        17        33        32        37     9        0.000000        0.560817         3    ;  uncertainty k = 0.275597
        17        33        32        37     9      180.000000        1.487407         4    ;  uncertainty k = 0.230347
        17        33        34        35     9        0.000000       -0.090356         1    ;  uncertainty k = 0.314127
        17        33        34        35     9      180.000000        9.233646         2    ;  uncertainty k = 0.235239
        17        33        34        35     9        0.000000        0.518619         3    ;  uncertainty k = 0.351539
        17        33        34        35     9      180.000000        1.357479         4    ;  uncertainty k = 0.109332
        17        33        34        38     9        0.000000       -0.151722         1    ;  uncertainty k = 0.278712
        17        33        34        38     9      180.000000        7.373249         2    ;  uncertainty k = 0.245707
        17        33        34        38     9        0.000000        1.290525         3    ;  uncertainty k = 0.176006
        17        33        34        38     9      180.000000        1.073830         4    ;  uncertainty k = 0.224703
        18        19        20        31     9        0.000000        0.180055         1    ;  uncertainty k = 0.478737
        18        19        20        31     9      180.000000        6.645621         2    ;  uncertainty k = 0.498611
        18        19        20        31     9        0.000000        1.364349         3    ;  uncertainty k = 0.345747
        18        19        20        31     9      180.000000        1.577532         4    ;  uncertainty k = 0.120520
        18        32        33        34     9        0.000000       -0.140075         1    ;  uncertainty k = 0.210171
        18        32        33        34     9      180.000000        6.924781         2    ;  uncertainty k = 0.423549
        18        32        33        34     9        0.000000        0.489571         3    ;  uncertainty k = 0.287980
        18        32        33        34     9      180.000000        1.460854         4    ;  uncertainty k = 0.218107
        18        32        37        36     9        0.000000       -0.176860         1    ;  uncertainty k = 0.439986
        18        32        37        36     9      180.000000        9.129413         2    ;  uncertainty k = 0.290008
        18        32        37        36     9        0.000000        0.364802         3    ;  uncertainty k = 0.321106
        18        32        37        36     9      180.000000        1.403096         4    ;  uncertainty k = 0.121695
        18        32        37        41     9        0.000000       -0.143798         1    ;  uncertainty k = 0.191240
        18        32        37        41     9      180.000000        6.459295         2    ;  uncertainty k = 0.452159
        18        32        37        41     9        0.000000        1.216640         3    ;  uncertainty k = 0.236253
        18        32        37        41     9      180.000000        1.159689         4    ;  uncertainty k = 0.126546
        19        18        32        33     9        0.000000       -0.094439         1    ;  uncertainty k = 0.389134
        19        18        32        33     9      180.000000       10.589316         2    ;  uncertainty k = 0.414391
        19        18        32        33     9        0.000000       -0.430098         3    ;  uncertainty k = 0.276932
        19        18        32        33     9      180.000000        1.070594         4    ;  uncertainty k = 0.171417
        19        18        32        37     9        0.000000       -0.276027         1    ;  uncertainty k = 0.565350
        19        18        32        37     9      180.000000        9.588580         2    ;  uncertainty k = 0.246596
        19        18        32        37     9        0.000000        0.308300         3    ;  uncertainty k = 0.228404
        19        18        32        37     9      180.000000        1.362272         4    ;  uncertainty k = 0.116932
        19        20        17        33     9        0.000000        0.083265         1    ;  uncertainty k = 0.257141
        19        20        17        33     9      180.000000       10.592162         2    ;  uncertainty k = 0.402398
        19        20        17        33     9        0.000000        0.424006         3    ;  uncertainty k = 0.354509
        19        20        17        33     9      180.000000        1.276309         4    ;  uncertainty k = 0.185277
        20        17        33        32     9        0.000000        0.341386         1    ;  uncertainty k = 0.588410
        20        17        33        32     9      180.000000        6.653229         2    ;  uncertainty k = 1.041476
        20        17        33        32     9        0.000000        0.291478         3    ;  uncertainty k = 0.164533
        20        17        33        32     9      180.000000        1.295455         4    ;  uncertainty k = 0.299561
        20        17        33        34     9        0.000000        0.182473         1    ;  uncertainty k = 0.489549
        20        17        33        34     9      180.000000        5.891527         2    ;  uncertainty k = 0.554824
        20        17        33        34     9        0.000000        0.582084         3    ;  uncertainty k = 0.517845
        20        17        33        34     9      180.000000        1.413616         4    ;  uncertainty k = 0.214656
        20        19        18        32     9        0.000000       -0.003248         1    ;  uncertainty k = 0.352723
        20        19        18        32     9      180.000000       16.271674         2    ;  uncertainty k = 0.152542
        20        19        18        32     9        0.000000       -0.538125         3    ;  uncertainty k = 0.324107
        20        19        18        32     9      180.000000        0.816524         4    ;  uncertainty k = 0.225103
        20        19        18        43     9        0.000000        0.270961         1    ;  uncertainty k = 0.164485
        20        19        18        43     9      180.000000        9.525203         2    ;  uncertainty k = 0.455421
        20        19        18        43     9        0.000000        1.463322         3    ;  uncertainty k = 0.357621
        20        19        18        43     9      180.000000        1.921880         4    ;  uncertainty k = 0.253112
        21         7         8        22     9        0.000000       -0.202990         1    ;  uncertainty k = 0.374133
        21         7         8        22     9      180.000000        8.176703         2    ;  uncertainty k = 0.461242
        21         7         8        22     9        0.000000        0.714384         3    ;  uncertainty k = 0.372261
        21         7         8        22     9      180.000000        0.987022         4    ;  uncertainty k = 0.291764
        22         8         9        23     9        0.000000       -0.013706         1    ;  uncertainty k = 0.233550
        22         8         9        23     9      180.000000        7.219560         2    ;  uncertainty k = 0.612429
        22         8         9        23     9        0.000000       -0.303565         3    ;  uncertainty k = 0.201589
        22         8         9        23     9      180.000000        0.095970         4    ;  uncertainty k = 0.141774
        23         9        10        24     9        0.000000        0.053308         1    ;  uncertainty k = 0.220899
        23         9        10        24     9      180.000000        8.009918         2    ;  uncertainty k = 0.333981
        23         9        10        24     9        0.000000       -0.301276         3    ;  uncertainty k = 0.257496
        23         9        10        24     9      180.000000        0.136015         4    ;  uncertainty k = 0.161900
        25        13        14        27     9        0.000000        0.851329         1    ;  uncertainty k = 0.173026
        25        13        14        27     9      180.000000       -0.616014         2    ;  uncertainty k = 0.190333
        25        13        14        27     9        0.000000        0.188575         3    ;  uncertainty k = 0.045675
        25        13        14        27     9      180.000000        0.012528         4    ;  uncertainty k = 0.037490
        25        13        14        28     9        0.000000        0.851329         1    ;  uncertainty k = 0.173026
        25        13        14        28     9      180.000000       -0.616014         2    ;  uncertainty k = 0.190333
        25        13        14        28     9        0.000000        0.188575         3    ;  uncertainty k = 0.045675
        25        13        14        28     9      180.000000        0.012528         4    ;  uncertainty k = 0.037490
        26        13        14        27     9        0.000000        0.851329         1    ;  uncertainty k = 0.173026
        26        13        14        27     9      180.000000       -0.616014         2    ;  uncertainty k = 0.190333
        26        13        14        27     9        0.000000        0.188575         3    ;  uncertainty k = 0.045675
        26        13        14        27     9      180.000000        0.012528         4    ;  uncertainty k = 0.037490
        26        13        14        28     9        0.000000        0.851329         1    ;  uncertainty k = 0.173026
        26        13        14        28     9      180.000000       -0.616014         2    ;  uncertainty k = 0.190333
        26        13        14        28     9        0.000000        0.188575         3    ;  uncertainty k = 0.045675
        26        13        14        28     9      180.000000        0.012528         4    ;  uncertainty k = 0.037490
        27        14        15        29     9        0.000000        0.449397         1    ;  uncertainty k = 0.142721
        27        14        15        29     9      180.000000       -0.416137         2    ;  uncertainty k = 0.150196
        27        14        15        29     9        0.000000        0.103958         3    ;  uncertainty k = 0.090841
        27        14        15        29     9      180.000000       -0.039751         4    ;  uncertainty k = 0.071452
        27        14        15        30     9        0.000000        0.449397         1    ;  uncertainty k = 0.142721
        27        14        15        30     9      180.000000       -0.416137         2    ;  uncertainty k = 0.150196
        27        14        15        30     9        0.000000        0.103958         3    ;  uncertainty k = 0.090841
        27        14        15        30     9      180.000000       -0.039751         4    ;  uncertainty k = 0.071452
        28        14        15        29     9        0.000000        0.449397         1    ;  uncertainty k = 0.142721
        28        14        15        29     9      180.000000       -0.416137         2    ;  uncertainty k = 0.150196
        28        14        15        29     9        0.000000        0.103958         3    ;  uncertainty k = 0.090841
        28        14        15        29     9      180.000000       -0.039751         4    ;  uncertainty k = 0.071452
        28        14        15        30     9        0.000000        0.449397         1    ;  uncertainty k = 0.142721
        28        14        15        30     9      180.000000       -0.416137         2    ;  uncertainty k = 0.150196
        28        14        15        30     9        0.000000        0.103958         3    ;  uncertainty k = 0.090841
        28        14        15        30     9      180.000000       -0.039751         4    ;  uncertainty k = 0.071452
        31        20        17        33     9        0.000000        0.247996         1    ;  uncertainty k = 0.252535
        31        20        17        33     9      180.000000        7.598394         2    ;  uncertainty k = 0.197360
        31        20        17        33     9        0.000000        1.587497         3    ;  uncertainty k = 0.472589
        31        20        17        33     9      180.000000        1.697154         4    ;  uncertainty k = 0.034873
        31        20        19        42     9        0.000000       -0.202491         1    ;  uncertainty k = 0.263152
        31        20        19        42     9      180.000000        6.607603         2    ;  uncertainty k = 0.535021
        31        20        19        42     9        0.000000       -0.212382         3    ;  uncertainty k = 0.280609
        31        20        19        42     9      180.000000        0.205403         4    ;  uncertainty k = 0.183563
        32        18        19        42     9        0.000000        0.219115         1    ;  uncertainty k = 0.262413
        32        18        19        42     9      180.000000        9.995548         2    ;  uncertainty k = 0.249834
        32        18        19        42     9        0.000000        1.549278         3    ;  uncertainty k = 0.333763
        32        18        19        42     9      180.000000        1.762117         4    ;  uncertainty k = 0.255251
        32        33        34        35     9        0.000000        0.017421         1    ;  uncertainty k = 0.354577
        32        33        34        35     9      180.000000       10.401126         2    ;  uncertainty k = 0.239738
        32        33        34        35     9        0.000000       -0.337474         3    ;  uncertainty k = 0.324755
        32        33        34        35     9      180.000000        1.001847         4    ;  uncertainty k = 0.234457
        32        33        34        38     9        0.000000       -0.119246         1    ;  uncertainty k = 0.467483
        32        33        34        38     9      180.000000        6.774582         2    ;  uncertainty k = 0.660619
        32        33        34        38     9        0.000000        1.318225         3    ;  uncertainty k = 0.239736
        32        33        34        38     9      180.000000        1.274600         4    ;  uncertainty k = 0.138275
        32        37        36        35     9        0.000000       -0.041155         1    ;  uncertainty k = 0.464721
        32        37        36        35     9      180.000000       16.646178         2    ;  uncertainty k = 0.236707
        32        37        36        35     9        0.000000       -0.451885         3    ;  uncertainty k = 0.331121
        32        37        36        35     9      180.000000        0.706935         4    ;  uncertainty k = 0.236869
        32        37        36        40     9        0.000000        0.212062         1    ;  uncertainty k = 0.206454
        32        37        36        40     9      180.000000       10.208086         2    ;  uncertainty k = 0.270698
        32        37        36        40     9        0.000000        1.619069         3    ;  uncertainty k = 0.303974
        32        37        36        40     9      180.000000        1.801727         4    ;  uncertainty k = 0.231078
        33        32        18        43     9        0.000000       -0.047226         1    ;  uncertainty k = 0.304892
        33        32        18        43     9      180.000000        6.147641         2    ;  uncertainty k = 0.655636
        33        32        18        43     9        0.000000        1.285026         3    ;  uncertainty k = 0.284886
        33        32        18        43     9      180.000000        1.285042         4    ;  uncertainty k = 0.099160
        33        32        37        36     9        0.000000        0.030027         1    ;  uncertainty k = 0.266894
        33        32        37        36     9      180.000000       10.240497         2    ;  uncertainty k = 0.364716
        33        32        37        36     9        0.000000       -0.375419         3    ;  uncertainty k = 0.254391
        33        32        37        36     9      180.000000        1.067516         4    ;  uncertainty k = 0.160127
        33        32        37        41     9        0.000000       -0.118336         1    ;  uncertainty k = 0.388301
        33        32        37        41     9      180.000000        6.096992         2    ;  uncertainty k = 0.671235
        33        32        37        41     9        0.000000        1.281084         3    ;  uncertainty k = 0.264897
        33        32        37        41     9      180.000000        1.285825         4    ;  uncertainty k = 0.112008
        33        34        35        36     9        0.000000       -0.046811         1    ;  uncertainty k = 0.562745
        33        34        35        36     9      180.000000       16.009863         2    ;  uncertainty k = 0.260043
        33        34        35        36     9        0.000000       -0.590240         3    ;  uncertainty k = 0.329068
        33        34        35        36     9      180.000000        0.800415         4    ;  uncertainty k = 0.311631
        33        34        35        39     9        0.000000        0.182302         1    ;  uncertainty k = 0.221575
        33        34        35        39     9      180.000000        9.897200         2    ;  uncertainty k = 0.196454
        33        34        35        39     9        0.000000        1.581225         3    ;  uncertainty k = 0.374994
        33        34        35        39     9      180.000000        1.839612         4    ;  uncertainty k = 0.190327
        34        33        32        37     9        0.000000       -0.137549         1    ;  uncertainty k = 0.185615
        34        33        32        37     9      180.000000        6.976041         2    ;  uncertainty k = 0.423269
        34        33        32        37     9        0.000000        0.501176         3    ;  uncertainty k = 0.289879
        34        33        32        37     9      180.000000        1.464276         4    ;  uncertainty k = 0.222078
        34        35        36        37     9        0.000000       -0.135675         1    ;  uncertainty k = 0.161363
        34        35        36        37     9      180.000000       11.686204         2    ;  uncertainty k = 0.423927
        34        35        36        37     9        0.000000       -0.816607         3    ;  uncertainty k = 0.653290
        34        35        36        37     9      180.000000        0.673547         4    ;  uncertainty k = 0.221863
        34        35        36        40     9        0.000000        0.060592         1    ;  uncertainty k = 0.308481
        34        35        36        40     9      180.000000        6.622009         2    ;  uncertainty k = 0.491297
        34        35        36        40     9        0.000000        1.374177         3    ;  uncertainty k = 0.252327
        34        35        36        40     9      180.000000        1.537426         4    ;  uncertainty k = 0.113577
        35        36        37        41     9        0.000000        0.116325         1    ;  uncertainty k = 0.107800
        35        36        37        41     9      180.000000        9.705392         2    ;  uncertainty k = 0.412681
        35        36        37        41     9        0.000000        1.421035         3    ;  uncertainty k = 0.333096
        35        36        37        41     9      180.000000        1.914352         4    ;  uncertainty k = 0.277013
        36        35        34        38     9        0.000000        0.157505         1    ;  uncertainty k = 0.067138
        36        35        34        38     9      180.000000        9.460097         2    ;  uncertainty k = 0.284065
        36        35        34        38     9        0.000000        1.418796         3    ;  uncertainty k = 0.326926
        36        35        34        38     9      180.000000        1.936608         4    ;  uncertainty k = 0.277272
        37        32        18        43     9        0.000000       -0.147493         1    ;  uncertainty k = 0.133406
        37        32        18        43     9      180.000000        6.640372         2    ;  uncertainty k = 0.536223
        37        32        18        43     9        0.000000        1.200128         3    ;  uncertainty k = 0.261787
        37        32        18        43     9      180.000000        1.130046         4    ;  uncertainty k = 0.124856
        37        36        35        39     9        0.000000        0.013599         1    ;  uncertainty k = 0.388907
        37        36        35        39     9      180.000000        6.642468         2    ;  uncertainty k = 0.612274
        37        36        35        39     9        0.000000        1.342414         3    ;  uncertainty k = 0.269419
        37        36        35        39     9      180.000000        1.503843         4    ;  uncertainty k = 0.131189
        38        34        35        39     9        0.000000       -0.053072         1    ;  uncertainty k = 0.319564
        38        34        35        39     9      180.000000        8.718890         2    ;  uncertainty k = 0.426647
        38        34        35        39     9        0.000000       -0.292985         3    ;  uncertainty k = 0.284574
        38        34        35        39     9      180.000000        0.193140         4    ;  uncertainty k = 0.203840
        39        35        36        40     9        0.000000       -0.085302         1    ;  uncertainty k = 0.203880
        39        35        36        40     9      180.000000        6.764739         2    ;  uncertainty k = 0.514631
        39        35        36        40     9        0.000000       -0.229634         3    ;  uncertainty k = 0.303232
        39        35        36        40     9      180.000000        0.117028         4    ;  uncertainty k = 0.134173
        40        36        37        41     9        0.000000        0.042029         1    ;  uncertainty k = 0.219138
        40        36        37        41     9      180.000000        8.809243         2    ;  uncertainty k = 0.369501
        40        36        37        41     9        0.000000       -0.271928         3    ;  uncertainty k = 0.243968
        40        36        37        41     9      180.000000        0.194961         4    ;  uncertainty k = 0.209800
        42        19        18        43     9        0.000000        0.109781         1    ;  uncertainty k = 0.202623
        42        19        18        43     9      180.000000        8.516002         2    ;  uncertainty k = 0.380812
        42        19        18        43     9        0.000000       -0.263391         3    ;  uncertainty k = 0.284889
        42        19        18        43     9      180.000000        0.180741         4    ;  uncertainty k = 0.204186

[ dihedrals ] ; impropers
;       ai        aj        ak        al funct           phase               k        pn
         2         1         3         4     4      180.000000       66.373256         2    ;  uncertainty k = 0.088298
         2         3         4         1     4      180.000000       66.373256         2    ;  uncertainty k = 0.088298
         2         4         1         3     4      180.000000       66.373256         2    ;  uncertainty k = 0.088298
         4         2         5        12     4      180.000000        6.075165         2    ;  uncertainty k = 0.518208
         4         5        12         2     4      180.000000        6.075165         2    ;  uncertainty k = 0.518208
         4        12         2         5     4      180.000000        6.075165         2    ;  uncertainty k = 0.518208
         6         5         7        11     4      180.000000        0.443512         2    ;  uncertainty k = 0.618599
         6         7        11         5     4      180.000000        0.443512         2    ;  uncertainty k = 0.618599
         6        11         5         7     4      180.000000        0.443512         2    ;  uncertainty k = 0.618599
         7         6         8        21     4      180.000000       11.183490         2    ;  uncertainty k = 0.156819
         7         8        21         6     4      180.000000       11.183490         2    ;  uncertainty k = 0.156819
         7        21         6         8     4      180.000000       11.183490         2    ;  uncertainty k = 0.156819
         8         7         9        22     4      180.000000        3.152301         2    ;  uncertainty k = 0.193765
         8         9        22         7     4      180.000000        3.152301         2    ;  uncertainty k = 0.193765
         8        22         7         9     4      180.000000        3.152301         2    ;  uncertainty k = 0.193765
         9         8        10        23     4      180.000000        3.898743         2    ;  uncertainty k = 0.125121
         9        10        23         8     4      180.000000        3.898743         2    ;  uncertainty k = 0.125121
         9        23         8        10     4      180.000000        3.898743         2    ;  uncertainty k = 0.125121
        10         9        11        24     4      180.000000        3.907515         2    ;  uncertainty k = 0.096601
        10        11        24         9     4      180.000000        3.907515         2    ;  uncertainty k = 0.096601
        10        24         9        11     4      180.000000        3.907515         2    ;  uncertainty k = 0.096601
        11         6        10        12     4      180.000000        1.879614         2    ;  uncertainty k = 0.516786
        11        10        12         6     4      180.000000        1.879614         2    ;  uncertainty k = 0.516786
        11        12         6        10     4      180.000000        1.879614         2    ;  uncertainty k = 0.516786
        12         4        11        13     4      180.000000        7.054904         2    ;  uncertainty k = 0.313976
        12        11        13         4     4      180.000000        7.054904         2    ;  uncertainty k = 0.313976
        12        13         4        11     4      180.000000        7.054904         2    ;  uncertainty k = 0.313976
        17        16        20        33     4      180.000000       18.386574         2    ;  uncertainty k = 0.037406
        17        20        33        16     4      180.000000       18.386574         2    ;  uncertainty k = 0.037406
        17        33        16        20     4      180.000000       18.386574         2    ;  uncertainty k = 0.037406
        18        19        32        43     4      180.000000        3.202597         2    ;  uncertainty k = 0.111123
        18        32        43        19     4      180.000000        3.202597         2    ;  uncertainty k = 0.111123
        18        43        19        32     4      180.000000        3.202597         2    ;  uncertainty k = 0.111123
        19        18        20        42     4      180.000000        4.517471         2    ;  uncertainty k = 0.112932
        19        20        42        18     4      180.000000        4.517471         2    ;  uncertainty k = 0.112932
        19        42        18        20     4      180.000000        4.517471         2    ;  uncertainty k = 0.112932
        20        17        19        31     4      180.000000        2.124675         2    ;  uncertainty k = 0.359781
        20        19        31        17     4      180.000000        2.124675         2    ;  uncertainty k = 0.359781
        20        31        17        19     4      180.000000        2.124675         2    ;  uncertainty k = 0.359781
        32        18        33        37     4      180.000000        8.794758         2    ;  uncertainty k = 0.135372
        32        33        37        18     4      180.000000        8.794758         2    ;  uncertainty k = 0.135372
        32        37        18        33     4      180.000000        8.794758         2    ;  uncertainty k = 0.135372
        33        17        32        34     4      180.000000        6.447874         2    ;  uncertainty k = 0.208436
        33        32        34        17     4      180.000000        6.447874         2    ;  uncertainty k = 0.208436
        33        34        17        32     4      180.000000        6.447874         2    ;  uncertainty k = 0.208436
        34        33        35        38     4      180.000000        4.159024         2    ;  uncertainty k = 0.064669
        34        35        38        33     4      180.000000        4.159024         2    ;  uncertainty k = 0.064669
        34        38        33        35     4      180.000000        4.159024         2    ;  uncertainty k = 0.064669
        35        34        36        39     4      180.000000        4.123010         2    ;  uncertainty k = 0.085110
        35        36        39        34     4      180.000000        4.123010         2    ;  uncertainty k = 0.085110
        35        39        34        36     4      180.000000        4.123010         2    ;  uncertainty k = 0.085110
        36        35        37        40     4      180.000000        4.525514         2    ;  uncertainty k = 0.072532
        36        37        40        35     4      180.000000        4.525514         2    ;  uncertainty k = 0.072532
        36        40        35        37     4      180.000000        4.525514         2    ;  uncertainty k = 0.072532
        37        32        36        41     4      180.000000        4.079319         2    ;  uncertainty k = 0.082584
        37        36        41        32     4      180.000000        4.079319         2    ;  uncertainty k = 0.082584
        37        41        32        36     4      180.000000        4.079319         2    ;  uncertainty k = 0.082584

[ pairs ]
;       ai        aj funct
         1         5     1
         1        12     1
         2         6     1
         2        11     1
         2        13     1
         3         5     1
         3        12     1
         4         7     1
         4        10     1
         4        14     1
         4        25     1
         4        26     1
         5         8     1
         5        10     1
         5        13     1
         5        21     1
         6         9     1
         6        13     1
         6        22     1
         6        24     1
         7        10     1
         7        12     1
         7        23     1
         8        11     1
         8        24     1
         9        12     1
         9        21     1
        10        13     1
        10        22     1
        11        14     1
        11        21     1
        11        23     1
        11        25     1
        11        26     1
        12        15     1
        12        24     1
        12        27     1
        12        28     1
        13        16     1
        13        29     1
        13        30     1
        14        17     1
        15        20     1
        15        25     1
        15        26     1
        15        33     1
        16        19     1
        16        27     1
        16        28     1
        16        31     1
        16        32     1
        16        34     1
        17        18     1
        17        29     1
        17        30     1
        17        35     1
        17        37     1
        17        38     1
        17        42     1
        18        31     1
        18        34     1
        18        36     1
        18        41     1
        19        33     1
        19        37     1
        20        32     1
        20        34     1
        20        43     1
        21        22     1
        22        23     1
        23        24     1
        25        27     1
        25        28     1
        26        27     1
        26        28     1
        27        29     1
        27        30     1
        28        29     1
        28        30     1
        31        33     1
        31        42     1
        32        35     1
        32        38     1
        32        40     1
        32        42     1
        33        36     1
        33        39     1
        33        41     1
        33        43     1
        34        37     1
        34        40     1
        35        41     1
        36        38     1
        37        39     1
        37        43     1
        38        39     1
        39        40     1
        40        41     1
        42        43     1
