; ITP file created by ByteFF-ML, 2026-02-21 08:25:12.843336

[ atomtypes ]
;name           bonded.type        at.num        mass        charge   ptype           sigma         epsilon
 n0bf                                   7      0.0000       0.00000       A     2.75977e-01     4.77194e+00
 c1bf                                   6      0.0000       0.00000       A     3.39522e-01     4.52013e-01
 c2bf                                   6      0.0000       0.00000       A     3.31384e-01     4.08602e-01
 o3bf                                   8      0.0000       0.00000       A     3.04645e-01     6.13271e-01
 c4bf                                   6      0.0000       0.00000       A     3.39875e-01     4.51170e-01
 c5bf                                   6      0.0000       0.00000       A     3.31381e-01     4.10552e-01
 c6bf                                   6      0.0000       0.00000       A     3.31504e-01     4.13834e-01
 c7bf                                   6      0.0000       0.00000       A     3.31504e-01     4.13834e-01
 c8bf                                   6      0.0000       0.00000       A     3.31500e-01     4.13068e-01
 c9bf                                   6      0.0000       0.00000       A     3.31500e-01     4.13068e-01
 c10bf                                  6      0.0000       0.00000       A     3.31497e-01     4.12822e-01
 n11bf                                  7      0.0000       0.00000       A     3.17967e-01     6.84390e-01
 c12bf                                  6      0.0000       0.00000       A     3.39785e-01     4.51384e-01
 c13bf                                  6      0.0000       0.00000       A     3.31289e-01     4.14250e-01
 o14bf                                  8      0.0000       0.00000       A     3.04580e-01     6.11017e-01
 c15bf                                  6      0.0000       0.00000       A     3.39895e-01     4.50992e-01
 c16bf                                  6      0.0000       0.00000       A     3.39729e-01     4.50232e-01
 c17bf                                  6      0.0000       0.00000       A     3.39848e-01     4.49835e-01
 n18bf                                  7      0.0000       0.00000       A     3.26890e-01     4.94531e-01
 c19bf                                  6      0.0000       0.00000       A     3.39664e-01     4.50931e-01
 c20bf                                  6      0.0000       0.00000       A     3.31478e-01     4.13251e-01
 c21bf                                  6      0.0000       0.00000       A     3.31554e-01     4.13313e-01
 c22bf                                  6      0.0000       0.00000       A     3.31478e-01     4.13056e-01
 c23bf                                  6      0.0000       0.00000       A     3.31490e-01     4.12461e-01
 c24bf                                  6      0.0000       0.00000       A     3.31480e-01     4.13052e-01
 c25bf                                  6      0.0000       0.00000       A     3.31534e-01     4.12922e-01
 h26bf                                  1      0.0000       0.00000       A     2.62462e-01     6.72855e-02
 cl27bf                                17      0.0000       0.00000       A     3.46727e-01     1.10526e+00
 h28bf                                  1      0.0000       0.00000       A     2.62496e-01     6.71211e-02
 h29bf                                  1      0.0000       0.00000       A     2.62488e-01     6.71897e-02
 h30bf                                  1      0.0000       0.00000       A     2.62506e-01     6.76558e-02
 h31bf                                  1      0.0000       0.00000       A     2.62515e-01     6.74690e-02
 h32bf                                  1      0.0000       0.00000       A     2.62458e-01     6.72983e-02
 h33bf                                  1      0.0000       0.00000       A     2.62458e-01     6.72983e-02
 h34bf                                  1      0.0000       0.00000       A     2.62457e-01     6.73477e-02
 h35bf                                  1      0.0000       0.00000       A     2.62515e-01     6.74690e-02
 h36bf                                  1      0.0000       0.00000       A     1.10377e-01     4.05210e-02
 h37bf                                  1      0.0000       0.00000       A     1.10377e-01     4.05210e-02
 h38bf                                  1      0.0000       0.00000       A     1.10377e-01     4.05210e-02
 h39bf                                  1      0.0000       0.00000       A     1.88295e-01     8.35303e-02
 h40bf                                  1      0.0000       0.00000       A     2.60059e-01     8.78445e-02
 h41bf                                  1      0.0000       0.00000       A     2.60059e-01     8.78445e-02
 h42bf                                  1      0.0000       0.00000       A     2.42171e-01     8.58813e-02
 h43bf                                  1      0.0000       0.00000       A     2.60177e-01     8.69108e-02
 h44bf                                  1      0.0000       0.00000       A     2.60177e-01     8.69108e-02
 h45bf                                  1      0.0000       0.00000       A     2.60151e-01     8.65612e-02
 h46bf                                  1      0.0000       0.00000       A     2.60151e-01     8.65612e-02
 h47bf                                  1      0.0000       0.00000       A     2.42250e-01     8.68118e-02
 h48bf                                  1      0.0000       0.00000       A     2.42250e-01     8.68118e-02
 h49bf                                  1      0.0000       0.00000       A     1.10393e-01     4.05785e-02
 h50bf                                  1      0.0000       0.00000       A     2.42184e-01     8.76577e-02
 h51bf                                  1      0.0000       0.00000       A     2.42184e-01     8.76577e-02

[ moleculetype ]
;name             nrexcl
 1b                    3

[ atoms ]
;       nr            type      resi   res      atom      cgnr      charge          mass ; qtot
         1            n0bf         1   UNL        n0         1    -0.99427       14.0070 ; qtot   -0.994
         2            c1bf         1   UNL        c1         2     0.06014       12.0110 ; qtot   -0.934
         3            c2bf         1   UNL        c2         3     0.60357       12.0110 ; qtot   -0.331
         4            o3bf         1   UNL        o3         4    -0.58542       15.9990 ; qtot   -0.916
         5            c4bf         1   UNL        c4         5    -0.01461       12.0110 ; qtot   -0.931
         6            c5bf         1   UNL        c5         6    -0.14501       12.0110 ; qtot   -1.076
         7            c6bf         1   UNL        c6         7    -0.09366       12.0110 ; qtot   -1.169
         8            c7bf         1   UNL        c7         8    -0.09366       12.0110 ; qtot   -1.263
         9            c8bf         1   UNL        c8         9    -0.10115       12.0110 ; qtot   -1.364
        10            c9bf         1   UNL        c9        10    -0.10115       12.0110 ; qtot   -1.465
        11           c10bf         1   UNL       c10        11    -0.10967       12.0110 ; qtot   -1.575
        12           n11bf         1   UNL       n11        12    -0.37380       14.0070 ; qtot   -1.949
        13           c12bf         1   UNL       c12        13     0.02957       12.0110 ; qtot   -1.919
        14           c13bf         1   UNL       c13        14     0.58633       12.0110 ; qtot   -1.333
        15           o14bf         1   UNL       o14        15    -0.60290       15.9990 ; qtot   -1.936
        16           c15bf         1   UNL       c15        16    -0.07919       12.0110 ; qtot   -2.015
        17           c16bf         1   UNL       c16        17    -0.09624       12.0110 ; qtot   -2.111
        18           c17bf         1   UNL       c17        18     0.09929       12.0110 ; qtot   -2.012
        19           n18bf         1   UNL       n18        19    -0.49424       14.0070 ; qtot   -2.506
        20           c19bf         1   UNL       c19        20     0.14500       12.0110 ; qtot   -2.361
        21           c20bf         1   UNL       c20        21    -0.11379       12.0110 ; qtot   -2.475
        22           c21bf         1   UNL       c21        22    -0.08910       12.0110 ; qtot   -2.564
        23           c22bf         1   UNL       c22        23     0.11882       12.0110 ; qtot   -2.445
        24           c23bf         1   UNL       c23        24    -0.09665       12.0110 ; qtot   -2.542
        25           c24bf         1   UNL       c24        25    -0.10604       12.0110 ; qtot   -2.648
        26           c25bf         1   UNL       c25        26    -0.09420       12.0110 ; qtot   -2.742
        27           h26bf         1   UNL       h26        27     0.13737        1.0080 ; qtot   -2.605
        28          cl27bf         1   UNL      cl27        28    -0.21210       35.4530 ; qtot   -2.817
        29           h28bf         1   UNL       h28        29     0.13215        1.0080 ; qtot   -2.685
        30           h29bf         1   UNL       h29        30     0.12135        1.0080 ; qtot   -2.563
        31           h30bf         1   UNL       h30        31     0.12345        1.0080 ; qtot   -2.440
        32           h31bf         1   UNL       h31        32     0.12021        1.0080 ; qtot   -2.320
        33           h32bf         1   UNL       h32        33     0.11392        1.0080 ; qtot   -2.206
        34           h33bf         1   UNL       h33        34     0.11392        1.0080 ; qtot   -2.092
        35           h34bf         1   UNL       h34        35     0.11320        1.0080 ; qtot   -1.979
        36           h35bf         1   UNL       h35        36     0.12021        1.0080 ; qtot   -1.858
        37           h36bf         1   UNL       h36        37     0.53806        1.0080 ; qtot   -1.320
        38           h37bf         1   UNL       h37        38     0.53806        1.0080 ; qtot   -0.782
        39           h38bf         1   UNL       h38        39     0.53806        1.0080 ; qtot   -0.244
        40           h39bf         1   UNL       h39        40     0.12877        1.0080 ; qtot   -0.115
        41           h40bf         1   UNL       h40        41     0.09127        1.0080 ; qtot   -0.024
        42           h41bf         1   UNL       h41        42     0.09127        1.0080 ; qtot    0.067
        43           h42bf         1   UNL       h42        43     0.09134        1.0080 ; qtot    0.158
        44           h43bf         1   UNL       h43        44     0.06277        1.0080 ; qtot    0.221
        45           h44bf         1   UNL       h44        45     0.06277        1.0080 ; qtot    0.284
        46           h45bf         1   UNL       h45        46     0.05668        1.0080 ; qtot    0.341
        47           h46bf         1   UNL       h46        47     0.05668        1.0080 ; qtot    0.397
        48           h47bf         1   UNL       h47        48     0.06518        1.0080 ; qtot    0.463
        49           h48bf         1   UNL       h48        49     0.06518        1.0080 ; qtot    0.528
        50           h49bf         1   UNL       h49        50     0.33451        1.0080 ; qtot    0.862
        51           h50bf         1   UNL       h50        51     0.06889        1.0080 ; qtot    0.931
        52           h51bf         1   UNL       h51        52     0.06886        1.0080 ; qtot    1.000

[ bonds ]
;       ai        aj funct               r               k
         1         2     1        0.151591   134428.863208
         1        37     1        0.103409   366809.114453
         1        38     1        0.103409   366809.114453
         1        39     1        0.103409   366809.114453
         2         3     1        0.154918   137087.825342
         2         5     1        0.154688   154844.850049
         2        40     1        0.109060   314637.744873
         3         4     1        0.124221   546052.450781
         3        12     1        0.133725   359882.428906
         5         6     1        0.151304   194407.603857
         5        41     1        0.109382   299571.667529
         5        42     1        0.109382   299571.667529
         6         7     1        0.140336   290241.301563
         6         8     1        0.140336   290241.301563
         7         9     1        0.139807   312628.612793
         7        36     1        0.108694   316251.817871
         8        10     1        0.139807   312628.612793
         8        32     1        0.108694   316251.817871
         9        11     1        0.139928   307155.269678
         9        34     1        0.108648   318935.027490
        10        11     1        0.139928   307155.269678
        10        33     1        0.108648   318935.027490
        11        35     1        0.108629   319751.321191
        12        13     1        0.148094   159004.781323
        12        18     1        0.148435   162280.886011
        13        14     1        0.154475   145006.831885
        13        16     1        0.153911   161509.690845
        13        43     1        0.109186   304325.706885
        14        15     1        0.123248   601046.309375
        14        19     1        0.135934   317939.080225
        16        17     1        0.153681   173830.490625
        16        44     1        0.109238   309634.386719
        16        45     1        0.109238   309634.386719
        17        18     1        0.153353   177200.980469
        17        46     1        0.109312   306830.054590
        17        47     1        0.109312   306830.054590
        18        48     1        0.109273   301576.483838
        18        49     1        0.109273   301576.483838
        19        20     1        0.146246   203785.966821
        19        50     1        0.101379   416736.359473
        20        21     1        0.151606   195884.925635
        20        51     1        0.109291   300011.774072
        20        52     1        0.109291   300011.774072
        21        22     1        0.140107   291813.927832
        21        26     1        0.140184   291180.045703
        22        23     1        0.139559   303712.075684
        22        27     1        0.108511   322413.718066
        23        24     1        0.139640   298763.162646
        23        28     1        0.175881   145663.876172
        24        25     1        0.139842   307022.808691
        24        29     1        0.108451   325608.819043
        25        26     1        0.139791   311019.647217
        25        30     1        0.108596   321111.223340
        26        31     1        0.108624   318963.092773

[ angles ]
;       ai        aj        ak funct           theta             cth
         1         2         3     1      103.933243      492.687260
         1         2         5     1      109.625145      658.967295
         1         2        40     1      106.777649      530.443397
         2         1        37     1      109.963951      454.137972
         2         1        38     1      109.963951      454.137972
         2         1        39     1      109.963951      454.137972
         2         3         4     1      116.218582      374.680469
         2         3        12     1      120.081398      422.274426
         2         5         6     1      111.763184      511.870098
         2         5        41     1      108.427101      490.089114
         2         5        42     1      108.427101      490.089114
         3         2         5     1      112.848892      639.141369
         3         2        40     1      111.740967      470.337820
         3        12        13     1      122.729691      466.550794
         3        12        18     1      124.325378      453.501587
         4         3        12     1      123.753113      630.670454
         5         2        40     1      110.246460      456.695290
         5         6         7     1      120.459305      491.887820
         5         6         8     1      120.459305      491.887820
         6         5        41     1      110.590027      486.390862
         6         5        42     1      110.590027      486.390862
         6         7         9     1      120.447983      685.123233
         6         7        36     1      119.988602      394.698498
         6         8        10     1      120.447983      685.123233
         6         8        32     1      119.988602      394.698498
         7         6         8     1      119.046616      697.936222
         7         9        11     1      120.064735      710.983706
         7         9        34     1      119.822266      427.935620
         8        10        11     1      120.064735      710.983706
         8        10        33     1      119.822266      427.935620
         9         7        36     1      119.624985      430.089261
         9        11        10     1      119.528236      692.984704
         9        11        35     1      120.249794      431.984721
        10         8        32     1      119.624985      430.089261
        10        11        35     1      120.249794      431.984721
        11         9        34     1      120.073624      430.858087
        11        10        33     1      120.073624      430.858087
        12        13        14     1      111.285904      509.758179
        12        13        16     1      102.984108      517.540102
        12        13        43     1      109.062462      451.854539
        12        18        17     1      103.370377      549.422226
        12        18        48     1      110.017166      443.297149
        12        18        49     1      110.017166      443.297149
        13        12        18     1      111.545433      389.218681
        13        14        15     1      121.091431      455.512634
        13        14        19     1      114.955055      513.187015
        13        16        17     1      103.769760      527.077319
        13        16        44     1      110.325150      467.582621
        13        16        45     1      110.325150      467.582621
        14        13        16     1      111.537819      630.076972
        14        13        43     1      108.446030      502.294671
        14        19        20     1      122.179932      538.228417
        14        19        50     1      116.810989      453.742178
        15        14        19     1      123.818481      641.057163
        16        13        43     1      112.023354      436.043493
        16        17        18     1      103.396255      551.303417
        16        17        46     1      111.452072      484.200640
        16        17        47     1      111.452072      484.200640
        17        16        44     1      111.892067      479.324329
        17        16        45     1      111.892067      479.324329
        17        18        48     1      112.344437      455.935529
        17        18        49     1      112.344437      455.935529
        18        17        46     1      110.995079      477.766054
        18        17        47     1      110.995079      477.766054
        19        20        21     1      112.726791      513.041230
        19        20        51     1      107.764877      519.137353
        19        20        52     1      107.764877      519.137353
        20        19        50     1      118.817001      401.652891
        20        21        22     1      119.933212      494.807191
        20        21        26     1      120.510780      500.018900
        21        20        51     1      110.320091      472.066682
        21        20        52     1      110.320091      472.066682
        21        22        23     1      119.620041      655.581905
        21        22        27     1      120.502121      378.055772
        21        26        25     1      120.362183      716.850346
        21        26        31     1      119.660645      390.218204
        22        21        26     1      119.296158      719.973151
        22        23        24     1      121.500717      654.120927
        22        23        28     1      119.147583      392.719723
        23        22        27     1      119.999374      391.366480
        23        24        25     1      118.595444      633.484452
        23        24        29     1      120.326317      403.996943
        24        23        28     1      119.305099      365.305987
        24        25        26     1      120.615746      709.957305
        24        25        30     1      119.365967      426.802028
        25        24        29     1      121.196091      420.370284
        25        26        31     1      120.098862      427.266069
        26        25        30     1      120.041405      424.844800
        37         1        38     1      109.166832      375.558754
        37         1        39     1      109.166832      375.558754
        38         1        39     1      109.166832      375.558754
        41         5        42     1      107.008568      362.583987
        44        16        45     1      108.149864      354.492426
        46        17        47     1      108.107277      353.709905
        48        18        49     1      108.138260      347.742010
        51        20        52     1      107.530319      351.191531

[ dihedrals ] ; propers for gromacs 4.5 or higher, use funct 9
;       ai        aj        ak        al funct           phase               k        pn
         1         2         3         4     9        0.000000       12.974517         1
         1         2         3         4     9      180.000000        0.365812         2
         1         2         3         4     9        0.000000       -0.658022         3
         1         2         3         4     9      180.000000        0.237899         4
         1         2         3        12     9        0.000000        9.619606         1
         1         2         3        12     9      180.000000        4.993647         2
         1         2         3        12     9        0.000000        0.033510         3
         1         2         3        12     9      180.000000       -0.287311         4
         1         2         5         6     9        0.000000        2.841056         1
         1         2         5         6     9      180.000000       -1.817167         2
         1         2         5         6     9        0.000000        1.368923         3
         1         2         5         6     9      180.000000        0.101711         4
         1         2         5        41     9        0.000000       -0.098300         1
         1         2         5        41     9      180.000000       -0.294567         2
         1         2         5        41     9        0.000000        0.933412         3
         1         2         5        41     9      180.000000        0.049783         4
         1         2         5        42     9        0.000000       -0.098300         1
         1         2         5        42     9      180.000000       -0.294567         2
         1         2         5        42     9        0.000000        0.933412         3
         1         2         5        42     9      180.000000        0.049783         4
         2         3        12        13     9        0.000000        9.923942         1
         2         3        12        13     9      180.000000       15.945390         2
         2         3        12        13     9        0.000000        1.963717         3
         2         3        12        13     9      180.000000       -0.612712         4
         2         3        12        18     9        0.000000        9.252040         1
         2         3        12        18     9      180.000000       16.066197         2
         2         3        12        18     9        0.000000        1.578790         3
         2         3        12        18     9      180.000000       -0.533778         4
         2         5         6         7     9        0.000000        0.191393         1
         2         5         6         7     9      180.000000       -0.018959         2
         2         5         6         7     9        0.000000        0.243504         3
         2         5         6         7     9      180.000000        0.119310         4
         2         5         6         8     9        0.000000        0.191393         1
         2         5         6         8     9      180.000000       -0.018959         2
         2         5         6         8     9        0.000000        0.243504         3
         2         5         6         8     9      180.000000        0.119310         4
         3         2         1        37     9        0.000000        0.674085         1
         3         2         1        37     9      180.000000        0.275729         2
         3         2         1        37     9        0.000000        0.441736         3
         3         2         1        37     9      180.000000       -0.030256         4
         3         2         1        38     9        0.000000        0.674085         1
         3         2         1        38     9      180.000000        0.275729         2
         3         2         1        38     9        0.000000        0.441736         3
         3         2         1        38     9      180.000000       -0.030256         4
         3         2         1        39     9        0.000000        0.674085         1
         3         2         1        39     9      180.000000        0.275729         2
         3         2         1        39     9        0.000000        0.441736         3
         3         2         1        39     9      180.000000       -0.030256         4
         3         2         5         6     9        0.000000       -1.400691         1
         3         2         5         6     9      180.000000        0.216638         2
         3         2         5         6     9        0.000000        0.489273         3
         3         2         5         6     9      180.000000        0.083322         4
         3         2         5        41     9        0.000000        0.049556         1
         3         2         5        41     9      180.000000        0.143092         2
         3         2         5        41     9        0.000000        0.553559         3
         3         2         5        41     9      180.000000        0.109162         4
         3         2         5        42     9        0.000000        0.049556         1
         3         2         5        42     9      180.000000        0.143092         2
         3         2         5        42     9        0.000000        0.553559         3
         3         2         5        42     9      180.000000        0.109162         4
         3        12        13        14     9        0.000000        5.163264         1
         3        12        13        14     9      180.000000        0.635501         2
         3        12        13        14     9        0.000000       -0.154694         3
         3        12        13        14     9      180.000000       -0.170248         4
         3        12        13        16     9        0.000000       -5.772241         1
         3        12        13        16     9      180.000000        0.230259         2
         3        12        13        16     9        0.000000        0.423468         3
         3        12        13        16     9      180.000000       -0.042220         4
         3        12        13        43     9        0.000000       -0.578980         1
         3        12        13        43     9      180.000000       -0.530804         2
         3        12        13        43     9        0.000000        0.299117         3
         3        12        13        43     9      180.000000        0.147111         4
         3        12        18        17     9        0.000000       -2.573158         1
         3        12        18        17     9      180.000000       -0.225230         2
         3        12        18        17     9        0.000000        0.372364         3
         3        12        18        17     9      180.000000       -0.142684         4
         3        12        18        48     9        0.000000        0.080852         1
         3        12        18        48     9      180.000000        0.168414         2
         3        12        18        48     9        0.000000        0.527261         3
         3        12        18        48     9      180.000000       -0.046122         4
         3        12        18        49     9        0.000000        0.080852         1
         3        12        18        49     9      180.000000        0.168414         2
         3        12        18        49     9        0.000000        0.527261         3
         3        12        18        49     9      180.000000       -0.046122         4
         4         3         2         5     9        0.000000       -4.484109         1
         4         3         2         5     9      180.000000        0.355319         2
         4         3         2         5     9        0.000000       -0.260565         3
         4         3         2         5     9      180.000000        0.440487         4
         4         3         2        40     9        0.000000        1.059380         1
         4         3         2        40     9      180.000000       -0.060167         2
         4         3         2        40     9        0.000000       -0.051317         3
         4         3         2        40     9      180.000000       -0.064259         4
         4         3        12        13     9        0.000000        0.038689         1
         4         3        12        13     9      180.000000       13.071044         2
         4         3        12        13     9        0.000000       -0.771693         3
         4         3        12        13     9      180.000000       -0.137245         4
         4         3        12        18     9        0.000000       -2.213274         1
         4         3        12        18     9      180.000000       12.877332         2
         4         3        12        18     9        0.000000       -0.808497         3
         4         3        12        18     9      180.000000        0.423655         4
         5         2         1        37     9        0.000000       -0.162319         1
         5         2         1        37     9      180.000000       -0.032075         2
         5         2         1        37     9        0.000000        0.429033         3
         5         2         1        37     9      180.000000        0.025636         4
         5         2         1        38     9        0.000000       -0.162319         1
         5         2         1        38     9      180.000000       -0.032075         2
         5         2         1        38     9        0.000000        0.429033         3
         5         2         1        38     9      180.000000        0.025636         4
         5         2         1        39     9        0.000000       -0.162319         1
         5         2         1        39     9      180.000000       -0.032075         2
         5         2         1        39     9        0.000000        0.429033         3
         5         2         1        39     9      180.000000        0.025636         4
         5         2         3        12     9        0.000000       -0.602184         1
         5         2         3        12     9      180.000000        0.950959         2
         5         2         3        12     9        0.000000       -0.290405         3
         5         2         3        12     9      180.000000        0.122826         4
         5         6         7         9     9        0.000000        0.208286         1
         5         6         7         9     9      180.000000       15.835638         2
         5         6         7         9     9        0.000000       -0.184737         3
         5         6         7         9     9      180.000000       -0.266408         4
         5         6         7        36     9        0.000000       -0.196414         1
         5         6         7        36     9      180.000000       12.806991         2
         5         6         7        36     9        0.000000       -0.371334         3
         5         6         7        36     9      180.000000        0.143681         4
         5         6         8        10     9        0.000000        0.208286         1
         5         6         8        10     9      180.000000       15.835638         2
         5         6         8        10     9        0.000000       -0.184737         3
         5         6         8        10     9      180.000000       -0.266408         4
         5         6         8        32     9        0.000000       -0.196414         1
         5         6         8        32     9      180.000000       12.806991         2
         5         6         8        32     9        0.000000       -0.371334         3
         5         6         8        32     9      180.000000        0.143681         4
         6         5         2        40     9        0.000000        0.025517         1
         6         5         2        40     9      180.000000        0.160564         2
         6         5         2        40     9        0.000000        1.028332         3
         6         5         2        40     9      180.000000       -0.019204         4
         6         7         9        11     9        0.000000        0.047760         1
         6         7         9        11     9      180.000000       18.729930         2
         6         7         9        11     9        0.000000       -1.522133         3
         6         7         9        11     9      180.000000       -0.411216         4
         6         7         9        34     9        0.000000       -0.037882         1
         6         7         9        34     9      180.000000       14.651039         2
         6         7         9        34     9        0.000000       -0.772519         3
         6         7         9        34     9      180.000000        0.125945         4
         6         8        10        11     9        0.000000        0.047760         1
         6         8        10        11     9      180.000000       18.729930         2
         6         8        10        11     9        0.000000       -1.522133         3
         6         8        10        11     9      180.000000       -0.411216         4
         6         8        10        33     9        0.000000       -0.037882         1
         6         8        10        33     9      180.000000       14.651039         2
         6         8        10        33     9        0.000000       -0.772519         3
         6         8        10        33     9      180.000000        0.125945         4
         7         6         5        41     9        0.000000       -0.042238         1
         7         6         5        41     9      180.000000       -0.056411         2
         7         6         5        41     9        0.000000        0.094840         3
         7         6         5        41     9      180.000000        0.009483         4
         7         6         5        42     9        0.000000       -0.042238         1
         7         6         5        42     9      180.000000       -0.056411         2
         7         6         5        42     9        0.000000        0.094840         3
         7         6         5        42     9      180.000000        0.009483         4
         7         6         8        10     9        0.000000       -0.007405         1
         7         6         8        10     9      180.000000       19.693291         2
         7         6         8        10     9        0.000000       -1.537042         3
         7         6         8        10     9      180.000000       -0.517720         4
         7         6         8        32     9        0.000000       -0.008803         1
         7         6         8        32     9      180.000000       14.950487         2
         7         6         8        32     9        0.000000       -0.643768         3
         7         6         8        32     9      180.000000       -0.044480         4
         7         9        11        10     9        0.000000       -0.073814         1
         7         9        11        10     9      180.000000       18.814376         2
         7         9        11        10     9        0.000000       -1.656146         3
         7         9        11        10     9      180.000000       -0.404958         4
         7         9        11        35     9        0.000000        0.014427         1
         7         9        11        35     9      180.000000       14.354657         2
         7         9        11        35     9        0.000000       -0.797603         3
         7         9        11        35     9      180.000000        0.142863         4
         8         6         5        41     9        0.000000       -0.042238         1
         8         6         5        41     9      180.000000       -0.056411         2
         8         6         5        41     9        0.000000        0.094840         3
         8         6         5        41     9      180.000000        0.009483         4
         8         6         5        42     9        0.000000       -0.042238         1
         8         6         5        42     9      180.000000       -0.056411         2
         8         6         5        42     9        0.000000        0.094840         3
         8         6         5        42     9      180.000000        0.009483         4
         8         6         7         9     9        0.000000       -0.007405         1
         8         6         7         9     9      180.000000       19.693291         2
         8         6         7         9     9        0.000000       -1.537042         3
         8         6         7         9     9      180.000000       -0.517720         4
         8         6         7        36     9        0.000000       -0.008803         1
         8         6         7        36     9      180.000000       14.950487         2
         8         6         7        36     9        0.000000       -0.643768         3
         8         6         7        36     9      180.000000       -0.044480         4
         8        10        11         9     9        0.000000       -0.073814         1
         8        10        11         9     9      180.000000       18.814376         2
         8        10        11         9     9        0.000000       -1.656146         3
         8        10        11         9     9      180.000000       -0.404958         4
         8        10        11        35     9        0.000000        0.014427         1
         8        10        11        35     9      180.000000       14.354657         2
         8        10        11        35     9        0.000000       -0.797603         3
         8        10        11        35     9      180.000000        0.142863         4
         9        11        10        33     9        0.000000        0.001680         1
         9        11        10        33     9      180.000000       14.333280         2
         9        11        10        33     9        0.000000       -0.817838         3
         9        11        10        33     9      180.000000        0.157157         4
        10        11         9        34     9        0.000000        0.001680         1
        10        11         9        34     9      180.000000       14.333280         2
        10        11         9        34     9        0.000000       -0.817838         3
        10        11         9        34     9      180.000000        0.157157         4
        11         9         7        36     9        0.000000        0.048367         1
        11         9         7        36     9      180.000000       14.715833         2
        11         9         7        36     9        0.000000       -0.732224         3
        11         9         7        36     9      180.000000        0.102066         4
        11        10         8        32     9        0.000000        0.048367         1
        11        10         8        32     9      180.000000       14.715833         2
        11        10         8        32     9        0.000000       -0.732224         3
        11        10         8        32     9      180.000000        0.102066         4
        12         3         2        40     9        0.000000       -0.158858         1
        12         3         2        40     9      180.000000       -0.156918         2
        12         3         2        40     9        0.000000        0.024385         3
        12         3         2        40     9      180.000000       -0.022390         4
        12        13        14        15     9        0.000000       -1.581112         1
        12        13        14        15     9      180.000000        1.246550         2
        12        13        14        15     9        0.000000        0.879333         3
        12        13        14        15     9      180.000000        0.096659         4
        12        13        14        19     9        0.000000        3.208771         1
        12        13        14        19     9      180.000000        2.266490         2
        12        13        14        19     9        0.000000        0.178334         3
        12        13        14        19     9      180.000000       -0.078254         4
        12        13        16        17     9        0.000000       -1.030974         1
        12        13        16        17     9      180.000000        1.674722         2
        12        13        16        17     9        0.000000        0.113142         3
        12        13        16        17     9      180.000000       -1.302728         4
        12        13        16        44     9        0.000000       -0.012081         1
        12        13        16        44     9      180.000000        0.058310         2
        12        13        16        44     9        0.000000        0.217272         3
        12        13        16        44     9      180.000000        0.052072         4
        12        13        16        45     9        0.000000       -0.012081         1
        12        13        16        45     9      180.000000        0.058310         2
        12        13        16        45     9        0.000000        0.217272         3
        12        13        16        45     9      180.000000        0.052072         4
        12        18        17        16     9        0.000000       -0.335265         1
        12        18        17        16     9      180.000000        2.009581         2
        12        18        17        16     9        0.000000       -0.028732         3
        12        18        17        16     9      180.000000       -1.269449         4
        12        18        17        46     9        0.000000        0.026227         1
        12        18        17        46     9      180.000000        0.003579         2
        12        18        17        46     9        0.000000        0.132702         3
        12        18        17        46     9      180.000000        0.056553         4
        12        18        17        47     9        0.000000        0.026227         1
        12        18        17        47     9      180.000000        0.003579         2
        12        18        17        47     9        0.000000        0.132702         3
        12        18        17        47     9      180.000000        0.056553         4
        13        12        18        17     9        0.000000       -1.190377         1
        13        12        18        17     9      180.000000        2.115167         2
        13        12        18        17     9        0.000000        0.011947         3
        13        12        18        17     9      180.000000       -0.576081         4
        13        12        18        48     9        0.000000        0.082028         1
        13        12        18        48     9      180.000000        0.027979         2
        13        12        18        48     9        0.000000        0.174565         3
        13        12        18        48     9      180.000000        0.059314         4
        13        12        18        49     9        0.000000        0.082028         1
        13        12        18        49     9      180.000000        0.027979         2
        13        12        18        49     9        0.000000        0.174565         3
        13        12        18        49     9      180.000000        0.059314         4
        13        14        19        20     9        0.000000        4.204974         1
        13        14        19        20     9      180.000000       12.777032         2
        13        14        19        20     9        0.000000        2.054836         3
        13        14        19        20     9      180.000000       -0.778245         4
        13        14        19        50     9        0.000000        0.909507         1
        13        14        19        50     9      180.000000       12.736014         2
        13        14        19        50     9        0.000000        0.193620         3
        13        14        19        50     9      180.000000        0.453770         4
        13        16        17        18     9        0.000000       -0.384499         1
        13        16        17        18     9      180.000000        3.792820         2
        13        16        17        18     9        0.000000       -0.423627         3
        13        16        17        18     9      180.000000       -0.906259         4
        13        16        17        46     9        0.000000       -0.056689         1
        13        16        17        46     9      180.000000       -0.031324         2
        13        16        17        46     9        0.000000       -0.014131         3
        13        16        17        46     9      180.000000        0.109473         4
        13        16        17        47     9        0.000000       -0.056689         1
        13        16        17        47     9      180.000000       -0.031324         2
        13        16        17        47     9        0.000000       -0.014131         3
        13        16        17        47     9      180.000000        0.109473         4
        14        13        12        18     9        0.000000       -1.582897         1
        14        13        12        18     9      180.000000       -0.739658         2
        14        13        12        18     9        0.000000        0.119727         3
        14        13        12        18     9      180.000000        0.496535         4
        14        13        16        17     9        0.000000       -1.201354         1
        14        13        16        17     9      180.000000       -0.226083         2
        14        13        16        17     9        0.000000        0.155365         3
        14        13        16        17     9      180.000000        0.147152         4
        14        13        16        44     9        0.000000        0.028954         1
        14        13        16        44     9      180.000000        0.060005         2
        14        13        16        44     9        0.000000        0.294604         3
        14        13        16        44     9      180.000000       -0.002956         4
        14        13        16        45     9        0.000000        0.028954         1
        14        13        16        45     9      180.000000        0.060005         2
        14        13        16        45     9        0.000000        0.294604         3
        14        13        16        45     9      180.000000       -0.002956         4
        14        19        20        21     9        0.000000       -1.017474         1
        14        19        20        21     9      180.000000       -0.658728         2
        14        19        20        21     9        0.000000        0.244355         3
        14        19        20        21     9      180.000000       -0.173330         4
        14        19        20        51     9        0.000000        0.273693         1
        14        19        20        51     9      180.000000        0.014951         2
        14        19        20        51     9        0.000000       -0.073997         3
        14        19        20        51     9      180.000000        0.025835         4
        14        19        20        52     9        0.000000        0.273693         1
        14        19        20        52     9      180.000000        0.014951         2
        14        19        20        52     9        0.000000       -0.073997         3
        14        19        20        52     9      180.000000        0.025835         4
        15        14        13        16     9        0.000000       -0.887779         1
        15        14        13        16     9      180.000000       -0.289888         2
        15        14        13        16     9        0.000000        0.174597         3
        15        14        13        16     9      180.000000        0.349065         4
        15        14        13        43     9        0.000000        1.431640         1
        15        14        13        43     9      180.000000        1.663852         2
        15        14        13        43     9        0.000000        0.669861         3
        15        14        13        43     9      180.000000       -0.244872         4
        15        14        19        20     9        0.000000       -0.871094         1
        15        14        19        20     9      180.000000       10.494976         2
        15        14        19        20     9        0.000000        0.050597         3
        15        14        19        20     9      180.000000       -0.589815         4
        15        14        19        50     9        0.000000       -0.462789         1
        15        14        19        50     9      180.000000       11.439982         2
        15        14        19        50     9        0.000000        0.500933         3
        15        14        19        50     9      180.000000        1.422690         4
        16        13        12        18     9        0.000000       -3.042928         1
        16        13        12        18     9      180.000000        8.773502         2
        16        13        12        18     9        0.000000       -0.422929         3
        16        13        12        18     9      180.000000       -1.769919         4
        16        13        14        19     9        0.000000       -0.613767         1
        16        13        14        19     9      180.000000       -0.145579         2
        16        13        14        19     9        0.000000       -0.036093         3
        16        13        14        19     9      180.000000        0.101512         4
        16        17        18        48     9        0.000000       -0.001673         1
        16        17        18        48     9      180.000000        0.032160         2
        16        17        18        48     9        0.000000        0.018360         3
        16        17        18        48     9      180.000000        0.166269         4
        16        17        18        49     9        0.000000       -0.001673         1
        16        17        18        49     9      180.000000        0.032160         2
        16        17        18        49     9        0.000000        0.018360         3
        16        17        18        49     9      180.000000        0.166269         4
        17        16        13        43     9        0.000000        0.592721         1
        17        16        13        43     9      180.000000       -0.067936         2
        17        16        13        43     9        0.000000        0.202835         3
        17        16        13        43     9      180.000000        0.097344         4
        18        12        13        43     9        0.000000       -0.103060         1
        18        12        13        43     9      180.000000       -0.556351         2
        18        12        13        43     9        0.000000        0.064974         3
        18        12        13        43     9      180.000000        0.296510         4
        18        17        16        44     9        0.000000       -0.014602         1
        18        17        16        44     9      180.000000       -0.007896         2
        18        17        16        44     9        0.000000        0.031022         3
        18        17        16        44     9      180.000000        0.101266         4
        18        17        16        45     9        0.000000       -0.014602         1
        18        17        16        45     9      180.000000       -0.007896         2
        18        17        16        45     9        0.000000        0.031022         3
        18        17        16        45     9      180.000000        0.101266         4
        19        14        13        43     9        0.000000        0.088498         1
        19        14        13        43     9      180.000000        0.791405         2
        19        14        13        43     9        0.000000       -0.201192         3
        19        14        13        43     9      180.000000        0.038699         4
        19        20        21        22     9        0.000000       -0.030609         1
        19        20        21        22     9      180.000000        1.357672         2
        19        20        21        22     9        0.000000       -0.052617         3
        19        20        21        22     9      180.000000        0.052055         4
        19        20        21        26     9        0.000000        0.018230         1
        19        20        21        26     9      180.000000        1.361334         2
        19        20        21        26     9        0.000000       -0.042514         3
        19        20        21        26     9      180.000000        0.081488         4
        20        21        22        23     9        0.000000        0.055858         1
        20        21        22        23     9      180.000000       15.400585         2
        20        21        22        23     9        0.000000       -0.309759         3
        20        21        22        23     9      180.000000       -0.282402         4
        20        21        22        27     9        0.000000       -0.208457         1
        20        21        22        27     9      180.000000       12.886983         2
        20        21        22        27     9        0.000000       -0.429718         3
        20        21        22        27     9      180.000000        0.184621         4
        20        21        26        25     9        0.000000        0.053467         1
        20        21        26        25     9      180.000000       15.809649         2
        20        21        26        25     9        0.000000       -0.357824         3
        20        21        26        25     9      180.000000       -0.340443         4
        20        21        26        31     9        0.000000       -0.118629         1
        20        21        26        31     9      180.000000       12.981936         2
        20        21        26        31     9        0.000000       -0.365465         3
        20        21        26        31     9      180.000000        0.147131         4
        21        20        19        50     9        0.000000        0.414915         1
        21        20        19        50     9      180.000000       -1.014280         2
        21        20        19        50     9        0.000000        0.180531         3
        21        20        19        50     9      180.000000       -0.224399         4
        21        22        23        24     9        0.000000        0.068357         1
        21        22        23        24     9      180.000000       17.397076         2
        21        22        23        24     9        0.000000       -1.140057         3
        21        22        23        24     9      180.000000       -0.437291         4
        21        22        23        28     9        0.000000        0.429534         1
        21        22        23        28     9      180.000000       18.656035         2
        21        22        23        28     9        0.000000        0.392697         3
        21        22        23        28     9      180.000000       -0.549468         4
        21        26        25        24     9        0.000000        0.095873         1
        21        26        25        24     9      180.000000       18.495998         2
        21        26        25        24     9        0.000000       -1.416600         3
        21        26        25        24     9      180.000000       -0.431528         4
        21        26        25        30     9        0.000000       -0.003857         1
        21        26        25        30     9      180.000000       14.598634         2
        21        26        25        30     9        0.000000       -0.696334         3
        21        26        25        30     9      180.000000        0.082209         4
        22        21        20        51     9        0.000000        0.011435         1
        22        21        20        51     9      180.000000       -0.063373         2
        22        21        20        51     9        0.000000       -0.008331         3
        22        21        20        51     9      180.000000       -0.000602         4
        22        21        20        52     9        0.000000        0.011435         1
        22        21        20        52     9      180.000000       -0.063373         2
        22        21        20        52     9        0.000000       -0.008331         3
        22        21        20        52     9      180.000000       -0.000602         4
        22        21        26        25     9        0.000000       -0.080821         1
        22        21        26        25     9      180.000000       18.929937         2
        22        21        26        25     9        0.000000       -1.384324         3
        22        21        26        25     9      180.000000       -0.492788         4
        22        21        26        31     9        0.000000       -0.067064         1
        22        21        26        31     9      180.000000       14.488961         2
        22        21        26        31     9        0.000000       -0.498880         3
        22        21        26        31     9      180.000000       -0.044502         4
        22        23        24        25     9        0.000000       -0.080149         1
        22        23        24        25     9      180.000000       17.918931         2
        22        23        24        25     9        0.000000       -1.282947         3
        22        23        24        25     9      180.000000       -0.402284         4
        22        23        24        29     9        0.000000       -0.018058         1
        22        23        24        29     9      180.000000       13.675224         2
        22        23        24        29     9        0.000000       -0.590922         3
        22        23        24        29     9      180.000000        0.147788         4
        23        22        21        26     9        0.000000       -0.159081         1
        23        22        21        26     9      180.000000       18.850548         2
        23        22        21        26     9        0.000000       -1.510307         3
        23        22        21        26     9      180.000000       -0.461351         4
        23        24        25        26     9        0.000000       -0.055805         1
        23        24        25        26     9      180.000000       18.730456         2
        23        24        25        26     9        0.000000       -1.559130         3
        23        24        25        26     9      180.000000       -0.411600         4
        23        24        25        30     9        0.000000        0.065169         1
        23        24        25        30     9      180.000000       14.516807         2
        23        24        25        30     9        0.000000       -0.593680         3
        23        24        25        30     9      180.000000        0.083924         4
        24        23        22        27     9        0.000000        0.061582         1
        24        23        22        27     9      180.000000       13.505215         2
        24        23        22        27     9        0.000000       -0.493471         3
        24        23        22        27     9      180.000000        0.063713         4
        24        25        26        31     9        0.000000        0.129849         1
        24        25        26        31     9      180.000000       14.504382         2
        24        25        26        31     9        0.000000       -0.619496         3
        24        25        26        31     9      180.000000        0.071494         4
        25        24        23        28     9        0.000000        0.365667         1
        25        24        23        28     9      180.000000       19.294276         2
        25        24        23        28     9        0.000000        0.346771         3
        25        24        23        28     9      180.000000       -0.590003         4
        26        21        20        51     9        0.000000       -0.025393         1
        26        21        20        51     9      180.000000       -0.072695         2
        26        21        20        51     9        0.000000       -0.031820         3
        26        21        20        51     9      180.000000        0.006050         4
        26        21        20        52     9        0.000000       -0.025393         1
        26        21        20        52     9      180.000000       -0.072695         2
        26        21        20        52     9        0.000000       -0.031820         3
        26        21        20        52     9      180.000000        0.006050         4
        26        21        22        27     9        0.000000       -0.068101         1
        26        21        22        27     9      180.000000       14.259917         2
        26        21        22        27     9        0.000000       -0.606817         3
        26        21        22        27     9      180.000000        0.031804         4
        26        25        24        29     9        0.000000        0.042941         1
        26        25        24        29     9      180.000000       14.212525         2
        26        25        24        29     9        0.000000       -0.768399         3
        26        25        24        29     9      180.000000        0.175449         4
        27        22        23        28     9        0.000000        0.145217         1
        27        22        23        28     9      180.000000       13.696746         2
        27        22        23        28     9        0.000000       -0.081943         3
        27        22        23        28     9      180.000000        0.190754         4
        28        23        24        29     9        0.000000        0.185054         1
        28        23        24        29     9      180.000000       13.419387         2
        28        23        24        29     9        0.000000       -0.101542         3
        28        23        24        29     9      180.000000        0.225070         4
        29        24        25        30     9        0.000000       -0.175374         1
        29        24        25        30     9      180.000000       11.609228         2
        29        24        25        30     9        0.000000       -0.645667         3
        29        24        25        30     9      180.000000        0.280623         4
        30        25        26        31     9        0.000000       -0.124950         1
        30        25        26        31     9      180.000000       12.043861         2
        30        25        26        31     9        0.000000       -0.646259         3
        30        25        26        31     9      180.000000        0.245961         4
        32         8        10        33     9        0.000000       -0.110381         1
        32         8        10        33     9      180.000000       12.023241         2
        32         8        10        33     9        0.000000       -0.679540         3
        32         8        10        33     9      180.000000        0.276652         4
        33        10        11        35     9        0.000000       -0.088340         1
        33        10        11        35     9      180.000000       11.528993         2
        33        10        11        35     9        0.000000       -0.594134         3
        33        10        11        35     9      180.000000        0.264319         4
        34         9         7        36     9        0.000000       -0.110381         1
        34         9         7        36     9      180.000000       12.023241         2
        34         9         7        36     9        0.000000       -0.679540         3
        34         9         7        36     9      180.000000        0.276652         4
        34         9        11        35     9        0.000000       -0.088340         1
        34         9        11        35     9      180.000000       11.528993         2
        34         9        11        35     9        0.000000       -0.594134         3
        34         9        11        35     9      180.000000        0.264319         4
        37         1         2        40     9        0.000000       -0.132599         1
        37         1         2        40     9      180.000000        0.050185         2
        37         1         2        40     9        0.000000        0.442252         3
        37         1         2        40     9      180.000000       -0.014901         4
        38         1         2        40     9        0.000000       -0.132599         1
        38         1         2        40     9      180.000000        0.050185         2
        38         1         2        40     9        0.000000        0.442252         3
        38         1         2        40     9      180.000000       -0.014901         4
        39         1         2        40     9        0.000000       -0.132599         1
        39         1         2        40     9      180.000000        0.050185         2
        39         1         2        40     9        0.000000        0.442252         3
        39         1         2        40     9      180.000000       -0.014901         4
        40         2         5        41     9        0.000000       -0.051793         1
        40         2         5        41     9      180.000000        0.111276         2
        40         2         5        41     9        0.000000        0.747358         3
        40         2         5        41     9      180.000000       -0.049564         4
        40         2         5        42     9        0.000000       -0.051793         1
        40         2         5        42     9      180.000000        0.111276         2
        40         2         5        42     9        0.000000        0.747358         3
        40         2         5        42     9      180.000000       -0.049564         4
        43        13        16        44     9        0.000000       -0.050193         1
        43        13        16        44     9      180.000000        0.030972         2
        43        13        16        44     9        0.000000        0.411377         3
        43        13        16        44     9      180.000000       -0.040558         4
        43        13        16        45     9        0.000000       -0.050193         1
        43        13        16        45     9      180.000000        0.030972         2
        43        13        16        45     9        0.000000        0.411377         3
        43        13        16        45     9      180.000000       -0.040558         4
        44        16        17        46     9        0.000000       -0.005880         1
        44        16        17        46     9      180.000000        0.031725         2
        44        16        17        46     9        0.000000        0.231864         3
        44        16        17        46     9      180.000000       -0.010200         4
        44        16        17        47     9        0.000000       -0.005880         1
        44        16        17        47     9      180.000000        0.031725         2
        44        16        17        47     9        0.000000        0.231864         3
        44        16        17        47     9      180.000000       -0.010200         4
        45        16        17        46     9        0.000000       -0.005880         1
        45        16        17        46     9      180.000000        0.031725         2
        45        16        17        46     9        0.000000        0.231864         3
        45        16        17        46     9      180.000000       -0.010200         4
        45        16        17        47     9        0.000000       -0.005880         1
        45        16        17        47     9      180.000000        0.031725         2
        45        16        17        47     9        0.000000        0.231864         3
        45        16        17        47     9      180.000000       -0.010200         4
        46        17        18        48     9        0.000000        0.017146         1
        46        17        18        48     9      180.000000        0.023895         2
        46        17        18        48     9        0.000000        0.226114         3
        46        17        18        48     9      180.000000       -0.004908         4
        46        17        18        49     9        0.000000        0.017146         1
        46        17        18        49     9      180.000000        0.023895         2
        46        17        18        49     9        0.000000        0.226114         3
        46        17        18        49     9      180.000000       -0.004908         4
        47        17        18        48     9        0.000000        0.017146         1
        47        17        18        48     9      180.000000        0.023895         2
        47        17        18        48     9        0.000000        0.226114         3
        47        17        18        48     9      180.000000       -0.004908         4
        47        17        18        49     9        0.000000        0.017146         1
        47        17        18        49     9      180.000000        0.023895         2
        47        17        18        49     9        0.000000        0.226114         3
        47        17        18        49     9      180.000000       -0.004908         4
        50        19        20        51     9        0.000000       -0.234023         1
        50        19        20        51     9      180.000000        0.251221         2
        50        19        20        51     9        0.000000        0.226822         3
        50        19        20        51     9      180.000000        0.111270         4
        50        19        20        52     9        0.000000       -0.234023         1
        50        19        20        52     9      180.000000        0.251221         2
        50        19        20        52     9        0.000000        0.226822         3
        50        19        20        52     9      180.000000        0.111270         4

[ dihedrals ] ; impropers
;       ai        aj        ak        al funct           phase               k        pn
         9         7        11        34     4      180.000000        1.885184         2
         9        11        34         7     4      180.000000        1.885184         2
         9        34         7        11     4      180.000000        1.885184         2
        10         8        11        33     4      180.000000        1.885184         2
        10        11        33         8     4      180.000000        1.885184         2
        10        33         8        11     4      180.000000        1.885184         2
        14        13        15        19     4      180.000000        1.179102         2
        14        15        19        13     4      180.000000        1.179102         2
        14        19        13        15     4      180.000000        1.179102         2
        22        21        23        27     4      180.000000        2.384052         2
        22        23        27        21     4      180.000000        2.384052         2
        22        27        21        23     4      180.000000        2.384052         2
        25        24        26        30     4      180.000000        4.284500         2
        25        26        30        24     4      180.000000        4.284500         2
        25        30        24        26     4      180.000000        4.284500         2
        26        21        25        31     4      180.000000        2.060667         2
        26        25        31        21     4      180.000000        2.060667         2
        26        31        21        25     4      180.000000        2.060667         2

[ pairs ]
;       ai        aj funct
         1         4     1
         1         6     1
         1        12     1
         1        41     1
         1        42     1
         2         7     1
         2         8     1
         2        13     1
         2        18     1
         3         6     1
         3        14     1
         3        16     1
         3        17     1
         3        37     1
         3        38     1
         3        39     1
         3        41     1
         3        42     1
         3        43     1
         3        48     1
         3        49     1
         4         5     1
         4        13     1
         4        18     1
         4        40     1
         5         9     1
         5        10     1
         5        12     1
         5        32     1
         5        36     1
         5        37     1
         5        38     1
         5        39     1
         6        11     1
         6        33     1
         6        34     1
         6        40     1
         7        10     1
         7        32     1
         7        35     1
         7        41     1
         7        42     1
         8         9     1
         8        35     1
         8        36     1
         8        41     1
         8        42     1
         9        33     1
        10        34     1
        11        32     1
        11        36     1
        12        15     1
        12        19     1
        12        40     1
        12        44     1
        12        45     1
        12        46     1
        12        47     1
        13        20     1
        13        46     1
        13        47     1
        13        48     1
        13        49     1
        13        50     1
        14        17     1
        14        18     1
        14        21     1
        14        44     1
        14        45     1
        14        51     1
        14        52     1
        15        16     1
        15        20     1
        15        43     1
        15        50     1
        16        19     1
        16        48     1
        16        49     1
        17        43     1
        18        43     1
        18        44     1
        18        45     1
        19        22     1
        19        26     1
        19        43     1
        20        23     1
        20        25     1
        20        27     1
        20        31     1
        21        24     1
        21        28     1
        21        30     1
        21        50     1
        22        25     1
        22        29     1
        22        31     1
        22        51     1
        22        52     1
        23        26     1
        23        30     1
        24        27     1
        24        31     1
        25        28     1
        26        27     1
        26        29     1
        26        51     1
        26        52     1
        27        28     1
        28        29     1
        29        30     1
        30        31     1
        32        33     1
        33        35     1
        34        35     1
        34        36     1
        37        40     1
        38        40     1
        39        40     1
        40        41     1
        40        42     1
        43        44     1
        43        45     1
        44        46     1
        44        47     1
        45        46     1
        45        47     1
        46        48     1
        46        49     1
        47        48     1
        47        49     1
        50        51     1
        50        52     1
