; ITP file created by ByteFF-joint-25, 2025-07-14 11:37:59.905650

[ atomtypes ]
;name           bonded.type        at.num        mass        charge   ptype           sigma         epsilon
 c0bf                                   6      0.0000       0.00000       A     3.39772e-01     4.51054e-01    ;  uncertainty sigma = 0.000008, epsilon = 0.000483
 h1bf                                   1      0.0000       0.00000       A     2.60030e-01     8.67107e-02    ;  uncertainty sigma = 0.000011, epsilon = 0.000525
 h2bf                                   1      0.0000       0.00000       A     2.60030e-01     8.67107e-02    ;  uncertainty sigma = 0.000011, epsilon = 0.000525
 h3bf                                   1      0.0000       0.00000       A     2.60030e-01     8.67107e-02    ;  uncertainty sigma = 0.000011, epsilon = 0.000525
 c4bf                                   6      0.0000       0.00000       A     3.31513e-01     4.12852e-01    ;  uncertainty sigma = 0.000004, epsilon = 0.000655
 o5bf                                   8      0.0000       0.00000       A     3.04828e-01     6.12615e-01    ;  uncertainty sigma = 0.000014, epsilon = 0.001002
 n6bf                                   7      0.0000       0.00000       A     3.27045e-01     4.90541e-01    ;  uncertainty sigma = 0.000023, epsilon = 0.001594
 h7bf                                   1      0.0000       0.00000       A     1.10668e-01     4.09050e-02    ;  uncertainty sigma = 0.000072, epsilon = 0.001112
 c8bf                                   6      0.0000       0.00000       A     3.39790e-01     4.50829e-01    ;  uncertainty sigma = 0.000023, epsilon = 0.001471
 h9bf                                   1      0.0000       0.00000       A     2.42336e-01     8.69402e-02    ;  uncertainty sigma = 0.000054, epsilon = 0.000820
 c10bf                                  6      0.0000       0.00000       A     3.39747e-01     4.52098e-01    ;  uncertainty sigma = 0.000049, epsilon = 0.001873
 h11bf                                  1      0.0000       0.00000       A     2.42270e-01     8.70607e-02    ;  uncertainty sigma = 0.000129, epsilon = 0.000760
 c12bf                                  6      0.0000       0.00000       A     3.39801e-01     4.50535e-01    ;  uncertainty sigma = 0.000006, epsilon = 0.001188
 h13bf                                  1      0.0000       0.00000       A     2.60052e-01     8.66550e-02    ;  uncertainty sigma = 0.000011, epsilon = 0.000507
 h14bf                                  1      0.0000       0.00000       A     2.60052e-01     8.66550e-02    ;  uncertainty sigma = 0.000011, epsilon = 0.000507
 c15bf                                  6      0.0000       0.00000       A     3.39738e-01     4.51549e-01    ;  uncertainty sigma = 0.000027, epsilon = 0.001260
 h16bf                                  1      0.0000       0.00000       A     1.88629e-01     8.69379e-02    ;  uncertainty sigma = 0.000079, epsilon = 0.001173
 h17bf                                  1      0.0000       0.00000       A     1.88629e-01     8.69379e-02    ;  uncertainty sigma = 0.000079, epsilon = 0.001173
 c18bf                                  6      0.0000       0.00000       A     3.31522e-01     4.13086e-01    ;  uncertainty sigma = 0.000004, epsilon = 0.000785
 o19bf                                  8      0.0000       0.00000       A     3.24272e-01     3.89966e-01    ;  uncertainty sigma = 0.000033, epsilon = 0.002858
 h20bf                                  1      0.0000       0.00000       A     5.38199e-02     1.93874e-02    ;  uncertainty sigma = 0.000141, epsilon = 0.001221
 n21bf                                  7      0.0000       0.00000       A     2.67990e-01     7.08627e+00    ;  uncertainty sigma = 0.000124, epsilon = 0.019223
 h22bf                                  1      0.0000       0.00000       A     1.10767e-01     4.17022e-02    ;  uncertainty sigma = 0.000099, epsilon = 0.001196
 c23bf                                  6      0.0000       0.00000       A     3.31510e-01     4.13312e-01    ;  uncertainty sigma = 0.000005, epsilon = 0.000640
 h24bf                                  1      0.0000       0.00000       A     2.62568e-01     6.71735e-02    ;  uncertainty sigma = 0.000008, epsilon = 0.000444
 h25bf                                  1      0.0000       0.00000       A     1.10767e-01     4.17022e-02    ;  uncertainty sigma = 0.000099, epsilon = 0.001196
 c26bf                                  6      0.0000       0.00000       A     3.39762e-01     4.49843e-01    ;  uncertainty sigma = 0.000033, epsilon = 0.004235
 c27bf                                  6      0.0000       0.00000       A     3.31513e-01     4.13329e-01    ;  uncertainty sigma = 0.000007, epsilon = 0.000328
 f28bf                                  9      0.0000       0.00000       A     3.03430e-01     3.47919e-01    ;  uncertainty sigma = 0.000008, epsilon = 0.000740
 c29bf                                  6      0.0000       0.00000       A     3.39752e-01     4.51137e-01    ;  uncertainty sigma = 0.000018, epsilon = 0.000657
 h30bf                                  1      0.0000       0.00000       A     2.60046e-01     8.67815e-02    ;  uncertainty sigma = 0.000019, epsilon = 0.001029
 h31bf                                  1      0.0000       0.00000       A     2.60046e-01     8.67815e-02    ;  uncertainty sigma = 0.000019, epsilon = 0.001029
 c32bf                                  6      0.0000       0.00000       A     3.31416e-01     4.13933e-01    ;  uncertainty sigma = 0.000102, epsilon = 0.001274
 c33bf                                  6      0.0000       0.00000       A     3.31523e-01     4.13619e-01    ;  uncertainty sigma = 0.000007, epsilon = 0.000754
 h34bf                                  1      0.0000       0.00000       A     2.62567e-01     6.73685e-02    ;  uncertainty sigma = 0.000010, epsilon = 0.000382
 c35bf                                  6      0.0000       0.00000       A     3.39774e-01     4.50569e-01    ;  uncertainty sigma = 0.000005, epsilon = 0.000726
 c36bf                                  6      0.0000       0.00000       A     3.31553e-01     4.13182e-01    ;  uncertainty sigma = 0.000016, epsilon = 0.001499
 c37bf                                  6      0.0000       0.00000       A     3.31513e-01     4.13329e-01    ;  uncertainty sigma = 0.000007, epsilon = 0.000328
 f38bf                                  9      0.0000       0.00000       A     3.03430e-01     3.47919e-01    ;  uncertainty sigma = 0.000008, epsilon = 0.000740
 h39bf                                  1      0.0000       0.00000       A     2.60035e-01     8.68913e-02    ;  uncertainty sigma = 0.000009, epsilon = 0.000671
 h40bf                                  1      0.0000       0.00000       A     2.60035e-01     8.68913e-02    ;  uncertainty sigma = 0.000009, epsilon = 0.000671
 h41bf                                  1      0.0000       0.00000       A     2.62539e-01     6.72367e-02    ;  uncertainty sigma = 0.000016, epsilon = 0.000753
 c42bf                                  6      0.0000       0.00000       A     3.39778e-01     4.50840e-01    ;  uncertainty sigma = 0.000007, epsilon = 0.000468
 h43bf                                  1      0.0000       0.00000       A     2.60038e-01     8.68000e-02    ;  uncertainty sigma = 0.000010, epsilon = 0.000496
 h44bf                                  1      0.0000       0.00000       A     2.60038e-01     8.68000e-02    ;  uncertainty sigma = 0.000010, epsilon = 0.000496
 c45bf                                  6      0.0000       0.00000       A     3.31517e-01     4.12838e-01    ;  uncertainty sigma = 0.000008, epsilon = 0.000696
 c46bf                                  6      0.0000       0.00000       A     3.31510e-01     4.13312e-01    ;  uncertainty sigma = 0.000005, epsilon = 0.000639
 h47bf                                  1      0.0000       0.00000       A     2.62568e-01     6.71735e-02    ;  uncertainty sigma = 0.000008, epsilon = 0.000444
 c48bf                                  6      0.0000       0.00000       A     3.39774e-01     4.50569e-01    ;  uncertainty sigma = 0.000005, epsilon = 0.000726
 h49bf                                  1      0.0000       0.00000       A     2.60035e-01     8.68912e-02    ;  uncertainty sigma = 0.000009, epsilon = 0.000671
 h50bf                                  1      0.0000       0.00000       A     2.60035e-01     8.68912e-02    ;  uncertainty sigma = 0.000009, epsilon = 0.000671
 c51bf                                  6      0.0000       0.00000       A     3.31526e-01     4.13306e-01    ;  uncertainty sigma = 0.000006, epsilon = 0.000759
 h52bf                                  1      0.0000       0.00000       A     2.62554e-01     6.71091e-02    ;  uncertainty sigma = 0.000011, epsilon = 0.000581
 n53bf                                  7      0.0000       0.00000       A     3.20506e-01     8.54276e-01    ;  uncertainty sigma = 0.000009, epsilon = 0.001508
 c54bf                                  6      0.0000       0.00000       A     3.39752e-01     4.51137e-01    ;  uncertainty sigma = 0.000018, epsilon = 0.000657
 h55bf                                  1      0.0000       0.00000       A     2.60046e-01     8.67814e-02    ;  uncertainty sigma = 0.000019, epsilon = 0.001029
 h56bf                                  1      0.0000       0.00000       A     2.60046e-01     8.67814e-02    ;  uncertainty sigma = 0.000019, epsilon = 0.001029
 c57bf                                  6      0.0000       0.00000       A     3.31523e-01     4.13342e-01    ;  uncertainty sigma = 0.000003, epsilon = 0.000722
 h58bf                                  1      0.0000       0.00000       A     2.62564e-01     6.69979e-02    ;  uncertainty sigma = 0.000011, epsilon = 0.000458
 n59bf                                  7      0.0000       0.00000       A     3.38405e-01     3.93847e-01    ;  uncertainty sigma = 0.000014, epsilon = 0.001141
 c60bf                                  6      0.0000       0.00000       A     3.31534e-01     4.13076e-01    ;  uncertainty sigma = 0.000005, epsilon = 0.000816
 h61bf                                  1      0.0000       0.00000       A     2.62553e-01     6.70822e-02    ;  uncertainty sigma = 0.000011, epsilon = 0.000402
 c62bf                                  6      0.0000       0.00000       A     3.31535e-01     4.13566e-01    ;  uncertainty sigma = 0.000010, epsilon = 0.000770
 h63bf                                  1      0.0000       0.00000       A     2.53569e-01     6.72907e-02    ;  uncertainty sigma = 0.000020, epsilon = 0.000459
 c64bf                                  6      0.0000       0.00000       A     3.31523e-01     4.13202e-01    ;  uncertainty sigma = 0.000004, epsilon = 0.000680
 h65bf                                  1      0.0000       0.00000       A     2.62550e-01     6.65521e-02    ;  uncertainty sigma = 0.000037, epsilon = 0.000804
 c66bf                                  6      0.0000       0.00000       A     3.31528e-01     4.13265e-01    ;  uncertainty sigma = 0.000006, epsilon = 0.000881
 h67bf                                  1      0.0000       0.00000       A     2.53679e-01     6.68674e-02    ;  uncertainty sigma = 0.000028, epsilon = 0.000322

[ moleculetype ]
;name             nrexcl
 MOL                   3

[ atoms ]
;       nr            type      resi   res      atom      cgnr      charge          mass ; qtot
         1            c0bf         1   UNL        c0         1    -0.17390       12.0110 ; qtot   -0.174
         2            h1bf         1   UNL        h1         2     0.06220        1.0080 ; qtot   -0.112
         3            h2bf         1   UNL        h2         3     0.06220        1.0080 ; qtot   -0.049
         4            h3bf         1   UNL        h3         4     0.06220        1.0080 ; qtot    0.013
         5            c4bf         1   UNL        c4         5     0.66558       12.0110 ; qtot    0.678
         6            o5bf         1   UNL        o5         6    -0.60952       15.9990 ; qtot    0.069
         7            n6bf         1   UNL        n6         7    -0.57993       14.0070 ; qtot   -0.511
         8            h7bf         1   UNL        h7         8     0.32334        1.0080 ; qtot   -0.188
         9            c8bf         1   UNL        c8         9     0.09994       12.0110 ; qtot   -0.088
        10            h9bf         1   UNL        h9        10     0.08379        1.0080 ; qtot   -0.004
        11           c10bf         1   UNL       c10        11     0.13138       12.0110 ; qtot    0.127
        12           h11bf         1   UNL       h11        12     0.07988        1.0080 ; qtot    0.207
        13           c12bf         1   UNL       c12        13    -0.04881       12.0110 ; qtot    0.158
        14           h13bf         1   UNL       h13        14     0.06994        1.0080 ; qtot    0.228
        15           h14bf         1   UNL       h14        15     0.06994        1.0080 ; qtot    0.298
        16           c15bf         1   UNL       c15        16     0.13771       12.0110 ; qtot    0.436
        17           h16bf         1   UNL       h16        17     0.11216        1.0080 ; qtot    0.548
        18           h17bf         1   UNL       h17        18     0.11216        1.0080 ; qtot    0.660
        19           c18bf         1   UNL       c18        19    -0.03209       12.0110 ; qtot    0.628
        20           o19bf         1   UNL       o19        20    -0.63288       15.9990 ; qtot   -0.005
        21           h20bf         1   UNL       h20        21     0.46298        1.0080 ; qtot    0.458
        22           n21bf         1   UNL       n21        22    -0.79024       14.0070 ; qtot   -0.332
        23           h22bf         1   UNL       h22        23     0.46101        1.0080 ; qtot    0.129
        24           c23bf         1   UNL       c23        24    -0.17594       12.0110 ; qtot   -0.047
        25           h24bf         1   UNL       h24        25     0.15771        1.0080 ; qtot    0.111
        26           h25bf         1   UNL       h25        26     0.46101        1.0080 ; qtot    0.572
        27           c26bf         1   UNL       c26        27     0.26049       12.0110 ; qtot    0.832
        28           c27bf         1   UNL       c27        28     0.15605       12.0110 ; qtot    0.988
        29           f28bf         1   UNL       f28        29    -0.13988       18.9980 ; qtot    0.848
        30           c29bf         1   UNL       c29        30    -0.09920       12.0110 ; qtot    0.749
        31           h30bf         1   UNL       h30        31     0.07240        1.0080 ; qtot    0.822
        32           h31bf         1   UNL       h31        32     0.07240        1.0080 ; qtot    0.894
        33           c32bf         1   UNL       c32        33    -0.14187       12.0110 ; qtot    0.752
        34           c33bf         1   UNL       c33        34    -0.20667       12.0110 ; qtot    0.546
        35           h34bf         1   UNL       h34        35     0.17106        1.0080 ; qtot    0.717
        36           c35bf         1   UNL       c35        36    -0.07656       12.0110 ; qtot    0.640
        37           c36bf         1   UNL       c36        37    -0.10425       12.0110 ; qtot    0.536
        38           c37bf         1   UNL       c37        38     0.15605       12.0110 ; qtot    0.692
        39           f38bf         1   UNL       f38        39    -0.13988       18.9980 ; qtot    0.552
        40           h39bf         1   UNL       h39        40     0.06136        1.0080 ; qtot    0.613
        41           h40bf         1   UNL       h40        41     0.06136        1.0080 ; qtot    0.675
        42           h41bf         1   UNL       h41        42     0.15745        1.0080 ; qtot    0.832
        43           c42bf         1   UNL       c42        43    -0.08801       12.0110 ; qtot    0.744
        44           h43bf         1   UNL       h43        44     0.05454        1.0080 ; qtot    0.799
        45           h44bf         1   UNL       h44        45     0.05454        1.0080 ; qtot    0.853
        46           c45bf         1   UNL       c45        46     0.04641       12.0110 ; qtot    0.900
        47           c46bf         1   UNL       c46        47    -0.17594       12.0110 ; qtot    0.724
        48           h47bf         1   UNL       h47        48     0.15771        1.0080 ; qtot    0.881
        49           c48bf         1   UNL       c48        49    -0.07656       12.0110 ; qtot    0.805
        50           h49bf         1   UNL       h49        50     0.06136        1.0080 ; qtot    0.866
        51           h50bf         1   UNL       h50        51     0.06136        1.0080 ; qtot    0.928
        52           c51bf         1   UNL       c51        52    -0.11932       12.0110 ; qtot    0.808
        53           h52bf         1   UNL       h52        53     0.15116        1.0080 ; qtot    0.959
        54           n53bf         1   UNL       n53        54     0.14777       14.0070 ; qtot    1.107
        55           c54bf         1   UNL       c54        55    -0.09920       12.0110 ; qtot    1.008
        56           h55bf         1   UNL       h55        56     0.07240        1.0080 ; qtot    1.080
        57           h56bf         1   UNL       h56        57     0.07240        1.0080 ; qtot    1.153
        58           c57bf         1   UNL       c57        58    -0.08862       12.0110 ; qtot    1.064
        59           h58bf         1   UNL       h58        59     0.15053        1.0080 ; qtot    1.215
        60           n59bf         1   UNL       n59        60    -0.51367       14.0070 ; qtot    0.701
        61           c60bf         1   UNL       c60        61    -0.11073       12.0110 ; qtot    0.590
        62           h61bf         1   UNL       h61        62     0.14293        1.0080 ; qtot    0.733
        63           c62bf         1   UNL       c62        63     0.31071       12.0110 ; qtot    1.044
        64           h63bf         1   UNL       h63        64     0.04089        1.0080 ; qtot    1.085
        65           c64bf         1   UNL       c64        65    -0.31394       12.0110 ; qtot    0.771
        66           h65bf         1   UNL       h65        66     0.16732        1.0080 ; qtot    0.938
        67           c66bf         1   UNL       c66        67    -0.11636       12.0110 ; qtot    0.822
        68           h67bf         1   UNL       h67        68     0.17819        1.0080 ; qtot    1.000

[ bonds ]
;       ai        aj funct               r               k
         1         2     1        0.109474   320790.834766    ;  uncertainty r = 0.000014, k = 2.210414
         1         3     1        0.109474   320790.834766    ;  uncertainty r = 0.000014, k = 2.210414
         1         4     1        0.109474   320790.834766    ;  uncertainty r = 0.000014, k = 2.210414
         1         5     1        0.152711   231291.489355    ;  uncertainty r = 0.000074, k = 7.077691
         5         6     1        0.123818   755192.387500    ;  uncertainty r = 0.000160, k = 11.110564
         5         7     1        0.137333   359141.597363    ;  uncertainty r = 0.000068, k = 22.289233
         7         8     1        0.101564   425616.097607    ;  uncertainty r = 0.000034, k = 2.445565
         7         9     1        0.145300   250659.343848    ;  uncertainty r = 0.000113, k = 16.035835
         9        10     1        0.109480   308779.225537    ;  uncertainty r = 0.000054, k = 1.565093
         9        11     1        0.152383   188750.265869    ;  uncertainty r = 0.000545, k = 10.926084
         9        13     1        0.153294   189941.265576    ;  uncertainty r = 0.000146, k = 3.560964
        11        12     1        0.109667   308472.933447    ;  uncertainty r = 0.000048, k = 5.020703
        11        16     1        0.152505   198805.477148    ;  uncertainty r = 0.000265, k = 14.080397
        11        20     1        0.142287   266443.729004    ;  uncertainty r = 0.000176, k = 20.737548
        13        14     1        0.109564   310340.232422    ;  uncertainty r = 0.000030, k = 3.251836
        13        15     1        0.109564   310340.232422    ;  uncertainty r = 0.000030, k = 3.251836
        13        19     1        0.150998   225384.883643    ;  uncertainty r = 0.000046, k = 1.857052
        16        17     1        0.109007   316542.838770    ;  uncertainty r = 0.000050, k = 3.243054
        16        18     1        0.109007   316542.838770    ;  uncertainty r = 0.000050, k = 3.243054
        16        22     1        0.150039   211986.571069    ;  uncertainty r = 0.000199, k = 39.388881
        19        24     1        0.139878   357503.059814    ;  uncertainty r = 0.000043, k = 2.283058
        19        47     1        0.139878   357503.034277    ;  uncertainty r = 0.000043, k = 2.283034
        20        21     1        0.096881   465425.156836    ;  uncertainty r = 0.000065, k = 1.510014
        22        23     1        0.103045   376286.804004    ;  uncertainty r = 0.000130, k = 5.789097
        22        26     1        0.103045   376286.804004    ;  uncertainty r = 0.000130, k = 5.789097
        22        27     1        0.156790   159565.729468    ;  uncertainty r = 0.000527, k = 89.230395
        24        25     1        0.108819   336813.787598    ;  uncertainty r = 0.000022, k = 1.111393
        24        28     1        0.138973   358518.262061    ;  uncertainty r = 0.000027, k = 2.522678
        27        30     1        0.154180   196157.100146    ;  uncertainty r = 0.000173, k = 7.571938
        27        33     1        0.152155   217424.302686    ;  uncertainty r = 0.000136, k = 24.402373
        27        55     1        0.154180   196157.074609    ;  uncertainty r = 0.000173, k = 7.571899
        28        29     1        0.135440   340257.875391    ;  uncertainty r = 0.000027, k = 1.328140
        28        34     1        0.139034   367053.708887    ;  uncertainty r = 0.000010, k = 2.576016
        30        31     1        0.109621   308946.187158    ;  uncertainty r = 0.000016, k = 1.707426
        30        32     1        0.109621   308946.187158    ;  uncertainty r = 0.000016, k = 1.707426
        30        36     1        0.153567   211163.267432    ;  uncertainty r = 0.000073, k = 3.808334
        33        37     1        0.139562   342776.702637    ;  uncertainty r = 0.000074, k = 7.890154
        33        61     1        0.139957   346921.988379    ;  uncertainty r = 0.000052, k = 7.097726
        34        35     1        0.108764   339427.817187    ;  uncertainty r = 0.000016, k = 1.050232
        34        38     1        0.139034   367053.708887    ;  uncertainty r = 0.000010, k = 2.576011
        36        40     1        0.109589   307310.688525    ;  uncertainty r = 0.000018, k = 2.510590
        36        41     1        0.109589   307310.688525    ;  uncertainty r = 0.000018, k = 2.510590
        36        43     1        0.153381   215649.882178    ;  uncertainty r = 0.000053, k = 4.058027
        37        42     1        0.108792   336385.019531    ;  uncertainty r = 0.000037, k = 1.552390
        37        46     1        0.139274   340493.761670    ;  uncertainty r = 0.000079, k = 9.065965
        38        39     1        0.135440   340257.875391    ;  uncertainty r = 0.000027, k = 1.328147
        38        47     1        0.138973   358518.262061    ;  uncertainty r = 0.000027, k = 2.522681
        43        44     1        0.109671   307274.604590    ;  uncertainty r = 0.000042, k = 1.783240
        43        45     1        0.109671   307274.604590    ;  uncertainty r = 0.000042, k = 1.783240
        43        49     1        0.153381   215649.907715    ;  uncertainty r = 0.000053, k = 4.058027
        46        52     1        0.139385   345319.943359    ;  uncertainty r = 0.000023, k = 3.036911
        46        54     1        0.140052   311487.614746    ;  uncertainty r = 0.000091, k = 8.978463
        47        48     1        0.108819   336813.813135    ;  uncertainty r = 0.000022, k = 1.111386
        49        50     1        0.109589   307310.662988    ;  uncertainty r = 0.000018, k = 2.510617
        49        51     1        0.109589   307310.662988    ;  uncertainty r = 0.000018, k = 2.510617
        49        55     1        0.153567   211163.292969    ;  uncertainty r = 0.000073, k = 3.808310
        52        53     1        0.108715   335922.542480    ;  uncertainty r = 0.000015, k = 0.699584
        52        58     1        0.139116   373302.333105    ;  uncertainty r = 0.000019, k = 2.389007
        54        60     1        0.136105   264450.327783    ;  uncertainty r = 0.000089, k = 7.707123
        54        67     1        0.137449   271390.905518    ;  uncertainty r = 0.000062, k = 10.609907
        55        56     1        0.109621   308946.161621    ;  uncertainty r = 0.000016, k = 1.707394
        55        57     1        0.109621   308946.161621    ;  uncertainty r = 0.000016, k = 1.707394
        58        59     1        0.108734   332395.459082    ;  uncertainty r = 0.000016, k = 1.151891
        58        61     1        0.139602   367478.671924    ;  uncertainty r = 0.000065, k = 1.835902
        60        63     1        0.132972   462597.943457    ;  uncertainty r = 0.000093, k = 9.128521
        61        62     1        0.108793   334358.803125    ;  uncertainty r = 0.000022, k = 2.329866
        63        64     1        0.108456   337264.134521    ;  uncertainty r = 0.000028, k = 1.579826
        63        65     1        0.142215   264589.530566    ;  uncertainty r = 0.000044, k = 5.556524
        65        66     1        0.108326   337625.765527    ;  uncertainty r = 0.000018, k = 0.977212
        65        67     1        0.137739   437889.002539    ;  uncertainty r = 0.000052, k = 4.737699
        67        68     1        0.108177   341300.249121    ;  uncertainty r = 0.000008, k = 2.159283

[ angles ]
;       ai        aj        ak funct           theta             cth
         1         5         6     1      124.114609      550.306959    ;  uncertainty theta = 0.002623, k = 0.032329
         1         5         7     1      115.216919      550.905293    ;  uncertainty theta = 0.002696, k = 0.069666
         2         1         3     1      106.853615      313.202304    ;  uncertainty theta = 0.000833, k = 0.016143
         2         1         4     1      106.853615      313.202304    ;  uncertainty theta = 0.000833, k = 0.016143
         2         1         5     1      108.518921      366.857878    ;  uncertainty theta = 0.000489, k = 0.046005
         3         1         4     1      106.853615      313.202304    ;  uncertainty theta = 0.000833, k = 0.016143
         3         1         5     1      108.518921      366.857878    ;  uncertainty theta = 0.000489, k = 0.046005
         4         1         5     1      108.518921      366.857878    ;  uncertainty theta = 0.000489, k = 0.046005
         5         7         8     1      114.594887      334.719170    ;  uncertainty theta = 0.004973, k = 0.111293
         5         7         9     1      115.815430      437.769802    ;  uncertainty theta = 0.005380, k = 0.200643
         6         5         7     1      124.171410      718.367761    ;  uncertainty theta = 0.003813, k = 0.041626
         7         9        10     1      106.034767      440.628011    ;  uncertainty theta = 0.004673, k = 0.107398
         7         9        11     1      109.053207      570.016308    ;  uncertainty theta = 0.005091, k = 0.174962
         7         9        13     1      110.669174      625.361289    ;  uncertainty theta = 0.002458, k = 0.075124
         8         7         9     1      111.405823      315.356998    ;  uncertainty theta = 0.004839, k = 0.060537
         9        11        12     1      107.993507      385.094247    ;  uncertainty theta = 0.001015, k = 0.063045
         9        11        16     1      109.543381      505.432831    ;  uncertainty theta = 0.005078, k = 0.100834
         9        11        20     1      110.917030      684.451607    ;  uncertainty theta = 0.005397, k = 0.185579
         9        13        14     1      106.283981      387.161539    ;  uncertainty theta = 0.001882, k = 0.049333
         9        13        15     1      106.283981      387.161539    ;  uncertainty theta = 0.001882, k = 0.049333
         9        13        19     1      110.952209      515.080942    ;  uncertainty theta = 0.002306, k = 0.112637
        10         9        11     1      107.043015      383.331069    ;  uncertainty theta = 0.004317, k = 0.113928
        10         9        13     1      108.445236      397.362370    ;  uncertainty theta = 0.003124, k = 0.053667
        11         9        13     1      108.613907      506.308626    ;  uncertainty theta = 0.002977, k = 0.141600
        11        16        17     1      110.138550      383.066824    ;  uncertainty theta = 0.004026, k = 0.067197
        11        16        18     1      110.138550      383.066824    ;  uncertainty theta = 0.004026, k = 0.067197
        11        16        22     1      109.382980      656.485152    ;  uncertainty theta = 0.005351, k = 0.150202
        11        20        21     1      108.698219      427.689730    ;  uncertainty theta = 0.005202, k = 0.196685
        12        11        16     1      108.843399      390.093359    ;  uncertainty theta = 0.004048, k = 0.084273
        12        11        20     1      108.883446      475.467778    ;  uncertainty theta = 0.004926, k = 0.162312
        13        19        24     1      120.624069      416.815742    ;  uncertainty theta = 0.001219, k = 0.079657
        13        19        47     1      120.624069      416.815742    ;  uncertainty theta = 0.001219, k = 0.079657
        14        13        15     1      105.130737      320.868002    ;  uncertainty theta = 0.002316, k = 0.034430
        14        13        19     1      107.571251      395.723462    ;  uncertainty theta = 0.001665, k = 0.074273
        15        13        19     1      107.571251      395.723462    ;  uncertainty theta = 0.001665, k = 0.074273
        16        11        20     1      106.913956      686.762013    ;  uncertainty theta = 0.004279, k = 0.304534
        16        22        23     1      108.501389      438.877187    ;  uncertainty theta = 0.005279, k = 0.145924
        16        22        26     1      108.501389      438.877187    ;  uncertainty theta = 0.005279, k = 0.145924
        16        22        27     1      113.257156      541.007876    ;  uncertainty theta = 0.005784, k = 0.203329
        17        16        18     1      108.693039      321.952307    ;  uncertainty theta = 0.001865, k = 0.059911
        17        16        22     1      106.102272      457.256659    ;  uncertainty theta = 0.003939, k = 0.078283
        18        16        22     1      106.102272      457.256659    ;  uncertainty theta = 0.003939, k = 0.078283
        19        24        25     1      120.673325      264.594874    ;  uncertainty theta = 0.002389, k = 0.061243
        19        24        28     1      118.734276      495.363421    ;  uncertainty theta = 0.000711, k = 0.136380
        19        47        38     1      118.734276      495.363421    ;  uncertainty theta = 0.000711, k = 0.136380
        19        47        48     1      120.673325      264.594874    ;  uncertainty theta = 0.002389, k = 0.061243
        22        27        30     1      106.952835      669.575666    ;  uncertainty theta = 0.002078, k = 0.202050
        22        27        33     1      107.223732      651.854955    ;  uncertainty theta = 0.004380, k = 0.148090
        22        27        55     1      106.952835      669.575666    ;  uncertainty theta = 0.002078, k = 0.202050
        23        22        26     1      107.166519      378.329562    ;  uncertainty theta = 0.006936, k = 0.197971
        23        22        27     1      109.019485      407.012077    ;  uncertainty theta = 0.005173, k = 0.152041
        24        19        47     1      120.936752      456.890042    ;  uncertainty theta = 0.001717, k = 0.065710
        24        28        29     1      119.004471      504.013159    ;  uncertainty theta = 0.001605, k = 0.057410
        24        28        34     1      123.554550      364.762558    ;  uncertainty theta = 0.003888, k = 0.175926
        25        24        28     1      120.595474      288.744329    ;  uncertainty theta = 0.002236, k = 0.050484
        26        22        27     1      109.019485      407.012077    ;  uncertainty theta = 0.005173, k = 0.152041
        27        30        31     1      106.790085      375.659817    ;  uncertainty theta = 0.002737, k = 0.114090
        27        30        32     1      106.790085      375.659817    ;  uncertainty theta = 0.002737, k = 0.114090
        27        30        36     1      110.203407      539.041965    ;  uncertainty theta = 0.002631, k = 0.119603
        27        33        37     1      117.513596      364.481394    ;  uncertainty theta = 0.008105, k = 0.160633
        27        33        61     1      118.720291      374.885276    ;  uncertainty theta = 0.007822, k = 0.159870
        27        55        49     1      110.203407      539.042029    ;  uncertainty theta = 0.002631, k = 0.119604
        27        55        56     1      106.790085      375.659817    ;  uncertainty theta = 0.002737, k = 0.114090
        27        55        57     1      106.790085      375.659817    ;  uncertainty theta = 0.002737, k = 0.114090
        28        34        35     1      122.344772      278.941910    ;  uncertainty theta = 0.002695, k = 0.055069
        28        34        38     1      115.447708      471.686690    ;  uncertainty theta = 0.003248, k = 0.205521
        29        28        34     1      118.454575      505.995701    ;  uncertainty theta = 0.002219, k = 0.025659
        30        27        33     1      111.338844      559.761499    ;  uncertainty theta = 0.006047, k = 0.031168
        30        27        55     1      110.673668      605.991583    ;  uncertainty theta = 0.008369, k = 0.266019
        30        36        40     1      107.863991      396.660418    ;  uncertainty theta = 0.001008, k = 0.062207
        30        36        41     1      107.863991      396.660418    ;  uncertainty theta = 0.001008, k = 0.062207
        30        36        43     1      109.361328      608.117356    ;  uncertainty theta = 0.001858, k = 0.123060
        31        30        32     1      105.426979      320.993995    ;  uncertainty theta = 0.002023, k = 0.045258
        31        30        36     1      108.921654      411.595956    ;  uncertainty theta = 0.001154, k = 0.062481
        32        30        36     1      108.921654      411.595956    ;  uncertainty theta = 0.001154, k = 0.062481
        33        27        55     1      111.338844      559.761499    ;  uncertainty theta = 0.006047, k = 0.031168
        33        37        42     1      118.991554      266.579922    ;  uncertainty theta = 0.003756, k = 0.054404
        33        37        46     1      121.524277      534.384603    ;  uncertainty theta = 0.004333, k = 0.172706
        33        61        58     1      120.853287      511.808266    ;  uncertainty theta = 0.003657, k = 0.045767
        33        61        62     1      118.202126      272.914609    ;  uncertainty theta = 0.003031, k = 0.075617
        34        38        39     1      118.454575      505.995669    ;  uncertainty theta = 0.002219, k = 0.025659
        34        38        47     1      123.554550      364.762558    ;  uncertainty theta = 0.003888, k = 0.175926
        35        34        38     1      122.344772      278.941910    ;  uncertainty theta = 0.002695, k = 0.055069
        36        43        44     1      108.647804      401.629206    ;  uncertainty theta = 0.001491, k = 0.045044
        36        43        45     1      108.647804      401.629206    ;  uncertainty theta = 0.001491, k = 0.045044
        36        43        49     1      108.296860      637.048858    ;  uncertainty theta = 0.003751, k = 0.180945
        37        33        61     1      123.093491      438.928676    ;  uncertainty theta = 0.004998, k = 0.156457
        37        46        52     1      122.827499      367.915912    ;  uncertainty theta = 0.005688, k = 0.228248
        37        46        54     1      118.283371      479.354111    ;  uncertainty theta = 0.001354, k = 0.121214
        38        47        48     1      120.595474      288.744329    ;  uncertainty theta = 0.002236, k = 0.050484
        39        38        47     1      119.004456      504.013095    ;  uncertainty theta = 0.001605, k = 0.057410
        40        36        41     1      104.333008      313.158891    ;  uncertainty theta = 0.002478, k = 0.062600
        40        36        43     1      108.923805      408.723159    ;  uncertainty theta = 0.001037, k = 0.031041
        41        36        43     1      108.923805      408.723159    ;  uncertainty theta = 0.001037, k = 0.031041
        42        37        46     1      118.574692      279.328988    ;  uncertainty theta = 0.003755, k = 0.119500
        43        49        50     1      108.923805      408.723064    ;  uncertainty theta = 0.001037, k = 0.031041
        43        49        51     1      108.923805      408.723064    ;  uncertainty theta = 0.001037, k = 0.031041
        43        49        55     1      109.361328      608.117484    ;  uncertainty theta = 0.001858, k = 0.123060
        44        43        45     1      104.148109      315.320671    ;  uncertainty theta = 0.002590, k = 0.057682
        44        43        49     1      108.647804      401.629206    ;  uncertainty theta = 0.001491, k = 0.045044
        45        43        49     1      108.647804      401.629206    ;  uncertainty theta = 0.001491, k = 0.045044
        46        52        53     1      119.054138      266.756559    ;  uncertainty theta = 0.000985, k = 0.050841
        46        52        58     1      118.184021      532.648431    ;  uncertainty theta = 0.003049, k = 0.089901
        46        54        60     1      114.712791      474.826222    ;  uncertainty theta = 0.005466, k = 0.105234
        46        54        67     1      121.775856      388.975951    ;  uncertainty theta = 0.008918, k = 0.130250
        49        55        56     1      108.921654      411.595893    ;  uncertainty theta = 0.001154, k = 0.062481
        49        55        57     1      108.921654      411.595893    ;  uncertainty theta = 0.001154, k = 0.062481
        50        49        51     1      104.333008      313.158859    ;  uncertainty theta = 0.002478, k = 0.062600
        50        49        55     1      107.863991      396.660418    ;  uncertainty theta = 0.001008, k = 0.062208
        51        49        55     1      107.863991      396.660418    ;  uncertainty theta = 0.001008, k = 0.062208
        52        46        54     1      119.211105      473.579405    ;  uncertainty theta = 0.002774, k = 0.207475
        52        58        59     1      120.023636      281.810748    ;  uncertainty theta = 0.000858, k = 0.046140
        52        58        61     1      121.257530      508.968795    ;  uncertainty theta = 0.003068, k = 0.111510
        53        52        58     1      121.184280      294.187692    ;  uncertainty theta = 0.001146, k = 0.027417
        54        60        63     1      106.364914      894.411910    ;  uncertainty theta = 0.002884, k = 0.082236
        54        67        65     1      107.820694      755.591098    ;  uncertainty theta = 0.004959, k = 0.085810
        54        67        68     1      118.020584      266.886191    ;  uncertainty theta = 0.005551, k = 0.132662
        56        55        57     1      105.426979      320.994059    ;  uncertainty theta = 0.002023, k = 0.045258
        58        61        62     1      119.551636      303.600287    ;  uncertainty theta = 0.003944, k = 0.066572
        59        58        61     1      119.830322      280.579732    ;  uncertainty theta = 0.001437, k = 0.033820
        60        54        67     1      111.472702      971.926358    ;  uncertainty theta = 0.005075, k = 0.092718
        60        63        64     1      118.394249      283.739407    ;  uncertainty theta = 0.003669, k = 0.060325
        60        63        65     1      112.391296      874.612159    ;  uncertainty theta = 0.002536, k = 0.066379
        63        65        66     1      125.310036      255.917029    ;  uncertainty theta = 0.002181, k = 0.139467
        63        65        67     1      103.691429      754.011437    ;  uncertainty theta = 0.003207, k = 0.113671
        64        63        65     1      126.565407      246.133459    ;  uncertainty theta = 0.003702, k = 0.044052
        65        67        68     1      129.786774      231.856045    ;  uncertainty theta = 0.005456, k = 0.077113
        66        65        67     1      124.833817      243.368477    ;  uncertainty theta = 0.002528, k = 0.154045

[ dihedrals ] ; propers for gromacs 4.5 or higher, use funct 9
;       ai        aj        ak        al funct           phase               k        pn
         1         5         7         8     9        0.000000       -0.719318         1    ;  uncertainty k = 0.444691
         1         5         7         8     9      180.000000        6.827135         2    ;  uncertainty k = 0.793821
         1         5         7         8     9        0.000000        1.847964         3    ;  uncertainty k = 0.175876
         1         5         7         8     9      180.000000        0.561429         4    ;  uncertainty k = 0.272301
         1         5         7         9     9        0.000000        6.564236         1    ;  uncertainty k = 0.730976
         1         5         7         9     9      180.000000       10.882230         2    ;  uncertainty k = 0.271174
         1         5         7         9     9        0.000000        1.797450         3    ;  uncertainty k = 0.074608
         1         5         7         9     9      180.000000       -0.307230         4    ;  uncertainty k = 0.362348
         2         1         5         6     9        0.000000        0.326532         1    ;  uncertainty k = 0.130575
         2         1         5         6     9      180.000000        3.580846         2    ;  uncertainty k = 0.150349
         2         1         5         6     9        0.000000        0.496853         3    ;  uncertainty k = 0.061068
         2         1         5         6     9      180.000000        0.159073         4    ;  uncertainty k = 0.042397
         2         1         5         7     9        0.000000       -0.987141         1    ;  uncertainty k = 0.287749
         2         1         5         7     9      180.000000        1.715337         2    ;  uncertainty k = 0.242814
         2         1         5         7     9        0.000000        0.297998         3    ;  uncertainty k = 0.030371
         2         1         5         7     9      180.000000       -0.046045         4    ;  uncertainty k = 0.041242
         3         1         5         6     9        0.000000        0.326532         1    ;  uncertainty k = 0.130575
         3         1         5         6     9      180.000000        3.580846         2    ;  uncertainty k = 0.150349
         3         1         5         6     9        0.000000        0.496853         3    ;  uncertainty k = 0.061068
         3         1         5         6     9      180.000000        0.159073         4    ;  uncertainty k = 0.042397
         3         1         5         7     9        0.000000       -0.987141         1    ;  uncertainty k = 0.287749
         3         1         5         7     9      180.000000        1.715337         2    ;  uncertainty k = 0.242814
         3         1         5         7     9        0.000000        0.297998         3    ;  uncertainty k = 0.030371
         3         1         5         7     9      180.000000       -0.046045         4    ;  uncertainty k = 0.041242
         4         1         5         6     9        0.000000        0.326532         1    ;  uncertainty k = 0.130575
         4         1         5         6     9      180.000000        3.580846         2    ;  uncertainty k = 0.150349
         4         1         5         6     9        0.000000        0.496853         3    ;  uncertainty k = 0.061068
         4         1         5         6     9      180.000000        0.159073         4    ;  uncertainty k = 0.042397
         4         1         5         7     9        0.000000       -0.987141         1    ;  uncertainty k = 0.287749
         4         1         5         7     9      180.000000        1.715337         2    ;  uncertainty k = 0.242814
         4         1         5         7     9        0.000000        0.297998         3    ;  uncertainty k = 0.030371
         4         1         5         7     9      180.000000       -0.046045         4    ;  uncertainty k = 0.041242
         5         7         9        10     9        0.000000        0.673190         1    ;  uncertainty k = 0.451446
         5         7         9        10     9      180.000000       -0.483797         2    ;  uncertainty k = 0.214923
         5         7         9        10     9        0.000000       -0.049722         3    ;  uncertainty k = 0.094428
         5         7         9        10     9      180.000000        0.206578         4    ;  uncertainty k = 0.148130
         5         7         9        11     9        0.000000        3.180514         1    ;  uncertainty k = 1.157529
         5         7         9        11     9      180.000000       -0.329367         2    ;  uncertainty k = 0.233157
         5         7         9        11     9        0.000000        0.024204         3    ;  uncertainty k = 0.231957
         5         7         9        11     9      180.000000        0.586908         4    ;  uncertainty k = 0.120769
         5         7         9        13     9        0.000000       -0.380436         1    ;  uncertainty k = 0.142963
         5         7         9        13     9      180.000000       -0.107031         2    ;  uncertainty k = 0.285790
         5         7         9        13     9        0.000000        0.330771         3    ;  uncertainty k = 0.193628
         5         7         9        13     9      180.000000        0.546802         4    ;  uncertainty k = 0.084671
         6         5         7         8     9        0.000000        4.249161         1    ;  uncertainty k = 0.379485
         6         5         7         8     9      180.000000       16.872695         2    ;  uncertainty k = 0.065678
         6         5         7         8     9        0.000000        1.027067         3    ;  uncertainty k = 0.234732
         6         5         7         8     9      180.000000       -0.366950         4    ;  uncertainty k = 0.092394
         6         5         7         9     9        0.000000        9.060147         1    ;  uncertainty k = 0.596169
         6         5         7         9     9      180.000000       17.377883         2    ;  uncertainty k = 0.143241
         6         5         7         9     9        0.000000        0.439552         3    ;  uncertainty k = 0.127544
         6         5         7         9     9      180.000000       -0.656366         4    ;  uncertainty k = 0.225470
         7         9        11        12     9        0.000000       -0.464787         1    ;  uncertainty k = 0.317316
         7         9        11        12     9      180.000000       -0.533075         2    ;  uncertainty k = 0.690221
         7         9        11        12     9        0.000000        0.725956         3    ;  uncertainty k = 0.201532
         7         9        11        12     9      180.000000       -0.178686         4    ;  uncertainty k = 0.089549
         7         9        11        16     9        0.000000       -3.063991         1    ;  uncertainty k = 1.250940
         7         9        11        16     9      180.000000       -0.682496         2    ;  uncertainty k = 0.425403
         7         9        11        16     9        0.000000        0.924527         3    ;  uncertainty k = 0.187029
         7         9        11        16     9      180.000000       -0.350198         4    ;  uncertainty k = 0.168794
         7         9        11        20     9        0.000000        0.177251         1    ;  uncertainty k = 0.746902
         7         9        11        20     9      180.000000       -0.624156         2    ;  uncertainty k = 0.788828
         7         9        11        20     9        0.000000        1.600977         3    ;  uncertainty k = 0.346594
         7         9        11        20     9      180.000000       -0.637356         4    ;  uncertainty k = 0.310004
         7         9        13        14     9        0.000000       -1.135580         1    ;  uncertainty k = 0.140856
         7         9        13        14     9      180.000000       -0.977834         2    ;  uncertainty k = 0.145134
         7         9        13        14     9        0.000000        1.043071         3    ;  uncertainty k = 0.103805
         7         9        13        14     9      180.000000       -0.224633         4    ;  uncertainty k = 0.175797
         7         9        13        15     9        0.000000       -1.135580         1    ;  uncertainty k = 0.140856
         7         9        13        15     9      180.000000       -0.977834         2    ;  uncertainty k = 0.145134
         7         9        13        15     9        0.000000        1.043071         3    ;  uncertainty k = 0.103805
         7         9        13        15     9      180.000000       -0.224633         4    ;  uncertainty k = 0.175797
         7         9        13        19     9        0.000000       -1.530754         1    ;  uncertainty k = 0.475762
         7         9        13        19     9      180.000000       -1.330757         2    ;  uncertainty k = 0.640028
         7         9        13        19     9        0.000000        1.965079         3    ;  uncertainty k = 0.272575
         7         9        13        19     9      180.000000       -0.047228         4    ;  uncertainty k = 0.209121
         8         7         9        10     9        0.000000        1.615267         1    ;  uncertainty k = 0.349654
         8         7         9        10     9      180.000000       -0.419932         2    ;  uncertainty k = 0.383461
         8         7         9        10     9        0.000000        0.522848         3    ;  uncertainty k = 0.230461
         8         7         9        10     9      180.000000        0.041935         4    ;  uncertainty k = 0.079234
         8         7         9        11     9        0.000000        2.396530         1    ;  uncertainty k = 1.071634
         8         7         9        11     9      180.000000       -2.433379         2    ;  uncertainty k = 0.692961
         8         7         9        11     9        0.000000        0.603149         3    ;  uncertainty k = 0.190766
         8         7         9        11     9      180.000000        0.172558         4    ;  uncertainty k = 0.089493
         8         7         9        13     9        0.000000        2.412732         1    ;  uncertainty k = 0.727962
         8         7         9        13     9      180.000000       -1.144206         2    ;  uncertainty k = 0.178406
         8         7         9        13     9        0.000000        0.413338         3    ;  uncertainty k = 0.162067
         8         7         9        13     9      180.000000        0.140362         4    ;  uncertainty k = 0.046152
         9        11        16        17     9        0.000000       -0.746594         1    ;  uncertainty k = 0.606990
         9        11        16        17     9      180.000000        0.070627         2    ;  uncertainty k = 0.410305
         9        11        16        17     9        0.000000        0.325941         3    ;  uncertainty k = 0.064010
         9        11        16        17     9      180.000000       -0.240217         4    ;  uncertainty k = 0.174087
         9        11        16        18     9        0.000000       -0.746594         1    ;  uncertainty k = 0.606990
         9        11        16        18     9      180.000000        0.070627         2    ;  uncertainty k = 0.410305
         9        11        16        18     9        0.000000        0.325941         3    ;  uncertainty k = 0.064010
         9        11        16        18     9      180.000000       -0.240217         4    ;  uncertainty k = 0.174087
         9        11        16        22     9        0.000000       -2.721523         1    ;  uncertainty k = 2.037142
         9        11        16        22     9      180.000000       -1.994497         2    ;  uncertainty k = 0.706500
         9        11        16        22     9        0.000000        1.383758         3    ;  uncertainty k = 0.198115
         9        11        16        22     9      180.000000       -0.265515         4    ;  uncertainty k = 0.317177
         9        11        20        21     9        0.000000       18.922994         1    ;  uncertainty k = 0.298753
         9        11        20        21     9      180.000000       -3.432350         2    ;  uncertainty k = 0.393515
         9        11        20        21     9        0.000000        1.234355         3    ;  uncertainty k = 0.173337
         9        11        20        21     9      180.000000        0.343231         4    ;  uncertainty k = 0.075406
         9        13        19        24     9        0.000000        0.015961         1    ;  uncertainty k = 0.447291
         9        13        19        24     9      180.000000        1.479336         2    ;  uncertainty k = 0.197948
         9        13        19        24     9        0.000000        0.701691         3    ;  uncertainty k = 0.200767
         9        13        19        24     9      180.000000        0.342416         4    ;  uncertainty k = 0.070936
         9        13        19        47     9        0.000000        0.015961         1    ;  uncertainty k = 0.447288
         9        13        19        47     9      180.000000        1.479336         2    ;  uncertainty k = 0.197947
         9        13        19        47     9        0.000000        0.701691         3    ;  uncertainty k = 0.200768
         9        13        19        47     9      180.000000        0.342416         4    ;  uncertainty k = 0.070935
        10         9        11        12     9        0.000000        0.386005         1    ;  uncertainty k = 0.297791
        10         9        11        12     9      180.000000       -0.335124         2    ;  uncertainty k = 0.468728
        10         9        11        12     9        0.000000       -0.180620         3    ;  uncertainty k = 0.158635
        10         9        11        12     9      180.000000       -0.158597         4    ;  uncertainty k = 0.085571
        10         9        11        16     9        0.000000       -1.532420         1    ;  uncertainty k = 0.476672
        10         9        11        16     9      180.000000       -0.362009         2    ;  uncertainty k = 0.387921
        10         9        11        16     9        0.000000        0.096741         3    ;  uncertainty k = 0.093582
        10         9        11        16     9      180.000000       -0.220479         4    ;  uncertainty k = 0.064813
        10         9        11        20     9        0.000000       -0.963862         1    ;  uncertainty k = 0.487834
        10         9        11        20     9      180.000000       -0.431115         2    ;  uncertainty k = 0.551956
        10         9        11        20     9        0.000000        0.681317         3    ;  uncertainty k = 0.209680
        10         9        11        20     9      180.000000       -0.145731         4    ;  uncertainty k = 0.172707
        10         9        13        14     9        0.000000        1.003432         1    ;  uncertainty k = 0.142375
        10         9        13        14     9      180.000000       -0.763879         2    ;  uncertainty k = 0.190174
        10         9        13        14     9        0.000000       -0.150781         3    ;  uncertainty k = 0.200723
        10         9        13        14     9      180.000000       -0.028987         4    ;  uncertainty k = 0.020283
        10         9        13        15     9        0.000000        1.003432         1    ;  uncertainty k = 0.142375
        10         9        13        15     9      180.000000       -0.763879         2    ;  uncertainty k = 0.190174
        10         9        13        15     9        0.000000       -0.150781         3    ;  uncertainty k = 0.200723
        10         9        13        15     9      180.000000       -0.028987         4    ;  uncertainty k = 0.020283
        10         9        13        19     9        0.000000        0.663870         1    ;  uncertainty k = 0.280445
        10         9        13        19     9      180.000000       -0.659159         2    ;  uncertainty k = 0.292236
        10         9        13        19     9        0.000000        0.782258         3    ;  uncertainty k = 0.187761
        10         9        13        19     9      180.000000        0.056644         4    ;  uncertainty k = 0.060309
        11         9        13        14     9        0.000000       -0.833757         1    ;  uncertainty k = 0.318168
        11         9        13        14     9      180.000000       -0.513486         2    ;  uncertainty k = 0.291784
        11         9        13        14     9        0.000000        0.435444         3    ;  uncertainty k = 0.098110
        11         9        13        14     9      180.000000       -0.244629         4    ;  uncertainty k = 0.096307
        11         9        13        15     9        0.000000       -0.833757         1    ;  uncertainty k = 0.318168
        11         9        13        15     9      180.000000       -0.513486         2    ;  uncertainty k = 0.291784
        11         9        13        15     9        0.000000        0.435444         3    ;  uncertainty k = 0.098110
        11         9        13        15     9      180.000000       -0.244629         4    ;  uncertainty k = 0.096307
        11         9        13        19     9        0.000000        0.127953         1    ;  uncertainty k = 1.200013
        11         9        13        19     9      180.000000       -0.422221         2    ;  uncertainty k = 0.434810
        11         9        13        19     9        0.000000        1.156386         3    ;  uncertainty k = 0.343960
        11         9        13        19     9      180.000000       -0.125143         4    ;  uncertainty k = 0.138626
        11        16        22        23     9        0.000000        2.457270         1    ;  uncertainty k = 1.488027
        11        16        22        23     9      180.000000       -0.773804         2    ;  uncertainty k = 0.287470
        11        16        22        23     9        0.000000        0.533505         3    ;  uncertainty k = 0.104350
        11        16        22        23     9      180.000000       -0.282229         4    ;  uncertainty k = 0.192333
        11        16        22        26     9        0.000000        2.457270         1    ;  uncertainty k = 1.488027
        11        16        22        26     9      180.000000       -0.773804         2    ;  uncertainty k = 0.287470
        11        16        22        26     9        0.000000        0.533505         3    ;  uncertainty k = 0.104350
        11        16        22        26     9      180.000000       -0.282229         4    ;  uncertainty k = 0.192333
        11        16        22        27     9        0.000000       -0.607141         1    ;  uncertainty k = 0.769592
        11        16        22        27     9      180.000000       -0.761594         2    ;  uncertainty k = 0.842276
        11        16        22        27     9        0.000000        0.773104         3    ;  uncertainty k = 0.112279
        11        16        22        27     9      180.000000       -0.197431         4    ;  uncertainty k = 0.143760
        12        11         9        13     9        0.000000       -1.470180         1    ;  uncertainty k = 0.388134
        12        11         9        13     9      180.000000       -0.189690         2    ;  uncertainty k = 0.339954
        12        11         9        13     9        0.000000        0.262476         3    ;  uncertainty k = 0.130680
        12        11         9        13     9      180.000000       -0.175710         4    ;  uncertainty k = 0.057046
        12        11        16        17     9        0.000000       -0.190940         1    ;  uncertainty k = 0.376092
        12        11        16        17     9      180.000000        0.086053         2    ;  uncertainty k = 0.282313
        12        11        16        17     9        0.000000        0.087055         3    ;  uncertainty k = 0.123049
        12        11        16        17     9      180.000000       -0.006018         4    ;  uncertainty k = 0.068267
        12        11        16        18     9        0.000000       -0.190940         1    ;  uncertainty k = 0.376092
        12        11        16        18     9      180.000000        0.086053         2    ;  uncertainty k = 0.282313
        12        11        16        18     9        0.000000        0.087055         3    ;  uncertainty k = 0.123049
        12        11        16        18     9      180.000000       -0.006018         4    ;  uncertainty k = 0.068267
        12        11        16        22     9        0.000000       -0.686426         1    ;  uncertainty k = 0.601337
        12        11        16        22     9      180.000000       -2.837728         2    ;  uncertainty k = 0.870717
        12        11        16        22     9        0.000000        0.757431         3    ;  uncertainty k = 0.338154
        12        11        16        22     9      180.000000       -0.084817         4    ;  uncertainty k = 0.123537
        12        11        20        21     9        0.000000       13.155354         1    ;  uncertainty k = 0.207070
        12        11        20        21     9      180.000000       -1.919911         2    ;  uncertainty k = 0.136380
        12        11        20        21     9        0.000000        0.850953         3    ;  uncertainty k = 0.240363
        12        11        20        21     9      180.000000        0.270513         4    ;  uncertainty k = 0.106751
        13         9        11        16     9        0.000000       -3.571868         1    ;  uncertainty k = 0.805517
        13         9        11        16     9      180.000000        0.257577         2    ;  uncertainty k = 0.452772
        13         9        11        16     9        0.000000        0.661496         3    ;  uncertainty k = 0.214901
        13         9        11        16     9      180.000000       -0.509714         4    ;  uncertainty k = 0.205263
        13         9        11        20     9        0.000000       -2.882812         1    ;  uncertainty k = 0.437233
        13         9        11        20     9      180.000000        0.485460         2    ;  uncertainty k = 0.456214
        13         9        11        20     9        0.000000        1.153035         3    ;  uncertainty k = 0.206076
        13         9        11        20     9      180.000000       -0.393370         4    ;  uncertainty k = 0.109330
        13        19        24        25     9        0.000000       -0.263120         1    ;  uncertainty k = 0.264083
        13        19        24        25     9      180.000000        7.632151         2    ;  uncertainty k = 0.140015
        13        19        24        25     9        0.000000        0.567010         3    ;  uncertainty k = 0.309115
        13        19        24        25     9      180.000000        0.910084         4    ;  uncertainty k = 0.163563
        13        19        24        28     9        0.000000        0.110074         1    ;  uncertainty k = 0.214268
        13        19        24        28     9      180.000000        9.904684         2    ;  uncertainty k = 0.364719
        13        19        24        28     9        0.000000        1.390292         3    ;  uncertainty k = 0.243449
        13        19        24        28     9      180.000000        1.740266         4    ;  uncertainty k = 0.150935
        13        19        47        38     9        0.000000        0.110074         1    ;  uncertainty k = 0.214267
        13        19        47        38     9      180.000000        9.904686         2    ;  uncertainty k = 0.364720
        13        19        47        38     9        0.000000        1.390292         3    ;  uncertainty k = 0.243448
        13        19        47        38     9      180.000000        1.740266         4    ;  uncertainty k = 0.150935
        13        19        47        48     9        0.000000       -0.263121         1    ;  uncertainty k = 0.264083
        13        19        47        48     9      180.000000        7.632152         2    ;  uncertainty k = 0.140016
        13        19        47        48     9        0.000000        0.567011         3    ;  uncertainty k = 0.309115
        13        19        47        48     9      180.000000        0.910084         4    ;  uncertainty k = 0.163562
        14        13        19        24     9        0.000000       -0.039094         1    ;  uncertainty k = 0.264408
        14        13        19        24     9      180.000000        2.012165         2    ;  uncertainty k = 0.154154
        14        13        19        24     9        0.000000        0.435444         3    ;  uncertainty k = 0.052440
        14        13        19        24     9      180.000000        0.245682         4    ;  uncertainty k = 0.058980
        14        13        19        47     9        0.000000       -0.039094         1    ;  uncertainty k = 0.264407
        14        13        19        47     9      180.000000        2.012165         2    ;  uncertainty k = 0.154152
        14        13        19        47     9        0.000000        0.435445         3    ;  uncertainty k = 0.052439
        14        13        19        47     9      180.000000        0.245682         4    ;  uncertainty k = 0.058979
        15        13        19        24     9        0.000000       -0.039094         1    ;  uncertainty k = 0.264408
        15        13        19        24     9      180.000000        2.012165         2    ;  uncertainty k = 0.154154
        15        13        19        24     9        0.000000        0.435444         3    ;  uncertainty k = 0.052440
        15        13        19        24     9      180.000000        0.245682         4    ;  uncertainty k = 0.058980
        15        13        19        47     9        0.000000       -0.039094         1    ;  uncertainty k = 0.264407
        15        13        19        47     9      180.000000        2.012165         2    ;  uncertainty k = 0.154152
        15        13        19        47     9        0.000000        0.435445         3    ;  uncertainty k = 0.052439
        15        13        19        47     9      180.000000        0.245682         4    ;  uncertainty k = 0.058979
        16        11        20        21     9        0.000000       16.389838         1    ;  uncertainty k = 0.301224
        16        11        20        21     9      180.000000       -3.672201         2    ;  uncertainty k = 0.592037
        16        11        20        21     9        0.000000        1.291159         3    ;  uncertainty k = 0.170917
        16        11        20        21     9      180.000000        0.422890         4    ;  uncertainty k = 0.078252
        16        22        27        30     9        0.000000       -0.596129         1    ;  uncertainty k = 0.426033
        16        22        27        30     9      180.000000        0.817484         2    ;  uncertainty k = 0.445652
        16        22        27        30     9        0.000000        0.910106         3    ;  uncertainty k = 0.200247
        16        22        27        30     9      180.000000       -0.096367         4    ;  uncertainty k = 0.072191
        16        22        27        33     9        0.000000        0.701683         1    ;  uncertainty k = 0.595971
        16        22        27        33     9      180.000000       -0.138081         2    ;  uncertainty k = 0.770477
        16        22        27        33     9        0.000000        1.335593         3    ;  uncertainty k = 0.241559
        16        22        27        33     9      180.000000       -0.077681         4    ;  uncertainty k = 0.198649
        16        22        27        55     9        0.000000       -0.596130         1    ;  uncertainty k = 0.426032
        16        22        27        55     9      180.000000        0.817484         2    ;  uncertainty k = 0.445651
        16        22        27        55     9        0.000000        0.910106         3    ;  uncertainty k = 0.200247
        16        22        27        55     9      180.000000       -0.096366         4    ;  uncertainty k = 0.072191
        17        16        11        20     9        0.000000       -0.514289         1    ;  uncertainty k = 0.473599
        17        16        11        20     9      180.000000       -0.198718         2    ;  uncertainty k = 0.779969
        17        16        11        20     9        0.000000        0.827571         3    ;  uncertainty k = 0.290358
        17        16        11        20     9      180.000000       -0.067448         4    ;  uncertainty k = 0.211703
        17        16        22        23     9        0.000000        0.370280         1    ;  uncertainty k = 0.636238
        17        16        22        23     9      180.000000       -0.132100         2    ;  uncertainty k = 0.238132
        17        16        22        23     9        0.000000        0.259720         3    ;  uncertainty k = 0.102797
        17        16        22        23     9      180.000000        0.015971         4    ;  uncertainty k = 0.168575
        17        16        22        26     9        0.000000        0.370280         1    ;  uncertainty k = 0.636238
        17        16        22        26     9      180.000000       -0.132100         2    ;  uncertainty k = 0.238132
        17        16        22        26     9        0.000000        0.259720         3    ;  uncertainty k = 0.102797
        17        16        22        26     9      180.000000        0.015971         4    ;  uncertainty k = 0.168575
        17        16        22        27     9        0.000000        0.778038         1    ;  uncertainty k = 0.653896
        17        16        22        27     9      180.000000       -1.002791         2    ;  uncertainty k = 0.231945
        17        16        22        27     9        0.000000        0.865838         3    ;  uncertainty k = 0.136066
        17        16        22        27     9      180.000000       -0.082663         4    ;  uncertainty k = 0.174919
        18        16        11        20     9        0.000000       -0.514289         1    ;  uncertainty k = 0.473599
        18        16        11        20     9      180.000000       -0.198718         2    ;  uncertainty k = 0.779969
        18        16        11        20     9        0.000000        0.827571         3    ;  uncertainty k = 0.290358
        18        16        11        20     9      180.000000       -0.067448         4    ;  uncertainty k = 0.211703
        18        16        22        23     9        0.000000        0.370280         1    ;  uncertainty k = 0.636238
        18        16        22        23     9      180.000000       -0.132100         2    ;  uncertainty k = 0.238132
        18        16        22        23     9        0.000000        0.259720         3    ;  uncertainty k = 0.102797
        18        16        22        23     9      180.000000        0.015971         4    ;  uncertainty k = 0.168575
        18        16        22        26     9        0.000000        0.370280         1    ;  uncertainty k = 0.636238
        18        16        22        26     9      180.000000       -0.132100         2    ;  uncertainty k = 0.238132
        18        16        22        26     9        0.000000        0.259720         3    ;  uncertainty k = 0.102797
        18        16        22        26     9      180.000000        0.015971         4    ;  uncertainty k = 0.168575
        18        16        22        27     9        0.000000        0.778038         1    ;  uncertainty k = 0.653896
        18        16        22        27     9      180.000000       -1.002791         2    ;  uncertainty k = 0.231945
        18        16        22        27     9        0.000000        0.865838         3    ;  uncertainty k = 0.136066
        18        16        22        27     9      180.000000       -0.082663         4    ;  uncertainty k = 0.174919
        19        24        28        29     9        0.000000       -0.127667         1    ;  uncertainty k = 0.303255
        19        24        28        29     9      180.000000       12.478619         2    ;  uncertainty k = 0.567057
        19        24        28        29     9        0.000000        1.533163         3    ;  uncertainty k = 0.276196
        19        24        28        29     9      180.000000        1.474302         4    ;  uncertainty k = 0.234352
        19        24        28        34     9        0.000000       -0.053166         1    ;  uncertainty k = 0.191079
        19        24        28        34     9      180.000000        8.783283         2    ;  uncertainty k = 0.607469
        19        24        28        34     9        0.000000       -0.050043         3    ;  uncertainty k = 0.446776
        19        24        28        34     9      180.000000        1.273740         4    ;  uncertainty k = 0.296894
        19        47        38        34     9        0.000000       -0.053167         1    ;  uncertainty k = 0.191078
        19        47        38        34     9      180.000000        8.783284         2    ;  uncertainty k = 0.607468
        19        47        38        34     9        0.000000       -0.050044         3    ;  uncertainty k = 0.446777
        19        47        38        34     9      180.000000        1.273740         4    ;  uncertainty k = 0.296895
        19        47        38        39     9        0.000000       -0.127666         1    ;  uncertainty k = 0.303255
        19        47        38        39     9      180.000000       12.478619         2    ;  uncertainty k = 0.567057
        19        47        38        39     9        0.000000        1.533163         3    ;  uncertainty k = 0.276196
        19        47        38        39     9      180.000000        1.474302         4    ;  uncertainty k = 0.234352
        20        11        16        22     9        0.000000        4.304522         1    ;  uncertainty k = 1.001860
        20        11        16        22     9      180.000000       -2.577612         2    ;  uncertainty k = 0.965948
        20        11        16        22     9        0.000000        1.229514         3    ;  uncertainty k = 0.306165
        20        11        16        22     9      180.000000       -0.540715         4    ;  uncertainty k = 0.252532
        22        27        30        31     9        0.000000       -0.627898         1    ;  uncertainty k = 0.250010
        22        27        30        31     9      180.000000       -1.890750         2    ;  uncertainty k = 0.236222
        22        27        30        31     9        0.000000        0.577065         3    ;  uncertainty k = 0.152599
        22        27        30        31     9      180.000000       -0.207597         4    ;  uncertainty k = 0.134003
        22        27        30        32     9        0.000000       -0.627898         1    ;  uncertainty k = 0.250010
        22        27        30        32     9      180.000000       -1.890750         2    ;  uncertainty k = 0.236222
        22        27        30        32     9        0.000000        0.577065         3    ;  uncertainty k = 0.152599
        22        27        30        32     9      180.000000       -0.207597         4    ;  uncertainty k = 0.134003
        22        27        30        36     9        0.000000       -0.292656         1    ;  uncertainty k = 0.469700
        22        27        30        36     9      180.000000       -1.069460         2    ;  uncertainty k = 0.621820
        22        27        30        36     9        0.000000        1.044854         3    ;  uncertainty k = 0.399383
        22        27        30        36     9      180.000000        0.028420         4    ;  uncertainty k = 0.255629
        22        27        33        37     9        0.000000        0.794779         1    ;  uncertainty k = 0.856096
        22        27        33        37     9      180.000000        2.019887         2    ;  uncertainty k = 0.527981
        22        27        33        37     9        0.000000        0.642611         3    ;  uncertainty k = 0.213808
        22        27        33        37     9      180.000000        0.194247         4    ;  uncertainty k = 0.104063
        22        27        33        61     9        0.000000        0.004303         1    ;  uncertainty k = 0.442755
        22        27        33        61     9      180.000000        2.114279         2    ;  uncertainty k = 0.562902
        22        27        33        61     9        0.000000        0.676520         3    ;  uncertainty k = 0.222485
        22        27        33        61     9      180.000000        0.194407         4    ;  uncertainty k = 0.128551
        22        27        55        49     9        0.000000       -0.292655         1    ;  uncertainty k = 0.469701
        22        27        55        49     9      180.000000       -1.069460         2    ;  uncertainty k = 0.621822
        22        27        55        49     9        0.000000        1.044854         3    ;  uncertainty k = 0.399383
        22        27        55        49     9      180.000000        0.028420         4    ;  uncertainty k = 0.255630
        22        27        55        56     9        0.000000       -0.627899         1    ;  uncertainty k = 0.250011
        22        27        55        56     9      180.000000       -1.890749         2    ;  uncertainty k = 0.236221
        22        27        55        56     9        0.000000        0.577064         3    ;  uncertainty k = 0.152598
        22        27        55        56     9      180.000000       -0.207597         4    ;  uncertainty k = 0.134003
        22        27        55        57     9        0.000000       -0.627899         1    ;  uncertainty k = 0.250011
        22        27        55        57     9      180.000000       -1.890749         2    ;  uncertainty k = 0.236221
        22        27        55        57     9        0.000000        0.577064         3    ;  uncertainty k = 0.152598
        22        27        55        57     9      180.000000       -0.207597         4    ;  uncertainty k = 0.134003
        23        22        27        30     9        0.000000       -0.553991         1    ;  uncertainty k = 1.539558
        23        22        27        30     9      180.000000        0.366092         2    ;  uncertainty k = 0.538431
        23        22        27        30     9        0.000000        0.524765         3    ;  uncertainty k = 0.176105
        23        22        27        30     9      180.000000       -0.109816         4    ;  uncertainty k = 0.077089
        23        22        27        33     9        0.000000        3.018306         1    ;  uncertainty k = 0.974783
        23        22        27        33     9      180.000000        0.158134         2    ;  uncertainty k = 0.224949
        23        22        27        33     9        0.000000        0.639049         3    ;  uncertainty k = 0.397302
        23        22        27        33     9      180.000000       -0.148768         4    ;  uncertainty k = 0.109216
        23        22        27        55     9        0.000000       -0.553992         1    ;  uncertainty k = 1.539558
        23        22        27        55     9      180.000000        0.366093         2    ;  uncertainty k = 0.538432
        23        22        27        55     9        0.000000        0.524765         3    ;  uncertainty k = 0.176105
        23        22        27        55     9      180.000000       -0.109815         4    ;  uncertainty k = 0.077089
        24        19        47        38     9        0.000000       -0.194148         1    ;  uncertainty k = 0.229850
        24        19        47        38     9      180.000000       11.992983         2    ;  uncertainty k = 0.370745
        24        19        47        38     9        0.000000       -0.300681         3    ;  uncertainty k = 0.435491
        24        19        47        38     9      180.000000        0.903339         4    ;  uncertainty k = 0.359219
        24        19        47        48     9        0.000000        0.216233         1    ;  uncertainty k = 0.175925
        24        19        47        48     9      180.000000        7.293882         2    ;  uncertainty k = 0.645817
        24        19        47        48     9        0.000000        1.519205         3    ;  uncertainty k = 0.416345
        24        19        47        48     9      180.000000        1.640671         4    ;  uncertainty k = 0.160063
        24        28        34        35     9        0.000000        0.113274         1    ;  uncertainty k = 0.163886
        24        28        34        35     9      180.000000        5.570069         2    ;  uncertainty k = 0.658049
        24        28        34        35     9        0.000000        1.285226         3    ;  uncertainty k = 0.310395
        24        28        34        35     9      180.000000        1.458916         4    ;  uncertainty k = 0.148552
        24        28        34        38     9        0.000000       -0.020920         1    ;  uncertainty k = 0.157045
        24        28        34        38     9      180.000000        9.170649         2    ;  uncertainty k = 0.439327
        24        28        34        38     9        0.000000       -0.195729         3    ;  uncertainty k = 0.474557
        24        28        34        38     9      180.000000        1.239477         4    ;  uncertainty k = 0.264396
        25        24        19        47     9        0.000000        0.216234         1    ;  uncertainty k = 0.175926
        25        24        19        47     9      180.000000        7.293882         2    ;  uncertainty k = 0.645818
        25        24        19        47     9        0.000000        1.519205         3    ;  uncertainty k = 0.416346
        25        24        19        47     9      180.000000        1.640671         4    ;  uncertainty k = 0.160063
        25        24        28        29     9        0.000000       -0.338324         1    ;  uncertainty k = 0.125407
        25        24        28        29     9      180.000000        9.023859         2    ;  uncertainty k = 0.342385
        25        24        28        29     9        0.000000        0.780161         3    ;  uncertainty k = 0.283674
        25        24        28        29     9      180.000000        0.968908         4    ;  uncertainty k = 0.220959
        25        24        28        34     9        0.000000        0.000249         1    ;  uncertainty k = 0.206465
        25        24        28        34     9      180.000000        5.882344         2    ;  uncertainty k = 0.714480
        25        24        28        34     9        0.000000        1.305116         3    ;  uncertainty k = 0.360333
        25        24        28        34     9      180.000000        1.568343         4    ;  uncertainty k = 0.171881
        26        22        27        30     9        0.000000       -0.553991         1    ;  uncertainty k = 1.539558
        26        22        27        30     9      180.000000        0.366092         2    ;  uncertainty k = 0.538431
        26        22        27        30     9        0.000000        0.524765         3    ;  uncertainty k = 0.176105
        26        22        27        30     9      180.000000       -0.109816         4    ;  uncertainty k = 0.077089
        26        22        27        33     9        0.000000        3.018306         1    ;  uncertainty k = 0.974783
        26        22        27        33     9      180.000000        0.158134         2    ;  uncertainty k = 0.224949
        26        22        27        33     9        0.000000        0.639049         3    ;  uncertainty k = 0.397302
        26        22        27        33     9      180.000000       -0.148768         4    ;  uncertainty k = 0.109216
        26        22        27        55     9        0.000000       -0.553992         1    ;  uncertainty k = 1.539558
        26        22        27        55     9      180.000000        0.366093         2    ;  uncertainty k = 0.538432
        26        22        27        55     9        0.000000        0.524765         3    ;  uncertainty k = 0.176105
        26        22        27        55     9      180.000000       -0.109815         4    ;  uncertainty k = 0.077089
        27        30        36        40     9        0.000000       -0.410085         1    ;  uncertainty k = 0.521799
        27        30        36        40     9      180.000000       -1.102946         2    ;  uncertainty k = 0.249577
        27        30        36        40     9        0.000000        0.415261         3    ;  uncertainty k = 0.192294
        27        30        36        40     9      180.000000       -0.068925         4    ;  uncertainty k = 0.099884
        27        30        36        41     9        0.000000       -0.410085         1    ;  uncertainty k = 0.521799
        27        30        36        41     9      180.000000       -1.102946         2    ;  uncertainty k = 0.249577
        27        30        36        41     9        0.000000        0.415261         3    ;  uncertainty k = 0.192294
        27        30        36        41     9      180.000000       -0.068925         4    ;  uncertainty k = 0.099884
        27        30        36        43     9        0.000000       -4.123640         1    ;  uncertainty k = 0.865442
        27        30        36        43     9      180.000000       -1.149355         2    ;  uncertainty k = 0.718371
        27        30        36        43     9        0.000000        1.570673         3    ;  uncertainty k = 0.127160
        27        30        36        43     9      180.000000       -0.991785         4    ;  uncertainty k = 0.071114
        27        33        37        42     9        0.000000       -0.313903         1    ;  uncertainty k = 0.425905
        27        33        37        42     9      180.000000        7.374285         2    ;  uncertainty k = 0.269281
        27        33        37        42     9        0.000000        0.666305         3    ;  uncertainty k = 0.270488
        27        33        37        42     9      180.000000        1.012469         4    ;  uncertainty k = 0.254619
        27        33        37        46     9        0.000000        0.280686         1    ;  uncertainty k = 0.376996
        27        33        37        46     9      180.000000        8.968656         2    ;  uncertainty k = 0.500002
        27        33        37        46     9        0.000000        1.306572         3    ;  uncertainty k = 0.258436
        27        33        37        46     9      180.000000        1.747006         4    ;  uncertainty k = 0.200362
        27        33        61        58     9        0.000000        0.268528         1    ;  uncertainty k = 0.382954
        27        33        61        58     9      180.000000        9.013528         2    ;  uncertainty k = 0.764583
        27        33        61        58     9        0.000000        1.403727         3    ;  uncertainty k = 0.394091
        27        33        61        58     9      180.000000        1.709730         4    ;  uncertainty k = 0.240226
        27        33        61        62     9        0.000000       -0.184518         1    ;  uncertainty k = 0.246697
        27        33        61        62     9      180.000000        7.393435         2    ;  uncertainty k = 0.391563
        27        33        61        62     9        0.000000        0.743754         3    ;  uncertainty k = 0.252950
        27        33        61        62     9      180.000000        1.015981         4    ;  uncertainty k = 0.251144
        27        55        49        43     9        0.000000       -4.123641         1    ;  uncertainty k = 0.865443
        27        55        49        43     9      180.000000       -1.149354         2    ;  uncertainty k = 0.718372
        27        55        49        43     9        0.000000        1.570673         3    ;  uncertainty k = 0.127161
        27        55        49        43     9      180.000000       -0.991785         4    ;  uncertainty k = 0.071114
        27        55        49        50     9        0.000000       -0.410085         1    ;  uncertainty k = 0.521799
        27        55        49        50     9      180.000000       -1.102947         2    ;  uncertainty k = 0.249578
        27        55        49        50     9        0.000000        0.415261         3    ;  uncertainty k = 0.192294
        27        55        49        50     9      180.000000       -0.068924         4    ;  uncertainty k = 0.099884
        27        55        49        51     9        0.000000       -0.410085         1    ;  uncertainty k = 0.521799
        27        55        49        51     9      180.000000       -1.102947         2    ;  uncertainty k = 0.249578
        27        55        49        51     9        0.000000        0.415261         3    ;  uncertainty k = 0.192294
        27        55        49        51     9      180.000000       -0.068924         4    ;  uncertainty k = 0.099884
        28        24        19        47     9        0.000000       -0.194148         1    ;  uncertainty k = 0.229850
        28        24        19        47     9      180.000000       11.992984         2    ;  uncertainty k = 0.370744
        28        24        19        47     9        0.000000       -0.300681         3    ;  uncertainty k = 0.435492
        28        24        19        47     9      180.000000        0.903339         4    ;  uncertainty k = 0.359220
        28        34        38        39     9        0.000000       -0.058105         1    ;  uncertainty k = 0.253381
        28        34        38        39     9      180.000000       12.532833         2    ;  uncertainty k = 0.664664
        28        34        38        39     9        0.000000        1.588332         3    ;  uncertainty k = 0.317469
        28        34        38        39     9      180.000000        1.491709         4    ;  uncertainty k = 0.286719
        28        34        38        47     9        0.000000       -0.020922         1    ;  uncertainty k = 0.157047
        28        34        38        47     9      180.000000        9.170647         2    ;  uncertainty k = 0.439327
        28        34        38        47     9        0.000000       -0.195730         3    ;  uncertainty k = 0.474558
        28        34        38        47     9      180.000000        1.239476         4    ;  uncertainty k = 0.264396
        29        28        34        35     9        0.000000       -0.240771         1    ;  uncertainty k = 0.279190
        29        28        34        35     9      180.000000        8.519236         2    ;  uncertainty k = 0.364230
        29        28        34        35     9        0.000000        0.792415         3    ;  uncertainty k = 0.318593
        29        28        34        35     9      180.000000        0.989252         4    ;  uncertainty k = 0.224408
        29        28        34        38     9        0.000000       -0.058106         1    ;  uncertainty k = 0.253381
        29        28        34        38     9      180.000000       12.532832         2    ;  uncertainty k = 0.664665
        29        28        34        38     9        0.000000        1.588331         3    ;  uncertainty k = 0.317470
        29        28        34        38     9      180.000000        1.491709         4    ;  uncertainty k = 0.286719
        30        27        33        37     9        0.000000       -0.389874         1    ;  uncertainty k = 0.493213
        30        27        33        37     9      180.000000        2.366882         2    ;  uncertainty k = 0.419348
        30        27        33        37     9        0.000000        0.354063         3    ;  uncertainty k = 0.128737
        30        27        33        37     9      180.000000        0.173272         4    ;  uncertainty k = 0.057568
        30        27        33        61     9        0.000000       -0.445100         1    ;  uncertainty k = 0.423442
        30        27        33        61     9      180.000000        2.295771         2    ;  uncertainty k = 0.395001
        30        27        33        61     9        0.000000        0.447303         3    ;  uncertainty k = 0.149465
        30        27        33        61     9      180.000000        0.209138         4    ;  uncertainty k = 0.084508
        30        27        55        49     9        0.000000       -0.133596         1    ;  uncertainty k = 1.756741
        30        27        55        49     9      180.000000        0.923223         2    ;  uncertainty k = 0.345174
        30        27        55        49     9        0.000000        0.721200         3    ;  uncertainty k = 0.380890
        30        27        55        49     9      180.000000       -0.913817         4    ;  uncertainty k = 0.257025
        30        27        55        56     9        0.000000       -1.130929         1    ;  uncertainty k = 0.308985
        30        27        55        56     9      180.000000       -0.279147         2    ;  uncertainty k = 0.174654
        30        27        55        56     9        0.000000       -0.104794         3    ;  uncertainty k = 0.141036
        30        27        55        56     9      180.000000       -0.072372         4    ;  uncertainty k = 0.069369
        30        27        55        57     9        0.000000       -1.130929         1    ;  uncertainty k = 0.308985
        30        27        55        57     9      180.000000       -0.279147         2    ;  uncertainty k = 0.174654
        30        27        55        57     9        0.000000       -0.104794         3    ;  uncertainty k = 0.141036
        30        27        55        57     9      180.000000       -0.072372         4    ;  uncertainty k = 0.069369
        30        36        43        44     9        0.000000       -1.999805         1    ;  uncertainty k = 0.225318
        30        36        43        44     9      180.000000       -0.232324         2    ;  uncertainty k = 0.172198
        30        36        43        44     9        0.000000        0.488841         3    ;  uncertainty k = 0.205544
        30        36        43        44     9      180.000000       -0.107598         4    ;  uncertainty k = 0.052869
        30        36        43        45     9        0.000000       -1.999805         1    ;  uncertainty k = 0.225318
        30        36        43        45     9      180.000000       -0.232324         2    ;  uncertainty k = 0.172198
        30        36        43        45     9        0.000000        0.488841         3    ;  uncertainty k = 0.205544
        30        36        43        45     9      180.000000       -0.107598         4    ;  uncertainty k = 0.052869
        30        36        43        49     9        0.000000       -8.611498         1    ;  uncertainty k = 1.562644
        30        36        43        49     9      180.000000        1.369362         2    ;  uncertainty k = 0.438701
        30        36        43        49     9        0.000000        1.783440         3    ;  uncertainty k = 0.147500
        30        36        43        49     9      180.000000       -1.140308         4    ;  uncertainty k = 0.234597
        31        30        27        33     9        0.000000        1.042517         1    ;  uncertainty k = 0.646062
        31        30        27        33     9      180.000000       -0.230172         2    ;  uncertainty k = 0.461989
        31        30        27        33     9        0.000000        0.521956         3    ;  uncertainty k = 0.211064
        31        30        27        33     9      180.000000       -0.016708         4    ;  uncertainty k = 0.037975
        31        30        27        55     9        0.000000       -1.130930         1    ;  uncertainty k = 0.308985
        31        30        27        55     9      180.000000       -0.279148         2    ;  uncertainty k = 0.174655
        31        30        27        55     9        0.000000       -0.104795         3    ;  uncertainty k = 0.141035
        31        30        27        55     9      180.000000       -0.072371         4    ;  uncertainty k = 0.069369
        31        30        36        40     9        0.000000        1.865633         1    ;  uncertainty k = 0.151738
        31        30        36        40     9      180.000000       -0.051734         2    ;  uncertainty k = 0.121265
        31        30        36        40     9        0.000000        0.308088         3    ;  uncertainty k = 0.074080
        31        30        36        40     9      180.000000        0.151763         4    ;  uncertainty k = 0.037921
        31        30        36        41     9        0.000000        1.865633         1    ;  uncertainty k = 0.151738
        31        30        36        41     9      180.000000       -0.051734         2    ;  uncertainty k = 0.121265
        31        30        36        41     9        0.000000        0.308088         3    ;  uncertainty k = 0.074080
        31        30        36        41     9      180.000000        0.151763         4    ;  uncertainty k = 0.037921
        31        30        36        43     9        0.000000       -1.983969         1    ;  uncertainty k = 0.669414
        31        30        36        43     9      180.000000       -0.050872         2    ;  uncertainty k = 0.260863
        31        30        36        43     9        0.000000        0.508700         3    ;  uncertainty k = 0.104846
        31        30        36        43     9      180.000000       -0.031107         4    ;  uncertainty k = 0.060995
        32        30        27        33     9        0.000000        1.042517         1    ;  uncertainty k = 0.646062
        32        30        27        33     9      180.000000       -0.230172         2    ;  uncertainty k = 0.461989
        32        30        27        33     9        0.000000        0.521956         3    ;  uncertainty k = 0.211064
        32        30        27        33     9      180.000000       -0.016708         4    ;  uncertainty k = 0.037975
        32        30        27        55     9        0.000000       -1.130930         1    ;  uncertainty k = 0.308985
        32        30        27        55     9      180.000000       -0.279148         2    ;  uncertainty k = 0.174655
        32        30        27        55     9        0.000000       -0.104795         3    ;  uncertainty k = 0.141035
        32        30        27        55     9      180.000000       -0.072371         4    ;  uncertainty k = 0.069369
        32        30        36        40     9        0.000000        1.865633         1    ;  uncertainty k = 0.151738
        32        30        36        40     9      180.000000       -0.051734         2    ;  uncertainty k = 0.121265
        32        30        36        40     9        0.000000        0.308088         3    ;  uncertainty k = 0.074080
        32        30        36        40     9      180.000000        0.151763         4    ;  uncertainty k = 0.037921
        32        30        36        41     9        0.000000        1.865633         1    ;  uncertainty k = 0.151738
        32        30        36        41     9      180.000000       -0.051734         2    ;  uncertainty k = 0.121265
        32        30        36        41     9        0.000000        0.308088         3    ;  uncertainty k = 0.074080
        32        30        36        41     9      180.000000        0.151763         4    ;  uncertainty k = 0.037921
        32        30        36        43     9        0.000000       -1.983969         1    ;  uncertainty k = 0.669414
        32        30        36        43     9      180.000000       -0.050872         2    ;  uncertainty k = 0.260863
        32        30        36        43     9        0.000000        0.508700         3    ;  uncertainty k = 0.104846
        32        30        36        43     9      180.000000       -0.031107         4    ;  uncertainty k = 0.060995
        33        27        30        36     9        0.000000       -2.351489         1    ;  uncertainty k = 0.960182
        33        27        30        36     9      180.000000        0.767978         2    ;  uncertainty k = 0.310658
        33        27        30        36     9        0.000000        0.828763         3    ;  uncertainty k = 0.252682
        33        27        30        36     9      180.000000       -0.080201         4    ;  uncertainty k = 0.074170
        33        27        55        49     9        0.000000       -2.351490         1    ;  uncertainty k = 0.960183
        33        27        55        49     9      180.000000        0.767979         2    ;  uncertainty k = 0.310658
        33        27        55        49     9        0.000000        0.828763         3    ;  uncertainty k = 0.252682
        33        27        55        49     9      180.000000       -0.080200         4    ;  uncertainty k = 0.074169
        33        27        55        56     9        0.000000        1.042516         1    ;  uncertainty k = 0.646061
        33        27        55        56     9      180.000000       -0.230173         2    ;  uncertainty k = 0.461989
        33        27        55        56     9        0.000000        0.521956         3    ;  uncertainty k = 0.211064
        33        27        55        56     9      180.000000       -0.016708         4    ;  uncertainty k = 0.037974
        33        27        55        57     9        0.000000        1.042516         1    ;  uncertainty k = 0.646061
        33        27        55        57     9      180.000000       -0.230173         2    ;  uncertainty k = 0.461989
        33        27        55        57     9        0.000000        0.521956         3    ;  uncertainty k = 0.211064
        33        27        55        57     9      180.000000       -0.016708         4    ;  uncertainty k = 0.037974
        33        37        46        52     9        0.000000        0.130726         1    ;  uncertainty k = 0.505673
        33        37        46        52     9      180.000000        8.783877         2    ;  uncertainty k = 0.352643
        33        37        46        52     9        0.000000        0.122824         3    ;  uncertainty k = 0.246543
        33        37        46        52     9      180.000000        1.266725         4    ;  uncertainty k = 0.240067
        33        37        46        54     9        0.000000        0.322408         1    ;  uncertainty k = 0.254509
        33        37        46        54     9      180.000000       10.041965         2    ;  uncertainty k = 0.462004
        33        37        46        54     9        0.000000        1.276986         3    ;  uncertainty k = 0.219699
        33        37        46        54     9      180.000000        1.612044         4    ;  uncertainty k = 0.183649
        33        61        58        52     9        0.000000       -0.093908         1    ;  uncertainty k = 0.271739
        33        61        58        52     9      180.000000       13.570115         2    ;  uncertainty k = 0.266768
        33        61        58        52     9        0.000000       -0.741474         3    ;  uncertainty k = 0.457747
        33        61        58        52     9      180.000000        0.792318         4    ;  uncertainty k = 0.209490
        33        61        58        59     9        0.000000        0.019299         1    ;  uncertainty k = 0.314619
        33        61        58        59     9      180.000000        7.412725         2    ;  uncertainty k = 0.231683
        33        61        58        59     9        0.000000        1.495669         3    ;  uncertainty k = 0.219038
        33        61        58        59     9      180.000000        1.732971         4    ;  uncertainty k = 0.088301
        34        38        47        48     9        0.000000        0.000250         1    ;  uncertainty k = 0.206465
        34        38        47        48     9      180.000000        5.882345         2    ;  uncertainty k = 0.714480
        34        38        47        48     9        0.000000        1.305115         3    ;  uncertainty k = 0.360334
        34        38        47        48     9      180.000000        1.568343         4    ;  uncertainty k = 0.171880
        35        34        38        39     9        0.000000       -0.240771         1    ;  uncertainty k = 0.279191
        35        34        38        39     9      180.000000        8.519234         2    ;  uncertainty k = 0.364229
        35        34        38        39     9        0.000000        0.792415         3    ;  uncertainty k = 0.318594
        35        34        38        39     9      180.000000        0.989252         4    ;  uncertainty k = 0.224408
        35        34        38        47     9        0.000000        0.113274         1    ;  uncertainty k = 0.163887
        35        34        38        47     9      180.000000        5.570070         2    ;  uncertainty k = 0.658049
        35        34        38        47     9        0.000000        1.285225         3    ;  uncertainty k = 0.310395
        35        34        38        47     9      180.000000        1.458916         4    ;  uncertainty k = 0.148553
        36        30        27        55     9        0.000000       -0.133599         1    ;  uncertainty k = 1.756741
        36        30        27        55     9      180.000000        0.923225         2    ;  uncertainty k = 0.345177
        36        30        27        55     9        0.000000        0.721201         3    ;  uncertainty k = 0.380890
        36        30        27        55     9      180.000000       -0.913817         4    ;  uncertainty k = 0.257025
        36        43        49        50     9        0.000000       -1.682033         1    ;  uncertainty k = 0.270101
        36        43        49        50     9      180.000000       -0.450516         2    ;  uncertainty k = 0.170394
        36        43        49        50     9        0.000000        0.426110         3    ;  uncertainty k = 0.085850
        36        43        49        50     9      180.000000       -0.018605         4    ;  uncertainty k = 0.047628
        36        43        49        51     9        0.000000       -1.682033         1    ;  uncertainty k = 0.270101
        36        43        49        51     9      180.000000       -0.450516         2    ;  uncertainty k = 0.170394
        36        43        49        51     9        0.000000        0.426110         3    ;  uncertainty k = 0.085850
        36        43        49        51     9      180.000000       -0.018605         4    ;  uncertainty k = 0.047628
        36        43        49        55     9        0.000000       -8.611498         1    ;  uncertainty k = 1.562641
        36        43        49        55     9      180.000000        1.369361         2    ;  uncertainty k = 0.438702
        36        43        49        55     9        0.000000        1.783440         3    ;  uncertainty k = 0.147501
        36        43        49        55     9      180.000000       -1.140309         4    ;  uncertainty k = 0.234597
        37        33        27        55     9        0.000000       -0.389875         1    ;  uncertainty k = 0.493214
        37        33        27        55     9      180.000000        2.366883         2    ;  uncertainty k = 0.419348
        37        33        27        55     9        0.000000        0.354063         3    ;  uncertainty k = 0.128737
        37        33        27        55     9      180.000000        0.173272         4    ;  uncertainty k = 0.057568
        37        33        61        58     9        0.000000       -0.243370         1    ;  uncertainty k = 0.273263
        37        33        61        58     9      180.000000       12.023271         2    ;  uncertainty k = 0.489460
        37        33        61        58     9        0.000000       -0.381448         3    ;  uncertainty k = 0.272052
        37        33        61        58     9      180.000000        0.916300         4    ;  uncertainty k = 0.264272
        37        33        61        62     9        0.000000        0.051781         1    ;  uncertainty k = 0.136387
        37        33        61        62     9      180.000000        7.625308         2    ;  uncertainty k = 0.603903
        37        33        61        62     9        0.000000        1.429963         3    ;  uncertainty k = 0.334401
        37        33        61        62     9      180.000000        1.627223         4    ;  uncertainty k = 0.181368
        37        46        52        53     9        0.000000        0.308777         1    ;  uncertainty k = 0.217306
        37        46        52        53     9      180.000000        6.379982         2    ;  uncertainty k = 0.611743
        37        46        52        53     9        0.000000        1.364007         3    ;  uncertainty k = 0.349728
        37        46        52        53     9      180.000000        1.642650         4    ;  uncertainty k = 0.269689
        37        46        52        58     9        0.000000       -0.069268         1    ;  uncertainty k = 0.170665
        37        46        52        58     9      180.000000        9.648035         2    ;  uncertainty k = 0.270266
        37        46        52        58     9        0.000000       -0.159927         3    ;  uncertainty k = 0.311416
        37        46        52        58     9      180.000000        1.184146         4    ;  uncertainty k = 0.272158
        37        46        54        60     9        0.000000        1.025396         1    ;  uncertainty k = 0.575108
        37        46        54        60     9      180.000000        4.954477         2    ;  uncertainty k = 0.371408
        37        46        54        60     9        0.000000        0.525525         3    ;  uncertainty k = 0.172041
        37        46        54        60     9      180.000000       -0.001529         4    ;  uncertainty k = 0.019546
        37        46        54        67     9        0.000000        0.926555         1    ;  uncertainty k = 0.505504
        37        46        54        67     9      180.000000        3.695768         2    ;  uncertainty k = 0.218945
        37        46        54        67     9        0.000000        0.614551         3    ;  uncertainty k = 0.212035
        37        46        54        67     9      180.000000       -0.103182         4    ;  uncertainty k = 0.046090
        39        38        47        48     9        0.000000       -0.338324         1    ;  uncertainty k = 0.125407
        39        38        47        48     9      180.000000        9.023857         2    ;  uncertainty k = 0.342386
        39        38        47        48     9        0.000000        0.780162         3    ;  uncertainty k = 0.283675
        39        38        47        48     9      180.000000        0.968908         4    ;  uncertainty k = 0.220959
        40        36        43        44     9        0.000000        2.507999         1    ;  uncertainty k = 0.657804
        40        36        43        44     9      180.000000       -0.113206         2    ;  uncertainty k = 0.041036
        40        36        43        44     9        0.000000        0.237190         3    ;  uncertainty k = 0.141933
        40        36        43        44     9      180.000000        0.113988         4    ;  uncertainty k = 0.030644
        40        36        43        45     9        0.000000        2.507999         1    ;  uncertainty k = 0.657804
        40        36        43        45     9      180.000000       -0.113206         2    ;  uncertainty k = 0.041036
        40        36        43        45     9        0.000000        0.237190         3    ;  uncertainty k = 0.141933
        40        36        43        45     9      180.000000        0.113988         4    ;  uncertainty k = 0.030644
        40        36        43        49     9        0.000000       -1.682034         1    ;  uncertainty k = 0.270102
        40        36        43        49     9      180.000000       -0.450514         2    ;  uncertainty k = 0.170395
        40        36        43        49     9        0.000000        0.426110         3    ;  uncertainty k = 0.085850
        40        36        43        49     9      180.000000       -0.018604         4    ;  uncertainty k = 0.047629
        41        36        43        44     9        0.000000        2.507999         1    ;  uncertainty k = 0.657804
        41        36        43        44     9      180.000000       -0.113206         2    ;  uncertainty k = 0.041036
        41        36        43        44     9        0.000000        0.237190         3    ;  uncertainty k = 0.141933
        41        36        43        44     9      180.000000        0.113988         4    ;  uncertainty k = 0.030644
        41        36        43        45     9        0.000000        2.507999         1    ;  uncertainty k = 0.657804
        41        36        43        45     9      180.000000       -0.113206         2    ;  uncertainty k = 0.041036
        41        36        43        45     9        0.000000        0.237190         3    ;  uncertainty k = 0.141933
        41        36        43        45     9      180.000000        0.113988         4    ;  uncertainty k = 0.030644
        41        36        43        49     9        0.000000       -1.682034         1    ;  uncertainty k = 0.270102
        41        36        43        49     9      180.000000       -0.450514         2    ;  uncertainty k = 0.170395
        41        36        43        49     9        0.000000        0.426110         3    ;  uncertainty k = 0.085850
        41        36        43        49     9      180.000000       -0.018604         4    ;  uncertainty k = 0.047629
        42        37        33        61     9        0.000000        0.149781         1    ;  uncertainty k = 0.196599
        42        37        33        61     9      180.000000        7.853132         2    ;  uncertainty k = 0.415356
        42        37        33        61     9        0.000000        1.532276         3    ;  uncertainty k = 0.280592
        42        37        33        61     9      180.000000        1.665898         4    ;  uncertainty k = 0.193750
        42        37        46        52     9        0.000000        0.230620         1    ;  uncertainty k = 0.247420
        42        37        46        52     9      180.000000        6.744961         2    ;  uncertainty k = 0.634122
        42        37        46        52     9        0.000000        1.425416         3    ;  uncertainty k = 0.205351
        42        37        46        52     9      180.000000        1.654417         4    ;  uncertainty k = 0.283861
        42        37        46        54     9        0.000000       -0.034553         1    ;  uncertainty k = 0.267690
        42        37        46        54     9      180.000000        8.182800         2    ;  uncertainty k = 0.179157
        42        37        46        54     9        0.000000        0.716612         3    ;  uncertainty k = 0.185483
        42        37        46        54     9      180.000000        1.295765         4    ;  uncertainty k = 0.140150
        43        49        55        56     9        0.000000       -1.983969         1    ;  uncertainty k = 0.669418
        43        49        55        56     9      180.000000       -0.050871         2    ;  uncertainty k = 0.260863
        43        49        55        56     9        0.000000        0.508699         3    ;  uncertainty k = 0.104846
        43        49        55        56     9      180.000000       -0.031107         4    ;  uncertainty k = 0.060996
        43        49        55        57     9        0.000000       -1.983969         1    ;  uncertainty k = 0.669418
        43        49        55        57     9      180.000000       -0.050871         2    ;  uncertainty k = 0.260863
        43        49        55        57     9        0.000000        0.508699         3    ;  uncertainty k = 0.104846
        43        49        55        57     9      180.000000       -0.031107         4    ;  uncertainty k = 0.060996
        44        43        49        50     9        0.000000        2.507999         1    ;  uncertainty k = 0.657804
        44        43        49        50     9      180.000000       -0.113205         2    ;  uncertainty k = 0.041036
        44        43        49        50     9        0.000000        0.237190         3    ;  uncertainty k = 0.141933
        44        43        49        50     9      180.000000        0.113988         4    ;  uncertainty k = 0.030644
        44        43        49        51     9        0.000000        2.507999         1    ;  uncertainty k = 0.657804
        44        43        49        51     9      180.000000       -0.113205         2    ;  uncertainty k = 0.041036
        44        43        49        51     9        0.000000        0.237190         3    ;  uncertainty k = 0.141933
        44        43        49        51     9      180.000000        0.113988         4    ;  uncertainty k = 0.030644
        44        43        49        55     9        0.000000       -1.999804         1    ;  uncertainty k = 0.225317
        44        43        49        55     9      180.000000       -0.232323         2    ;  uncertainty k = 0.172197
        44        43        49        55     9        0.000000        0.488841         3    ;  uncertainty k = 0.205544
        44        43        49        55     9      180.000000       -0.107597         4    ;  uncertainty k = 0.052869
        45        43        49        50     9        0.000000        2.507999         1    ;  uncertainty k = 0.657804
        45        43        49        50     9      180.000000       -0.113205         2    ;  uncertainty k = 0.041036
        45        43        49        50     9        0.000000        0.237190         3    ;  uncertainty k = 0.141933
        45        43        49        50     9      180.000000        0.113988         4    ;  uncertainty k = 0.030644
        45        43        49        51     9        0.000000        2.507999         1    ;  uncertainty k = 0.657804
        45        43        49        51     9      180.000000       -0.113205         2    ;  uncertainty k = 0.041036
        45        43        49        51     9        0.000000        0.237190         3    ;  uncertainty k = 0.141933
        45        43        49        51     9      180.000000        0.113988         4    ;  uncertainty k = 0.030644
        45        43        49        55     9        0.000000       -1.999804         1    ;  uncertainty k = 0.225317
        45        43        49        55     9      180.000000       -0.232323         2    ;  uncertainty k = 0.172197
        45        43        49        55     9        0.000000        0.488841         3    ;  uncertainty k = 0.205544
        45        43        49        55     9      180.000000       -0.107597         4    ;  uncertainty k = 0.052869
        46        37        33        61     9        0.000000       -0.350827         1    ;  uncertainty k = 0.318033
        46        37        33        61     9      180.000000       11.762778         2    ;  uncertainty k = 0.259500
        46        37        33        61     9        0.000000       -0.084617         3    ;  uncertainty k = 0.227773
        46        37        33        61     9      180.000000        0.968632         4    ;  uncertainty k = 0.277245
        46        52        58        59     9        0.000000        0.043732         1    ;  uncertainty k = 0.151685
        46        52        58        59     9      180.000000        7.756087         2    ;  uncertainty k = 0.377475
        46        52        58        59     9        0.000000        1.403990         3    ;  uncertainty k = 0.262607
        46        52        58        59     9      180.000000        1.852747         4    ;  uncertainty k = 0.137749
        46        52        58        61     9        0.000000       -0.173002         1    ;  uncertainty k = 0.180006
        46        52        58        61     9      180.000000       14.128658         2    ;  uncertainty k = 0.210122
        46        52        58        61     9        0.000000       -0.816882         3    ;  uncertainty k = 0.359374
        46        52        58        61     9      180.000000        0.740165         4    ;  uncertainty k = 0.199315
        46        54        60        63     9        0.000000        0.553748         1    ;  uncertainty k = 1.316565
        46        54        60        63     9      180.000000       12.933822         2    ;  uncertainty k = 0.323369
        46        54        60        63     9        0.000000        1.721351         3    ;  uncertainty k = 0.376427
        46        54        60        63     9      180.000000        0.157942         4    ;  uncertainty k = 0.133919
        46        54        67        65     9        0.000000        1.301581         1    ;  uncertainty k = 0.717375
        46        54        67        65     9      180.000000        8.806712         2    ;  uncertainty k = 0.291808
        46        54        67        65     9        0.000000        1.668578         3    ;  uncertainty k = 0.291223
        46        54        67        65     9      180.000000        0.146767         4    ;  uncertainty k = 0.217963
        46        54        67        68     9        0.000000        0.900350         1    ;  uncertainty k = 0.946358
        46        54        67        68     9      180.000000        3.737508         2    ;  uncertainty k = 0.517642
        46        54        67        68     9        0.000000        1.307089         3    ;  uncertainty k = 0.233953
        46        54        67        68     9      180.000000        0.154037         4    ;  uncertainty k = 0.138109
        50        49        55        56     9        0.000000        1.865633         1    ;  uncertainty k = 0.151738
        50        49        55        56     9      180.000000       -0.051734         2    ;  uncertainty k = 0.121264
        50        49        55        56     9        0.000000        0.308088         3    ;  uncertainty k = 0.074079
        50        49        55        56     9      180.000000        0.151763         4    ;  uncertainty k = 0.037921
        50        49        55        57     9        0.000000        1.865633         1    ;  uncertainty k = 0.151738
        50        49        55        57     9      180.000000       -0.051734         2    ;  uncertainty k = 0.121264
        50        49        55        57     9        0.000000        0.308088         3    ;  uncertainty k = 0.074079
        50        49        55        57     9      180.000000        0.151763         4    ;  uncertainty k = 0.037921
        51        49        55        56     9        0.000000        1.865633         1    ;  uncertainty k = 0.151738
        51        49        55        56     9      180.000000       -0.051734         2    ;  uncertainty k = 0.121264
        51        49        55        56     9        0.000000        0.308088         3    ;  uncertainty k = 0.074079
        51        49        55        56     9      180.000000        0.151763         4    ;  uncertainty k = 0.037921
        51        49        55        57     9        0.000000        1.865633         1    ;  uncertainty k = 0.151738
        51        49        55        57     9      180.000000       -0.051734         2    ;  uncertainty k = 0.121264
        51        49        55        57     9        0.000000        0.308088         3    ;  uncertainty k = 0.074079
        51        49        55        57     9      180.000000        0.151763         4    ;  uncertainty k = 0.037921
        52        46        54        60     9        0.000000        1.312999         1    ;  uncertainty k = 0.733464
        52        46        54        60     9      180.000000        4.605132         2    ;  uncertainty k = 0.231388
        52        46        54        60     9        0.000000        0.581807         3    ;  uncertainty k = 0.108956
        52        46        54        60     9      180.000000        0.004986         4    ;  uncertainty k = 0.046981
        52        46        54        67     9        0.000000        1.248618         1    ;  uncertainty k = 0.970591
        52        46        54        67     9      180.000000        3.529477         2    ;  uncertainty k = 0.180511
        52        46        54        67     9        0.000000        0.668610         3    ;  uncertainty k = 0.126404
        52        46        54        67     9      180.000000       -0.103168         4    ;  uncertainty k = 0.057657
        52        58        61        62     9        0.000000        0.017213         1    ;  uncertainty k = 0.068242
        52        58        61        62     9      180.000000        7.867256         2    ;  uncertainty k = 0.366819
        52        58        61        62     9        0.000000        1.376810         3    ;  uncertainty k = 0.219117
        52        58        61        62     9      180.000000        1.826187         4    ;  uncertainty k = 0.105749
        53        52        46        54     9        0.000000       -0.040125         1    ;  uncertainty k = 0.238590
        53        52        46        54     9      180.000000        7.772462         2    ;  uncertainty k = 0.374858
        53        52        46        54     9        0.000000        0.687299         3    ;  uncertainty k = 0.194737
        53        52        46        54     9      180.000000        1.196856         4    ;  uncertainty k = 0.175546
        53        52        58        59     9        0.000000       -0.003750         1    ;  uncertainty k = 0.169181
        53        52        58        59     9      180.000000        7.991937         2    ;  uncertainty k = 0.414279
        53        52        58        59     9        0.000000       -0.483602         3    ;  uncertainty k = 0.285472
        53        52        58        59     9      180.000000        0.113236         4    ;  uncertainty k = 0.145491
        53        52        58        61     9        0.000000        0.114478         1    ;  uncertainty k = 0.058158
        53        52        58        61     9      180.000000        7.776517         2    ;  uncertainty k = 0.231886
        53        52        58        61     9        0.000000        1.449682         3    ;  uncertainty k = 0.204668
        53        52        58        61     9      180.000000        1.823207         4    ;  uncertainty k = 0.199730
        54        46        52        58     9        0.000000        0.177723         1    ;  uncertainty k = 0.154632
        54        46        52        58     9      180.000000       10.416815         2    ;  uncertainty k = 0.493624
        54        46        52        58     9        0.000000        1.173305         3    ;  uncertainty k = 0.294147
        54        46        52        58     9      180.000000        1.619227         4    ;  uncertainty k = 0.199237
        54        60        63        64     9        0.000000       -0.008340         1    ;  uncertainty k = 1.068357
        54        60        63        64     9      180.000000       22.282894         2    ;  uncertainty k = 0.293071
        54        60        63        64     9        0.000000        1.630491         3    ;  uncertainty k = 0.451250
        54        60        63        64     9      180.000000        1.246457         4    ;  uncertainty k = 0.562537
        54        60        63        65     9        0.000000       -0.195948         1    ;  uncertainty k = 0.499166
        54        60        63        65     9      180.000000       25.310741         2    ;  uncertainty k = 0.357774
        54        60        63        65     9        0.000000       -8.631785         3    ;  uncertainty k = 0.879814
        54        60        63        65     9      180.000000        2.339275         4    ;  uncertainty k = 0.703396
        54        67        65        63     9        0.000000        0.097185         1    ;  uncertainty k = 0.377611
        54        67        65        63     9      180.000000       19.623780         2    ;  uncertainty k = 0.356253
        54        67        65        63     9        0.000000      -10.339009         3    ;  uncertainty k = 0.572153
        54        67        65        63     9      180.000000        1.805024         4    ;  uncertainty k = 0.687086
        54        67        65        66     9        0.000000        0.403752         1    ;  uncertainty k = 0.620085
        54        67        65        66     9      180.000000       13.181847         2    ;  uncertainty k = 0.518369
        54        67        65        66     9        0.000000        1.644065         3    ;  uncertainty k = 0.654192
        54        67        65        66     9      180.000000        0.805476         4    ;  uncertainty k = 0.221479
        55        27        33        61     9        0.000000       -0.445100         1    ;  uncertainty k = 0.423442
        55        27        33        61     9      180.000000        2.295771         2    ;  uncertainty k = 0.395000
        55        27        33        61     9        0.000000        0.447302         3    ;  uncertainty k = 0.149466
        55        27        33        61     9      180.000000        0.209138         4    ;  uncertainty k = 0.084508
        59        58        61        62     9        0.000000       -0.032665         1    ;  uncertainty k = 0.317801
        59        58        61        62     9      180.000000        8.064496         2    ;  uncertainty k = 0.343548
        59        58        61        62     9        0.000000       -0.441006         3    ;  uncertainty k = 0.314384
        59        58        61        62     9      180.000000        0.166148         4    ;  uncertainty k = 0.190279
        60        54        67        65     9        0.000000       -0.313512         1    ;  uncertainty k = 0.906745
        60        54        67        65     9      180.000000       17.463127         2    ;  uncertainty k = 0.618098
        60        54        67        65     9        0.000000       -9.371452         3    ;  uncertainty k = 0.704745
        60        54        67        65     9      180.000000        1.255876         4    ;  uncertainty k = 0.553323
        60        54        67        68     9        0.000000        1.036397         1    ;  uncertainty k = 0.523985
        60        54        67        68     9      180.000000       11.680644         2    ;  uncertainty k = 0.232549
        60        54        67        68     9        0.000000        1.742680         3    ;  uncertainty k = 0.390629
        60        54        67        68     9      180.000000        0.159676         4    ;  uncertainty k = 0.169034
        60        63        65        66     9        0.000000        0.417314         1    ;  uncertainty k = 0.754552
        60        63        65        66     9      180.000000       11.346220         2    ;  uncertainty k = 0.479467
        60        63        65        66     9        0.000000        1.167150         3    ;  uncertainty k = 0.674201
        60        63        65        66     9      180.000000        0.575796         4    ;  uncertainty k = 0.330823
        60        63        65        67     9        0.000000       -0.207777         1    ;  uncertainty k = 0.314289
        60        63        65        67     9      180.000000       15.419493         2    ;  uncertainty k = 1.021540
        60        63        65        67     9        0.000000       -9.405838         3    ;  uncertainty k = 0.881856
        60        63        65        67     9      180.000000        1.884870         4    ;  uncertainty k = 0.586570
        63        60        54        67     9        0.000000        0.162640         1    ;  uncertainty k = 0.671017
        63        60        54        67     9      180.000000       15.856731         2    ;  uncertainty k = 0.567429
        63        60        54        67     9        0.000000       -7.010802         3    ;  uncertainty k = 1.058723
        63        60        54        67     9      180.000000        1.664672         4    ;  uncertainty k = 0.506642
        63        65        67        68     9        0.000000       -0.089474         1    ;  uncertainty k = 0.357619
        63        65        67        68     9      180.000000       12.073940         2    ;  uncertainty k = 0.326174
        63        65        67        68     9        0.000000        1.397190         3    ;  uncertainty k = 0.170716
        63        65        67        68     9      180.000000        0.679916         4    ;  uncertainty k = 0.092896
        64        63        65        66     9        0.000000       -0.537982         1    ;  uncertainty k = 1.058841
        64        63        65        66     9      180.000000        4.185747         2    ;  uncertainty k = 0.947996
        64        63        65        66     9        0.000000        1.379716         3    ;  uncertainty k = 0.359537
        64        63        65        66     9      180.000000        0.125623         4    ;  uncertainty k = 0.163751
        64        63        65        67     9        0.000000       -0.125179         1    ;  uncertainty k = 0.394598
        64        63        65        67     9      180.000000        9.202475         2    ;  uncertainty k = 0.527404
        64        63        65        67     9        0.000000        1.191354         3    ;  uncertainty k = 0.525172
        64        63        65        67     9      180.000000        0.512818         4    ;  uncertainty k = 0.201815
        66        65        67        68     9        0.000000       -0.071305         1    ;  uncertainty k = 0.366969
        66        65        67        68     9      180.000000        5.587327         2    ;  uncertainty k = 0.844895
        66        65        67        68     9        0.000000        1.195903         3    ;  uncertainty k = 0.388662
        66        65        67        68     9      180.000000        0.266627         4    ;  uncertainty k = 0.170812

[ dihedrals ] ; impropers
;       ai        aj        ak        al funct           phase               k        pn
         5         1         6         7     4      180.000000       55.748670         2    ;  uncertainty k = 0.008050
         5         6         7         1     4      180.000000       55.748670         2    ;  uncertainty k = 0.008050
         5         7         1         6     4      180.000000       55.748670         2    ;  uncertainty k = 0.008050
        19        13        24        47     4      180.000000       15.203962         2    ;  uncertainty k = 0.057963
        19        24        47        13     4      180.000000       15.203962         2    ;  uncertainty k = 0.057963
        19        47        13        24     4      180.000000       15.203962         2    ;  uncertainty k = 0.057963
        24        19        25        28     4      180.000000        1.997748         2    ;  uncertainty k = 0.039295
        24        25        28        19     4      180.000000        1.997748         2    ;  uncertainty k = 0.039295
        24        28        19        25     4      180.000000        1.997748         2    ;  uncertainty k = 0.039295
        28        24        29        34     4      180.000000       18.344378         2    ;  uncertainty k = 0.038620
        28        29        34        24     4      180.000000       18.344378         2    ;  uncertainty k = 0.038620
        28        34        24        29     4      180.000000       18.344378         2    ;  uncertainty k = 0.038620
        33        27        37        61     4      180.000000       11.683877         2    ;  uncertainty k = 0.223193
        33        37        61        27     4      180.000000       11.683877         2    ;  uncertainty k = 0.223193
        33        61        27        37     4      180.000000       11.683877         2    ;  uncertainty k = 0.223193
        34        28        35        38     4      180.000000        1.035730         2    ;  uncertainty k = 0.329384
        34        35        38        28     4      180.000000        1.035730         2    ;  uncertainty k = 0.329384
        34        38        28        35     4      180.000000        1.035730         2    ;  uncertainty k = 0.329384
        37        33        42        46     4      180.000000        3.111150         2    ;  uncertainty k = 0.439701
        37        42        46        33     4      180.000000        3.111150         2    ;  uncertainty k = 0.439701
        37        46        33        42     4      180.000000        3.111150         2    ;  uncertainty k = 0.439701
        38        34        39        47     4      180.000000       18.344380         2    ;  uncertainty k = 0.038621
        38        39        47        34     4      180.000000       18.344380         2    ;  uncertainty k = 0.038621
        38        47        34        39     4      180.000000       18.344380         2    ;  uncertainty k = 0.038621
        46        37        52        54     4      180.000000       13.912114         2    ;  uncertainty k = 0.066080
        46        52        54        37     4      180.000000       13.912114         2    ;  uncertainty k = 0.066080
        46        54        37        52     4      180.000000       13.912114         2    ;  uncertainty k = 0.066080
        47        19        38        48     4      180.000000        1.997753         2    ;  uncertainty k = 0.039293
        47        38        48        19     4      180.000000        1.997753         2    ;  uncertainty k = 0.039293
        47        48        19        38     4      180.000000        1.997753         2    ;  uncertainty k = 0.039293
        52        46        53        58     4      180.000000        3.629673         2    ;  uncertainty k = 0.131092
        52        53        58        46     4      180.000000        3.629673         2    ;  uncertainty k = 0.131092
        52        58        46        53     4      180.000000        3.629673         2    ;  uncertainty k = 0.131092
        58        52        59        61     4      180.000000        3.972508         2    ;  uncertainty k = 0.175714
        58        59        61        52     4      180.000000        3.972508         2    ;  uncertainty k = 0.175714
        58        61        52        59     4      180.000000        3.972508         2    ;  uncertainty k = 0.175714
        61        33        58        62     4      180.000000        2.785904         2    ;  uncertainty k = 0.390961
        61        58        62        33     4      180.000000        2.785904         2    ;  uncertainty k = 0.390961
        61        62        33        58     4      180.000000        2.785904         2    ;  uncertainty k = 0.390961
        63        60        64        65     4      180.000000        1.161762         2    ;  uncertainty k = 0.490095
        63        64        65        60     4      180.000000        1.161762         2    ;  uncertainty k = 0.490095
        63        65        60        64     4      180.000000        1.161762         2    ;  uncertainty k = 0.490095
        67        54        65        68     4      180.000000        0.921264         2    ;  uncertainty k = 0.788201
        67        65        68        54     4      180.000000        0.921264         2    ;  uncertainty k = 0.788201
        67        68        54        65     4      180.000000        0.921264         2    ;  uncertainty k = 0.788201

[ pairs ]
;       ai        aj funct
         1         8     1
         1         9     1
         2         6     1
         2         7     1
         3         6     1
         3         7     1
         4         6     1
         4         7     1
         5        10     1
         5        11     1
         5        13     1
         6         8     1
         6         9     1
         7        12     1
         7        14     1
         7        15     1
         7        16     1
         7        19     1
         7        20     1
         8        10     1
         8        11     1
         8        13     1
         9        17     1
         9        18     1
         9        21     1
         9        22     1
         9        24     1
         9        47     1
        10        12     1
        10        14     1
        10        15     1
        10        16     1
        10        19     1
        10        20     1
        11        14     1
        11        15     1
        11        19     1
        11        23     1
        11        26     1
        11        27     1
        12        13     1
        12        17     1
        12        18     1
        12        21     1
        12        22     1
        13        16     1
        13        20     1
        13        25     1
        13        28     1
        13        38     1
        13        48     1
        14        24     1
        14        47     1
        15        24     1
        15        47     1
        16        21     1
        16        30     1
        16        33     1
        16        55     1
        17        20     1
        17        23     1
        17        26     1
        17        27     1
        18        20     1
        18        23     1
        18        26     1
        18        27     1
        19        29     1
        19        34     1
        19        39     1
        20        22     1
        22        31     1
        22        32     1
        22        36     1
        22        37     1
        22        49     1
        22        56     1
        22        57     1
        22        61     1
        23        30     1
        23        33     1
        23        55     1
        24        35     1
        24        38     1
        24        48     1
        25        29     1
        25        34     1
        25        47     1
        26        30     1
        26        33     1
        26        55     1
        27        40     1
        27        41     1
        27        42     1
        27        43     1
        27        46     1
        27        50     1
        27        51     1
        27        58     1
        27        62     1
        28        39     1
        28        47     1
        29        35     1
        29        38     1
        30        37     1
        30        44     1
        30        45     1
        30        49     1
        30        56     1
        30        57     1
        30        61     1
        31        33     1
        31        40     1
        31        41     1
        31        43     1
        31        55     1
        32        33     1
        32        40     1
        32        41     1
        32        43     1
        32        55     1
        33        36     1
        33        49     1
        33        52     1
        33        54     1
        33        56     1
        33        57     1
        33        59     1
        34        48     1
        35        39     1
        35        47     1
        36        50     1
        36        51     1
        36        55     1
        37        53     1
        37        55     1
        37        58     1
        37        60     1
        37        62     1
        37        67     1
        39        48     1
        40        44     1
        40        45     1
        40        49     1
        41        44     1
        41        45     1
        41        49     1
        42        52     1
        42        54     1
        42        61     1
        43        56     1
        43        57     1
        44        50     1
        44        51     1
        44        55     1
        45        50     1
        45        51     1
        45        55     1
        46        59     1
        46        61     1
        46        63     1
        46        65     1
        46        68     1
        50        56     1
        50        57     1
        51        56     1
        51        57     1
        52        60     1
        52        62     1
        52        67     1
        53        54     1
        53        59     1
        53        61     1
        54        58     1
        54        64     1
        54        66     1
        55        61     1
        59        62     1
        60        66     1
        60        68     1
        63        68     1
        64        66     1
        64        67     1
        66        68     1
