; ITP file created by ByteFF-joint-25, 2025-07-14 11:37:57.695571

[ atomtypes ]
;name           bonded.type        at.num        mass        charge   ptype           sigma         epsilon
 c0bf                                   6      0.0000       0.00000       A     3.39772e-01     4.51054e-01    ;  uncertainty sigma = 0.000008, epsilon = 0.000483
 h1bf                                   1      0.0000       0.00000       A     2.60030e-01     8.67107e-02    ;  uncertainty sigma = 0.000011, epsilon = 0.000525
 h2bf                                   1      0.0000       0.00000       A     2.60030e-01     8.67107e-02    ;  uncertainty sigma = 0.000011, epsilon = 0.000525
 h3bf                                   1      0.0000       0.00000       A     2.60030e-01     8.67107e-02    ;  uncertainty sigma = 0.000011, epsilon = 0.000525
 c4bf                                   6      0.0000       0.00000       A     3.31513e-01     4.12852e-01    ;  uncertainty sigma = 0.000004, epsilon = 0.000655
 o5bf                                   8      0.0000       0.00000       A     3.04828e-01     6.12615e-01    ;  uncertainty sigma = 0.000014, epsilon = 0.001002
 n6bf                                   7      0.0000       0.00000       A     3.27045e-01     4.90541e-01    ;  uncertainty sigma = 0.000023, epsilon = 0.001594
 h7bf                                   1      0.0000       0.00000       A     1.10668e-01     4.09050e-02    ;  uncertainty sigma = 0.000072, epsilon = 0.001112
 c8bf                                   6      0.0000       0.00000       A     3.39790e-01     4.50829e-01    ;  uncertainty sigma = 0.000023, epsilon = 0.001471
 h9bf                                   1      0.0000       0.00000       A     2.42336e-01     8.69402e-02    ;  uncertainty sigma = 0.000054, epsilon = 0.000820
 c10bf                                  6      0.0000       0.00000       A     3.39747e-01     4.52098e-01    ;  uncertainty sigma = 0.000049, epsilon = 0.001873
 h11bf                                  1      0.0000       0.00000       A     2.42270e-01     8.70607e-02    ;  uncertainty sigma = 0.000129, epsilon = 0.000760
 c12bf                                  6      0.0000       0.00000       A     3.39801e-01     4.50535e-01    ;  uncertainty sigma = 0.000006, epsilon = 0.001188
 h13bf                                  1      0.0000       0.00000       A     2.60052e-01     8.66550e-02    ;  uncertainty sigma = 0.000011, epsilon = 0.000507
 h14bf                                  1      0.0000       0.00000       A     2.60052e-01     8.66550e-02    ;  uncertainty sigma = 0.000011, epsilon = 0.000507
 c15bf                                  6      0.0000       0.00000       A     3.39738e-01     4.51549e-01    ;  uncertainty sigma = 0.000027, epsilon = 0.001260
 h16bf                                  1      0.0000       0.00000       A     1.88629e-01     8.69379e-02    ;  uncertainty sigma = 0.000079, epsilon = 0.001173
 h17bf                                  1      0.0000       0.00000       A     1.88629e-01     8.69379e-02    ;  uncertainty sigma = 0.000079, epsilon = 0.001173
 c18bf                                  6      0.0000       0.00000       A     3.31522e-01     4.13086e-01    ;  uncertainty sigma = 0.000004, epsilon = 0.000785
 o19bf                                  8      0.0000       0.00000       A     3.24272e-01     3.89966e-01    ;  uncertainty sigma = 0.000033, epsilon = 0.002858
 h20bf                                  1      0.0000       0.00000       A     5.38199e-02     1.93874e-02    ;  uncertainty sigma = 0.000141, epsilon = 0.001221
 n21bf                                  7      0.0000       0.00000       A     2.67990e-01     7.08627e+00    ;  uncertainty sigma = 0.000124, epsilon = 0.019223
 h22bf                                  1      0.0000       0.00000       A     1.10767e-01     4.17022e-02    ;  uncertainty sigma = 0.000099, epsilon = 0.001196
 c23bf                                  6      0.0000       0.00000       A     3.31510e-01     4.13312e-01    ;  uncertainty sigma = 0.000005, epsilon = 0.000640
 h24bf                                  1      0.0000       0.00000       A     2.62568e-01     6.71735e-02    ;  uncertainty sigma = 0.000008, epsilon = 0.000444
 h25bf                                  1      0.0000       0.00000       A     1.10767e-01     4.17022e-02    ;  uncertainty sigma = 0.000099, epsilon = 0.001196
 c26bf                                  6      0.0000       0.00000       A     3.39760e-01     4.49815e-01    ;  uncertainty sigma = 0.000033, epsilon = 0.004242
 c27bf                                  6      0.0000       0.00000       A     3.31513e-01     4.13329e-01    ;  uncertainty sigma = 0.000007, epsilon = 0.000328
 f28bf                                  9      0.0000       0.00000       A     3.03430e-01     3.47919e-01    ;  uncertainty sigma = 0.000008, epsilon = 0.000740
 c29bf                                  6      0.0000       0.00000       A     3.39752e-01     4.51137e-01    ;  uncertainty sigma = 0.000018, epsilon = 0.000657
 h30bf                                  1      0.0000       0.00000       A     2.60046e-01     8.67815e-02    ;  uncertainty sigma = 0.000019, epsilon = 0.001029
 h31bf                                  1      0.0000       0.00000       A     2.60046e-01     8.67815e-02    ;  uncertainty sigma = 0.000019, epsilon = 0.001029
 c32bf                                  6      0.0000       0.00000       A     3.31413e-01     4.13929e-01    ;  uncertainty sigma = 0.000101, epsilon = 0.001512
 c33bf                                  6      0.0000       0.00000       A     3.31523e-01     4.13619e-01    ;  uncertainty sigma = 0.000007, epsilon = 0.000754
 h34bf                                  1      0.0000       0.00000       A     2.62567e-01     6.73685e-02    ;  uncertainty sigma = 0.000010, epsilon = 0.000382
 c35bf                                  6      0.0000       0.00000       A     3.39774e-01     4.50569e-01    ;  uncertainty sigma = 0.000005, epsilon = 0.000726
 c36bf                                  6      0.0000       0.00000       A     3.31552e-01     4.13030e-01    ;  uncertainty sigma = 0.000025, epsilon = 0.001379
 c37bf                                  6      0.0000       0.00000       A     3.31513e-01     4.13329e-01    ;  uncertainty sigma = 0.000007, epsilon = 0.000328
 f38bf                                  9      0.0000       0.00000       A     3.03430e-01     3.47919e-01    ;  uncertainty sigma = 0.000008, epsilon = 0.000740
 h39bf                                  1      0.0000       0.00000       A     2.60035e-01     8.68913e-02    ;  uncertainty sigma = 0.000009, epsilon = 0.000671
 h40bf                                  1      0.0000       0.00000       A     2.60035e-01     8.68913e-02    ;  uncertainty sigma = 0.000009, epsilon = 0.000671
 h41bf                                  1      0.0000       0.00000       A     2.62551e-01     6.72013e-02    ;  uncertainty sigma = 0.000017, epsilon = 0.000688
 c42bf                                  6      0.0000       0.00000       A     3.39778e-01     4.50840e-01    ;  uncertainty sigma = 0.000007, epsilon = 0.000468
 h43bf                                  1      0.0000       0.00000       A     2.60038e-01     8.68000e-02    ;  uncertainty sigma = 0.000010, epsilon = 0.000496
 h44bf                                  1      0.0000       0.00000       A     2.60038e-01     8.68000e-02    ;  uncertainty sigma = 0.000010, epsilon = 0.000496
 c45bf                                  6      0.0000       0.00000       A     3.31510e-01     4.13184e-01    ;  uncertainty sigma = 0.000013, epsilon = 0.000565
 c46bf                                  6      0.0000       0.00000       A     3.31510e-01     4.13312e-01    ;  uncertainty sigma = 0.000005, epsilon = 0.000639
 h47bf                                  1      0.0000       0.00000       A     2.62568e-01     6.71735e-02    ;  uncertainty sigma = 0.000008, epsilon = 0.000444
 c48bf                                  6      0.0000       0.00000       A     3.39774e-01     4.50569e-01    ;  uncertainty sigma = 0.000005, epsilon = 0.000726
 h49bf                                  1      0.0000       0.00000       A     2.60035e-01     8.68912e-02    ;  uncertainty sigma = 0.000009, epsilon = 0.000671
 h50bf                                  1      0.0000       0.00000       A     2.60035e-01     8.68912e-02    ;  uncertainty sigma = 0.000009, epsilon = 0.000671
 c51bf                                  6      0.0000       0.00000       A     3.31521e-01     4.13290e-01    ;  uncertainty sigma = 0.000004, epsilon = 0.000692
 h52bf                                  1      0.0000       0.00000       A     2.62561e-01     6.70429e-02    ;  uncertainty sigma = 0.000012, epsilon = 0.000452
 c53bf                                  6      0.0000       0.00000       A     3.31485e-01     4.13633e-01    ;  uncertainty sigma = 0.000012, epsilon = 0.000721
 c54bf                                  6      0.0000       0.00000       A     3.39752e-01     4.51137e-01    ;  uncertainty sigma = 0.000018, epsilon = 0.000657
 h55bf                                  1      0.0000       0.00000       A     2.60046e-01     8.67814e-02    ;  uncertainty sigma = 0.000019, epsilon = 0.001029
 h56bf                                  1      0.0000       0.00000       A     2.60046e-01     8.67814e-02    ;  uncertainty sigma = 0.000019, epsilon = 0.001029
 c57bf                                  6      0.0000       0.00000       A     3.31522e-01     4.13361e-01    ;  uncertainty sigma = 0.000004, epsilon = 0.000631
 h58bf                                  1      0.0000       0.00000       A     2.62564e-01     6.70137e-02    ;  uncertainty sigma = 0.000010, epsilon = 0.000418
 s59bf                                 16      0.0000       0.00000       A     3.53243e-01     1.18224e+00    ;  uncertainty sigma = 0.000011, epsilon = 0.000879
 c60bf                                  6      0.0000       0.00000       A     3.31534e-01     4.13069e-01    ;  uncertainty sigma = 0.000004, epsilon = 0.000817
 h61bf                                  1      0.0000       0.00000       A     2.62553e-01     6.70822e-02    ;  uncertainty sigma = 0.000011, epsilon = 0.000402
 c62bf                                  6      0.0000       0.00000       A     3.31499e-01     4.13144e-01    ;  uncertainty sigma = 0.000007, epsilon = 0.000670
 c63bf                                  6      0.0000       0.00000       A     3.31507e-01     4.13778e-01    ;  uncertainty sigma = 0.000004, epsilon = 0.000443
 c64bf                                  6      0.0000       0.00000       A     3.31514e-01     4.13147e-01    ;  uncertainty sigma = 0.000004, epsilon = 0.000855
 h65bf                                  1      0.0000       0.00000       A     2.53628e-01     6.70384e-02    ;  uncertainty sigma = 0.000018, epsilon = 0.000684
 h66bf                                  1      0.0000       0.00000       A     2.62579e-01     6.72223e-02    ;  uncertainty sigma = 0.000012, epsilon = 0.000449
 h67bf                                  1      0.0000       0.00000       A     2.62525e-01     6.70563e-02    ;  uncertainty sigma = 0.000026, epsilon = 0.000563

[ moleculetype ]
;name             nrexcl
 MOL                   3

[ atoms ]
;       nr            type      resi   res      atom      cgnr      charge          mass ; qtot
         1            c0bf         1   UNL        c0         1    -0.17390       12.0110 ; qtot   -0.174
         2            h1bf         1   UNL        h1         2     0.06220        1.0080 ; qtot   -0.112
         3            h2bf         1   UNL        h2         3     0.06220        1.0080 ; qtot   -0.049
         4            h3bf         1   UNL        h3         4     0.06220        1.0080 ; qtot    0.013
         5            c4bf         1   UNL        c4         5     0.66558       12.0110 ; qtot    0.678
         6            o5bf         1   UNL        o5         6    -0.60952       15.9990 ; qtot    0.069
         7            n6bf         1   UNL        n6         7    -0.57993       14.0070 ; qtot   -0.511
         8            h7bf         1   UNL        h7         8     0.32334        1.0080 ; qtot   -0.188
         9            c8bf         1   UNL        c8         9     0.09994       12.0110 ; qtot   -0.088
        10            h9bf         1   UNL        h9        10     0.08379        1.0080 ; qtot   -0.004
        11           c10bf         1   UNL       c10        11     0.13138       12.0110 ; qtot    0.127
        12           h11bf         1   UNL       h11        12     0.07988        1.0080 ; qtot    0.207
        13           c12bf         1   UNL       c12        13    -0.04881       12.0110 ; qtot    0.158
        14           h13bf         1   UNL       h13        14     0.06994        1.0080 ; qtot    0.228
        15           h14bf         1   UNL       h14        15     0.06994        1.0080 ; qtot    0.298
        16           c15bf         1   UNL       c15        16     0.13771       12.0110 ; qtot    0.436
        17           h16bf         1   UNL       h16        17     0.11216        1.0080 ; qtot    0.548
        18           h17bf         1   UNL       h17        18     0.11216        1.0080 ; qtot    0.660
        19           c18bf         1   UNL       c18        19    -0.03209       12.0110 ; qtot    0.628
        20           o19bf         1   UNL       o19        20    -0.63288       15.9990 ; qtot   -0.005
        21           h20bf         1   UNL       h20        21     0.46298        1.0080 ; qtot    0.458
        22           n21bf         1   UNL       n21        22    -0.79069       14.0070 ; qtot   -0.332
        23           h22bf         1   UNL       h22        23     0.46101        1.0080 ; qtot    0.129
        24           c23bf         1   UNL       c23        24    -0.17594       12.0110 ; qtot   -0.047
        25           h24bf         1   UNL       h24        25     0.15771        1.0080 ; qtot    0.110
        26           h25bf         1   UNL       h25        26     0.46101        1.0080 ; qtot    0.571
        27           c26bf         1   UNL       c26        27     0.26143       12.0110 ; qtot    0.833
        28           c27bf         1   UNL       c27        28     0.15605       12.0110 ; qtot    0.989
        29           f28bf         1   UNL       f28        29    -0.13988       18.9980 ; qtot    0.849
        30           c29bf         1   UNL       c29        30    -0.09950       12.0110 ; qtot    0.749
        31           h30bf         1   UNL       h30        31     0.07240        1.0080 ; qtot    0.822
        32           h31bf         1   UNL       h31        32     0.07240        1.0080 ; qtot    0.894
        33           c32bf         1   UNL       c32        33    -0.15881       12.0110 ; qtot    0.735
        34           c33bf         1   UNL       c33        34    -0.20667       12.0110 ; qtot    0.529
        35           h34bf         1   UNL       h34        35     0.17106        1.0080 ; qtot    0.700
        36           c35bf         1   UNL       c35        36    -0.07656       12.0110 ; qtot    0.623
        37           c36bf         1   UNL       c36        37    -0.09077       12.0110 ; qtot    0.533
        38           c37bf         1   UNL       c37        38     0.15605       12.0110 ; qtot    0.689
        39           f38bf         1   UNL       f38        39    -0.13988       18.9980 ; qtot    0.549
        40           h39bf         1   UNL       h39        40     0.06136        1.0080 ; qtot    0.610
        41           h40bf         1   UNL       h40        41     0.06136        1.0080 ; qtot    0.671
        42           h41bf         1   UNL       h41        42     0.14543        1.0080 ; qtot    0.817
        43           c42bf         1   UNL       c42        43    -0.08801       12.0110 ; qtot    0.729
        44           h43bf         1   UNL       h43        44     0.05454        1.0080 ; qtot    0.783
        45           h44bf         1   UNL       h44        45     0.05454        1.0080 ; qtot    0.838
        46           c45bf         1   UNL       c45        46     0.01561       12.0110 ; qtot    0.854
        47           c46bf         1   UNL       c46        47    -0.17594       12.0110 ; qtot    0.678
        48           h47bf         1   UNL       h47        48     0.15771        1.0080 ; qtot    0.835
        49           c48bf         1   UNL       c48        49    -0.07656       12.0110 ; qtot    0.759
        50           h49bf         1   UNL       h49        50     0.06136        1.0080 ; qtot    0.820
        51           h50bf         1   UNL       h50        51     0.06136        1.0080 ; qtot    0.881
        52           c51bf         1   UNL       c51        52    -0.10135       12.0110 ; qtot    0.780
        53           h52bf         1   UNL       h52        53     0.13872        1.0080 ; qtot    0.919
        54           c53bf         1   UNL       c53        54    -0.00947       12.0110 ; qtot    0.909
        55           c54bf         1   UNL       c54        55    -0.09950       12.0110 ; qtot    0.810
        56           h55bf         1   UNL       h55        56     0.07240        1.0080 ; qtot    0.882
        57           h56bf         1   UNL       h56        57     0.07240        1.0080 ; qtot    0.955
        58           c57bf         1   UNL       c57        58    -0.10283       12.0110 ; qtot    0.852
        59           h58bf         1   UNL       h58        59     0.14780        1.0080 ; qtot    1.000
        60           s59bf         1   UNL       s59        60    -0.12231       32.0670 ; qtot    0.877
        61           c60bf         1   UNL       c60        61    -0.10419       12.0110 ; qtot    0.773
        62           h61bf         1   UNL       h61        62     0.14088        1.0080 ; qtot    0.914
        63           c62bf         1   UNL       c62        63    -0.10015       12.0110 ; qtot    0.814
        64           c63bf         1   UNL       c63        64    -0.15148       12.0110 ; qtot    0.662
        65           c64bf         1   UNL       c64        65    -0.14232       12.0110 ; qtot    0.520
        66           h65bf         1   UNL       h65        66     0.16982        1.0080 ; qtot    0.690
        67           h66bf         1   UNL       h66        67     0.15455        1.0080 ; qtot    0.844
        68           h67bf         1   UNL       h67        68     0.15558        1.0080 ; qtot    1.000

[ bonds ]
;       ai        aj funct               r               k
         1         2     1        0.109474   320790.834766    ;  uncertainty r = 0.000014, k = 2.210414
         1         3     1        0.109474   320790.834766    ;  uncertainty r = 0.000014, k = 2.210414
         1         4     1        0.109474   320790.834766    ;  uncertainty r = 0.000014, k = 2.210414
         1         5     1        0.152711   231291.489355    ;  uncertainty r = 0.000074, k = 7.077691
         5         6     1        0.123818   755192.387500    ;  uncertainty r = 0.000160, k = 11.110564
         5         7     1        0.137333   359141.597363    ;  uncertainty r = 0.000068, k = 22.289233
         7         8     1        0.101564   425616.097607    ;  uncertainty r = 0.000034, k = 2.445565
         7         9     1        0.145300   250659.343848    ;  uncertainty r = 0.000113, k = 16.035835
         9        10     1        0.109480   308779.225537    ;  uncertainty r = 0.000054, k = 1.565093
         9        11     1        0.152383   188750.265869    ;  uncertainty r = 0.000545, k = 10.926084
         9        13     1        0.153294   189941.265576    ;  uncertainty r = 0.000146, k = 3.560964
        11        12     1        0.109667   308472.933447    ;  uncertainty r = 0.000048, k = 5.020703
        11        16     1        0.152505   198805.477148    ;  uncertainty r = 0.000265, k = 14.080397
        11        20     1        0.142287   266443.729004    ;  uncertainty r = 0.000176, k = 20.737548
        13        14     1        0.109564   310340.232422    ;  uncertainty r = 0.000030, k = 3.251836
        13        15     1        0.109564   310340.232422    ;  uncertainty r = 0.000030, k = 3.251836
        13        19     1        0.150998   225384.883643    ;  uncertainty r = 0.000046, k = 1.857052
        16        17     1        0.109007   316542.838770    ;  uncertainty r = 0.000050, k = 3.243054
        16        18     1        0.109007   316542.838770    ;  uncertainty r = 0.000050, k = 3.243054
        16        22     1        0.150039   211986.571069    ;  uncertainty r = 0.000199, k = 39.388881
        19        24     1        0.139878   357503.059814    ;  uncertainty r = 0.000043, k = 2.283058
        19        47     1        0.139878   357503.034277    ;  uncertainty r = 0.000043, k = 2.283034
        20        21     1        0.096881   465425.156836    ;  uncertainty r = 0.000065, k = 1.510014
        22        23     1        0.103045   376286.804004    ;  uncertainty r = 0.000130, k = 5.789097
        22        26     1        0.103045   376286.804004    ;  uncertainty r = 0.000130, k = 5.789097
        22        27     1        0.156848   158717.373926    ;  uncertainty r = 0.000526, k = 90.783576
        24        25     1        0.108819   336813.787598    ;  uncertainty r = 0.000022, k = 1.111393
        24        28     1        0.138973   358518.262061    ;  uncertainty r = 0.000027, k = 2.522678
        27        30     1        0.154191   196186.863647    ;  uncertainty r = 0.000173, k = 7.607837
        27        33     1        0.152165   217474.764014    ;  uncertainty r = 0.000149, k = 24.117926
        27        55     1        0.154191   196186.863647    ;  uncertainty r = 0.000173, k = 7.607811
        28        29     1        0.135440   340257.875391    ;  uncertainty r = 0.000027, k = 1.328140
        28        34     1        0.139034   367053.708887    ;  uncertainty r = 0.000010, k = 2.576016
        30        31     1        0.109621   308946.187158    ;  uncertainty r = 0.000016, k = 1.707426
        30        32     1        0.109621   308946.187158    ;  uncertainty r = 0.000016, k = 1.707426
        30        36     1        0.153567   211163.267432    ;  uncertainty r = 0.000073, k = 3.808334
        33        37     1        0.139660   340218.727002    ;  uncertainty r = 0.000039, k = 8.308042
        33        61     1        0.140012   346921.171191    ;  uncertainty r = 0.000055, k = 6.729172
        34        35     1        0.108764   339427.817187    ;  uncertainty r = 0.000016, k = 1.050232
        34        38     1        0.139034   367053.708887    ;  uncertainty r = 0.000010, k = 2.576011
        36        40     1        0.109589   307310.688525    ;  uncertainty r = 0.000018, k = 2.510590
        36        41     1        0.109589   307310.688525    ;  uncertainty r = 0.000018, k = 2.510590
        36        43     1        0.153381   215649.882178    ;  uncertainty r = 0.000053, k = 4.058027
        37        42     1        0.108860   334774.726025    ;  uncertainty r = 0.000028, k = 2.047281
        37        46     1        0.140127   342945.400781    ;  uncertainty r = 0.000109, k = 5.014809
        38        39     1        0.135440   340257.875391    ;  uncertainty r = 0.000027, k = 1.328147
        38        47     1        0.138973   358518.262061    ;  uncertainty r = 0.000027, k = 2.522681
        43        44     1        0.109671   307274.604590    ;  uncertainty r = 0.000042, k = 1.783240
        43        45     1        0.109671   307274.604590    ;  uncertainty r = 0.000042, k = 1.783240
        43        49     1        0.153381   215649.907715    ;  uncertainty r = 0.000053, k = 4.058027
        46        52     1        0.140221   349727.239844    ;  uncertainty r = 0.000025, k = 2.395637
        46        54     1        0.146173   259981.461328    ;  uncertainty r = 0.000092, k = 7.013391
        47        48     1        0.108819   336813.813135    ;  uncertainty r = 0.000022, k = 1.111386
        49        50     1        0.109589   307310.662988    ;  uncertainty r = 0.000018, k = 2.510617
        49        51     1        0.109589   307310.662988    ;  uncertainty r = 0.000018, k = 2.510617
        49        55     1        0.153567   211163.292969    ;  uncertainty r = 0.000073, k = 3.808310
        52        53     1        0.108807   334868.268457    ;  uncertainty r = 0.000032, k = 1.034594
        52        58     1        0.139179   371029.428223    ;  uncertainty r = 0.000047, k = 1.790047
        54        60     1        0.175011   167961.386157    ;  uncertainty r = 0.000067, k = 4.511301
        54        65     1        0.137645   402806.887793    ;  uncertainty r = 0.000045, k = 2.138276
        55        56     1        0.109621   308946.161621    ;  uncertainty r = 0.000016, k = 1.707394
        55        57     1        0.109621   308946.161621    ;  uncertainty r = 0.000016, k = 1.707394
        58        59     1        0.108770   332784.006201    ;  uncertainty r = 0.000014, k = 0.968393
        58        61     1        0.139581   368138.882812    ;  uncertainty r = 0.000049, k = 1.928094
        60        63     1        0.173164   180926.665967    ;  uncertainty r = 0.000090, k = 7.730927
        61        62     1        0.108813   334162.831348    ;  uncertainty r = 0.000023, k = 2.423836
        63        64     1        0.137006   427793.646924    ;  uncertainty r = 0.000014, k = 1.877083
        63        66     1        0.108462   341856.115381    ;  uncertainty r = 0.000019, k = 1.322910
        64        65     1        0.142773   265677.053906    ;  uncertainty r = 0.000049, k = 3.750000
        64        67     1        0.108625   333910.780078    ;  uncertainty r = 0.000019, k = 1.351458
        65        68     1        0.108612   334201.596680    ;  uncertainty r = 0.000015, k = 1.157246

[ angles ]
;       ai        aj        ak funct           theta             cth
         1         5         6     1      124.114609      550.306959    ;  uncertainty theta = 0.002623, k = 0.032329
         1         5         7     1      115.216919      550.905293    ;  uncertainty theta = 0.002696, k = 0.069666
         2         1         3     1      106.853615      313.202304    ;  uncertainty theta = 0.000833, k = 0.016143
         2         1         4     1      106.853615      313.202304    ;  uncertainty theta = 0.000833, k = 0.016143
         2         1         5     1      108.518921      366.857878    ;  uncertainty theta = 0.000489, k = 0.046005
         3         1         4     1      106.853615      313.202304    ;  uncertainty theta = 0.000833, k = 0.016143
         3         1         5     1      108.518921      366.857878    ;  uncertainty theta = 0.000489, k = 0.046005
         4         1         5     1      108.518921      366.857878    ;  uncertainty theta = 0.000489, k = 0.046005
         5         7         8     1      114.594887      334.719170    ;  uncertainty theta = 0.004973, k = 0.111293
         5         7         9     1      115.815430      437.769802    ;  uncertainty theta = 0.005380, k = 0.200643
         6         5         7     1      124.171410      718.367761    ;  uncertainty theta = 0.003813, k = 0.041626
         7         9        10     1      106.034767      440.628011    ;  uncertainty theta = 0.004673, k = 0.107398
         7         9        11     1      109.053207      570.016308    ;  uncertainty theta = 0.005091, k = 0.174962
         7         9        13     1      110.669174      625.361289    ;  uncertainty theta = 0.002458, k = 0.075124
         8         7         9     1      111.405823      315.356998    ;  uncertainty theta = 0.004839, k = 0.060537
         9        11        12     1      107.993507      385.094247    ;  uncertainty theta = 0.001015, k = 0.063045
         9        11        16     1      109.543381      505.432831    ;  uncertainty theta = 0.005078, k = 0.100834
         9        11        20     1      110.917030      684.451607    ;  uncertainty theta = 0.005397, k = 0.185579
         9        13        14     1      106.283981      387.161539    ;  uncertainty theta = 0.001882, k = 0.049333
         9        13        15     1      106.283981      387.161539    ;  uncertainty theta = 0.001882, k = 0.049333
         9        13        19     1      110.952209      515.080942    ;  uncertainty theta = 0.002306, k = 0.112637
        10         9        11     1      107.043015      383.331069    ;  uncertainty theta = 0.004317, k = 0.113928
        10         9        13     1      108.445236      397.362370    ;  uncertainty theta = 0.003124, k = 0.053667
        11         9        13     1      108.613907      506.308626    ;  uncertainty theta = 0.002977, k = 0.141600
        11        16        17     1      110.138550      383.066824    ;  uncertainty theta = 0.004026, k = 0.067197
        11        16        18     1      110.138550      383.066824    ;  uncertainty theta = 0.004026, k = 0.067197
        11        16        22     1      109.382980      656.485152    ;  uncertainty theta = 0.005351, k = 0.150202
        11        20        21     1      108.698219      427.689730    ;  uncertainty theta = 0.005202, k = 0.196685
        12        11        16     1      108.843399      390.093359    ;  uncertainty theta = 0.004048, k = 0.084273
        12        11        20     1      108.883446      475.467778    ;  uncertainty theta = 0.004926, k = 0.162312
        13        19        24     1      120.624069      416.815742    ;  uncertainty theta = 0.001219, k = 0.079657
        13        19        47     1      120.624069      416.815742    ;  uncertainty theta = 0.001219, k = 0.079657
        14        13        15     1      105.130737      320.868002    ;  uncertainty theta = 0.002316, k = 0.034430
        14        13        19     1      107.571251      395.723462    ;  uncertainty theta = 0.001665, k = 0.074273
        15        13        19     1      107.571251      395.723462    ;  uncertainty theta = 0.001665, k = 0.074273
        16        11        20     1      106.913956      686.762013    ;  uncertainty theta = 0.004279, k = 0.304534
        16        22        23     1      108.501389      438.877187    ;  uncertainty theta = 0.005279, k = 0.145924
        16        22        26     1      108.501389      438.877187    ;  uncertainty theta = 0.005279, k = 0.145924
        16        22        27     1      113.271378      540.835181    ;  uncertainty theta = 0.005763, k = 0.203119
        17        16        18     1      108.693039      321.952307    ;  uncertainty theta = 0.001865, k = 0.059911
        17        16        22     1      106.102272      457.256659    ;  uncertainty theta = 0.003939, k = 0.078283
        18        16        22     1      106.102272      457.256659    ;  uncertainty theta = 0.003939, k = 0.078283
        19        24        25     1      120.673325      264.594874    ;  uncertainty theta = 0.002389, k = 0.061243
        19        24        28     1      118.734276      495.363421    ;  uncertainty theta = 0.000711, k = 0.136380
        19        47        38     1      118.734276      495.363421    ;  uncertainty theta = 0.000711, k = 0.136380
        19        47        48     1      120.673325      264.594874    ;  uncertainty theta = 0.002389, k = 0.061243
        22        27        30     1      106.926712      669.476646    ;  uncertainty theta = 0.002146, k = 0.204556
        22        27        33     1      107.331619      653.344598    ;  uncertainty theta = 0.003511, k = 0.157260
        22        27        55     1      106.926712      669.476582    ;  uncertainty theta = 0.002146, k = 0.204556
        23        22        26     1      107.166519      378.329562    ;  uncertainty theta = 0.006936, k = 0.197971
        23        22        27     1      109.037033      406.765740    ;  uncertainty theta = 0.005276, k = 0.153438
        24        19        47     1      120.936752      456.890042    ;  uncertainty theta = 0.001717, k = 0.065710
        24        28        29     1      119.004471      504.013159    ;  uncertainty theta = 0.001605, k = 0.057410
        24        28        34     1      123.554550      364.762558    ;  uncertainty theta = 0.003888, k = 0.175926
        25        24        28     1      120.595474      288.744329    ;  uncertainty theta = 0.002236, k = 0.050484
        26        22        27     1      109.037033      406.765740    ;  uncertainty theta = 0.005276, k = 0.153438
        27        30        31     1      106.798874      375.320269    ;  uncertainty theta = 0.002752, k = 0.112844
        27        30        32     1      106.798874      375.320269    ;  uncertainty theta = 0.002752, k = 0.112844
        27        30        36     1      110.217361      539.008320    ;  uncertainty theta = 0.002624, k = 0.117635
        27        33        37     1      117.767654      362.480945    ;  uncertainty theta = 0.008318, k = 0.145922
        27        33        61     1      118.570694      375.400711    ;  uncertainty theta = 0.007816, k = 0.148900
        27        55        49     1      110.217361      539.008256    ;  uncertainty theta = 0.002624, k = 0.117635
        27        55        56     1      106.798874      375.320269    ;  uncertainty theta = 0.002752, k = 0.112844
        27        55        57     1      106.798874      375.320269    ;  uncertainty theta = 0.002752, k = 0.112844
        28        34        35     1      122.344772      278.941910    ;  uncertainty theta = 0.002695, k = 0.055069
        28        34        38     1      115.447708      471.686690    ;  uncertainty theta = 0.003248, k = 0.205521
        29        28        34     1      118.454575      505.995701    ;  uncertainty theta = 0.002219, k = 0.025659
        30        27        33     1      111.385010      559.666118    ;  uncertainty theta = 0.006172, k = 0.034515
        30        27        55     1      110.643761      606.210947    ;  uncertainty theta = 0.008303, k = 0.267095
        30        36        40     1      107.863991      396.660418    ;  uncertainty theta = 0.001008, k = 0.062207
        30        36        41     1      107.863991      396.660418    ;  uncertainty theta = 0.001008, k = 0.062207
        30        36        43     1      109.361328      608.117356    ;  uncertainty theta = 0.001858, k = 0.123060
        31        30        32     1      105.426979      320.993995    ;  uncertainty theta = 0.002023, k = 0.045258
        31        30        36     1      108.921654      411.595956    ;  uncertainty theta = 0.001154, k = 0.062481
        32        30        36     1      108.921654      411.595956    ;  uncertainty theta = 0.001154, k = 0.062481
        33        27        55     1      111.385010      559.666054    ;  uncertainty theta = 0.006172, k = 0.034516
        33        37        42     1      117.929642      270.942187    ;  uncertainty theta = 0.005228, k = 0.063744
        33        37        46     1      122.923584      515.725946    ;  uncertainty theta = 0.002601, k = 0.190229
        33        61        58     1      120.892067      510.046365    ;  uncertainty theta = 0.002826, k = 0.040491
        33        61        62     1      118.260643      272.407793    ;  uncertainty theta = 0.003357, k = 0.079530
        34        38        39     1      118.454575      505.995669    ;  uncertainty theta = 0.002219, k = 0.025659
        34        38        47     1      123.554550      364.762558    ;  uncertainty theta = 0.003888, k = 0.175926
        35        34        38     1      122.344772      278.941910    ;  uncertainty theta = 0.002695, k = 0.055069
        36        43        44     1      108.647804      401.629206    ;  uncertainty theta = 0.001491, k = 0.045044
        36        43        45     1      108.647804      401.629206    ;  uncertainty theta = 0.001491, k = 0.045044
        36        43        49     1      108.296860      637.048858    ;  uncertainty theta = 0.003751, k = 0.180945
        37        33        61     1      122.998947      439.574254    ;  uncertainty theta = 0.005367, k = 0.159224
        37        46        52     1      120.830956      393.092661    ;  uncertainty theta = 0.003907, k = 0.275134
        37        46        54     1      120.138283      422.305454    ;  uncertainty theta = 0.005492, k = 0.157468
        38        47        48     1      120.595474      288.744329    ;  uncertainty theta = 0.002236, k = 0.050484
        39        38        47     1      119.004456      504.013095    ;  uncertainty theta = 0.001605, k = 0.057410
        40        36        41     1      104.333008      313.158891    ;  uncertainty theta = 0.002478, k = 0.062600
        40        36        43     1      108.923805      408.723159    ;  uncertainty theta = 0.001037, k = 0.031041
        41        36        43     1      108.923805      408.723159    ;  uncertainty theta = 0.001037, k = 0.031041
        42        37        46     1      118.300377      289.582233    ;  uncertainty theta = 0.004046, k = 0.156418
        43        49        50     1      108.923805      408.723064    ;  uncertainty theta = 0.001037, k = 0.031041
        43        49        51     1      108.923805      408.723064    ;  uncertainty theta = 0.001037, k = 0.031041
        43        49        55     1      109.361328      608.117484    ;  uncertainty theta = 0.001858, k = 0.123060
        44        43        45     1      104.148109      315.320671    ;  uncertainty theta = 0.002590, k = 0.057682
        44        43        49     1      108.647804      401.629206    ;  uncertainty theta = 0.001491, k = 0.045044
        45        43        49     1      108.647804      401.629206    ;  uncertainty theta = 0.001491, k = 0.045044
        46        52        53     1      118.909081      277.507873    ;  uncertainty theta = 0.001391, k = 0.051822
        46        52        58     1      119.636917      535.118986    ;  uncertainty theta = 0.001379, k = 0.081461
        46        54        60     1      117.528908      327.382582    ;  uncertainty theta = 0.006447, k = 0.127070
        46        54        65     1      127.058762      353.192013    ;  uncertainty theta = 0.005572, k = 0.185953
        49        55        56     1      108.921654      411.595893    ;  uncertainty theta = 0.001154, k = 0.062481
        49        55        57     1      108.921654      411.595893    ;  uncertainty theta = 0.001154, k = 0.062481
        50        49        51     1      104.333008      313.158859    ;  uncertainty theta = 0.002478, k = 0.062600
        50        49        55     1      107.863991      396.660418    ;  uncertainty theta = 0.001008, k = 0.062208
        51        49        55     1      107.863991      396.660418    ;  uncertainty theta = 0.001008, k = 0.062208
        52        46        54     1      121.204384      435.244214    ;  uncertainty theta = 0.000927, k = 0.089512
        52        58        59     1      120.327469      283.412947    ;  uncertainty theta = 0.000887, k = 0.045811
        52        58        61     1      120.743141      513.384576    ;  uncertainty theta = 0.002537, k = 0.099375
        53        52        58     1      120.353577      295.152643    ;  uncertainty theta = 0.001199, k = 0.036279
        54        60        63     1       92.116013     1223.120539    ;  uncertainty theta = 0.001864, k = 0.095351
        54        65        64     1      113.460220      642.216867    ;  uncertainty theta = 0.004714, k = 0.074606
        54        65        68     1      120.445107      251.008382    ;  uncertainty theta = 0.003336, k = 0.102703
        56        55        57     1      105.426979      320.994059    ;  uncertainty theta = 0.002023, k = 0.045258
        58        61        62     1      119.628662      303.999528    ;  uncertainty theta = 0.004205, k = 0.072370
        59        58        61     1      119.843361      281.899234    ;  uncertainty theta = 0.001683, k = 0.034648
        60        54        65     1      112.308022      451.615288    ;  uncertainty theta = 0.002955, k = 0.235841
        60        63        64     1      111.203247      529.495460    ;  uncertainty theta = 0.003983, k = 0.110591
        60        63        66     1      116.565048      233.189896    ;  uncertainty theta = 0.002068, k = 0.128035
        63        64        65     1      112.825851      628.332532    ;  uncertainty theta = 0.004037, k = 0.094928
        63        64        67     1      121.789650      256.797884    ;  uncertainty theta = 0.003084, k = 0.055588
        64        63        66     1      125.950523      250.790040    ;  uncertainty theta = 0.001092, k = 0.037161
        64        65        68     1      121.910690      257.380609    ;  uncertainty theta = 0.003113, k = 0.088283
        65        64        67     1      122.193375      252.667384    ;  uncertainty theta = 0.002169, k = 0.021129

[ dihedrals ] ; propers for gromacs 4.5 or higher, use funct 9
;       ai        aj        ak        al funct           phase               k        pn
         1         5         7         8     9        0.000000       -0.719318         1    ;  uncertainty k = 0.444691
         1         5         7         8     9      180.000000        6.827135         2    ;  uncertainty k = 0.793821
         1         5         7         8     9        0.000000        1.847964         3    ;  uncertainty k = 0.175876
         1         5         7         8     9      180.000000        0.561429         4    ;  uncertainty k = 0.272301
         1         5         7         9     9        0.000000        6.564236         1    ;  uncertainty k = 0.730976
         1         5         7         9     9      180.000000       10.882230         2    ;  uncertainty k = 0.271174
         1         5         7         9     9        0.000000        1.797450         3    ;  uncertainty k = 0.074608
         1         5         7         9     9      180.000000       -0.307230         4    ;  uncertainty k = 0.362348
         2         1         5         6     9        0.000000        0.326532         1    ;  uncertainty k = 0.130575
         2         1         5         6     9      180.000000        3.580846         2    ;  uncertainty k = 0.150349
         2         1         5         6     9        0.000000        0.496853         3    ;  uncertainty k = 0.061068
         2         1         5         6     9      180.000000        0.159073         4    ;  uncertainty k = 0.042397
         2         1         5         7     9        0.000000       -0.987141         1    ;  uncertainty k = 0.287749
         2         1         5         7     9      180.000000        1.715337         2    ;  uncertainty k = 0.242814
         2         1         5         7     9        0.000000        0.297998         3    ;  uncertainty k = 0.030371
         2         1         5         7     9      180.000000       -0.046045         4    ;  uncertainty k = 0.041242
         3         1         5         6     9        0.000000        0.326532         1    ;  uncertainty k = 0.130575
         3         1         5         6     9      180.000000        3.580846         2    ;  uncertainty k = 0.150349
         3         1         5         6     9        0.000000        0.496853         3    ;  uncertainty k = 0.061068
         3         1         5         6     9      180.000000        0.159073         4    ;  uncertainty k = 0.042397
         3         1         5         7     9        0.000000       -0.987141         1    ;  uncertainty k = 0.287749
         3         1         5         7     9      180.000000        1.715337         2    ;  uncertainty k = 0.242814
         3         1         5         7     9        0.000000        0.297998         3    ;  uncertainty k = 0.030371
         3         1         5         7     9      180.000000       -0.046045         4    ;  uncertainty k = 0.041242
         4         1         5         6     9        0.000000        0.326532         1    ;  uncertainty k = 0.130575
         4         1         5         6     9      180.000000        3.580846         2    ;  uncertainty k = 0.150349
         4         1         5         6     9        0.000000        0.496853         3    ;  uncertainty k = 0.061068
         4         1         5         6     9      180.000000        0.159073         4    ;  uncertainty k = 0.042397
         4         1         5         7     9        0.000000       -0.987141         1    ;  uncertainty k = 0.287749
         4         1         5         7     9      180.000000        1.715337         2    ;  uncertainty k = 0.242814
         4         1         5         7     9        0.000000        0.297998         3    ;  uncertainty k = 0.030371
         4         1         5         7     9      180.000000       -0.046045         4    ;  uncertainty k = 0.041242
         5         7         9        10     9        0.000000        0.673190         1    ;  uncertainty k = 0.451446
         5         7         9        10     9      180.000000       -0.483797         2    ;  uncertainty k = 0.214923
         5         7         9        10     9        0.000000       -0.049722         3    ;  uncertainty k = 0.094428
         5         7         9        10     9      180.000000        0.206578         4    ;  uncertainty k = 0.148130
         5         7         9        11     9        0.000000        3.180514         1    ;  uncertainty k = 1.157529
         5         7         9        11     9      180.000000       -0.329367         2    ;  uncertainty k = 0.233157
         5         7         9        11     9        0.000000        0.024204         3    ;  uncertainty k = 0.231957
         5         7         9        11     9      180.000000        0.586908         4    ;  uncertainty k = 0.120769
         5         7         9        13     9        0.000000       -0.380436         1    ;  uncertainty k = 0.142963
         5         7         9        13     9      180.000000       -0.107031         2    ;  uncertainty k = 0.285790
         5         7         9        13     9        0.000000        0.330771         3    ;  uncertainty k = 0.193628
         5         7         9        13     9      180.000000        0.546802         4    ;  uncertainty k = 0.084671
         6         5         7         8     9        0.000000        4.249161         1    ;  uncertainty k = 0.379485
         6         5         7         8     9      180.000000       16.872695         2    ;  uncertainty k = 0.065678
         6         5         7         8     9        0.000000        1.027067         3    ;  uncertainty k = 0.234732
         6         5         7         8     9      180.000000       -0.366950         4    ;  uncertainty k = 0.092394
         6         5         7         9     9        0.000000        9.060147         1    ;  uncertainty k = 0.596169
         6         5         7         9     9      180.000000       17.377883         2    ;  uncertainty k = 0.143241
         6         5         7         9     9        0.000000        0.439552         3    ;  uncertainty k = 0.127544
         6         5         7         9     9      180.000000       -0.656366         4    ;  uncertainty k = 0.225470
         7         9        11        12     9        0.000000       -0.464787         1    ;  uncertainty k = 0.317316
         7         9        11        12     9      180.000000       -0.533075         2    ;  uncertainty k = 0.690221
         7         9        11        12     9        0.000000        0.725956         3    ;  uncertainty k = 0.201532
         7         9        11        12     9      180.000000       -0.178686         4    ;  uncertainty k = 0.089549
         7         9        11        16     9        0.000000       -3.063991         1    ;  uncertainty k = 1.250940
         7         9        11        16     9      180.000000       -0.682496         2    ;  uncertainty k = 0.425403
         7         9        11        16     9        0.000000        0.924527         3    ;  uncertainty k = 0.187029
         7         9        11        16     9      180.000000       -0.350198         4    ;  uncertainty k = 0.168794
         7         9        11        20     9        0.000000        0.177251         1    ;  uncertainty k = 0.746902
         7         9        11        20     9      180.000000       -0.624156         2    ;  uncertainty k = 0.788828
         7         9        11        20     9        0.000000        1.600977         3    ;  uncertainty k = 0.346594
         7         9        11        20     9      180.000000       -0.637356         4    ;  uncertainty k = 0.310004
         7         9        13        14     9        0.000000       -1.135580         1    ;  uncertainty k = 0.140856
         7         9        13        14     9      180.000000       -0.977834         2    ;  uncertainty k = 0.145134
         7         9        13        14     9        0.000000        1.043071         3    ;  uncertainty k = 0.103805
         7         9        13        14     9      180.000000       -0.224633         4    ;  uncertainty k = 0.175797
         7         9        13        15     9        0.000000       -1.135580         1    ;  uncertainty k = 0.140856
         7         9        13        15     9      180.000000       -0.977834         2    ;  uncertainty k = 0.145134
         7         9        13        15     9        0.000000        1.043071         3    ;  uncertainty k = 0.103805
         7         9        13        15     9      180.000000       -0.224633         4    ;  uncertainty k = 0.175797
         7         9        13        19     9        0.000000       -1.530754         1    ;  uncertainty k = 0.475762
         7         9        13        19     9      180.000000       -1.330757         2    ;  uncertainty k = 0.640028
         7         9        13        19     9        0.000000        1.965079         3    ;  uncertainty k = 0.272575
         7         9        13        19     9      180.000000       -0.047228         4    ;  uncertainty k = 0.209121
         8         7         9        10     9        0.000000        1.615267         1    ;  uncertainty k = 0.349654
         8         7         9        10     9      180.000000       -0.419932         2    ;  uncertainty k = 0.383461
         8         7         9        10     9        0.000000        0.522848         3    ;  uncertainty k = 0.230461
         8         7         9        10     9      180.000000        0.041935         4    ;  uncertainty k = 0.079234
         8         7         9        11     9        0.000000        2.396530         1    ;  uncertainty k = 1.071634
         8         7         9        11     9      180.000000       -2.433379         2    ;  uncertainty k = 0.692961
         8         7         9        11     9        0.000000        0.603149         3    ;  uncertainty k = 0.190766
         8         7         9        11     9      180.000000        0.172558         4    ;  uncertainty k = 0.089493
         8         7         9        13     9        0.000000        2.412732         1    ;  uncertainty k = 0.727962
         8         7         9        13     9      180.000000       -1.144206         2    ;  uncertainty k = 0.178406
         8         7         9        13     9        0.000000        0.413338         3    ;  uncertainty k = 0.162067
         8         7         9        13     9      180.000000        0.140362         4    ;  uncertainty k = 0.046152
         9        11        16        17     9        0.000000       -0.746594         1    ;  uncertainty k = 0.606990
         9        11        16        17     9      180.000000        0.070627         2    ;  uncertainty k = 0.410305
         9        11        16        17     9        0.000000        0.325941         3    ;  uncertainty k = 0.064010
         9        11        16        17     9      180.000000       -0.240217         4    ;  uncertainty k = 0.174087
         9        11        16        18     9        0.000000       -0.746594         1    ;  uncertainty k = 0.606990
         9        11        16        18     9      180.000000        0.070627         2    ;  uncertainty k = 0.410305
         9        11        16        18     9        0.000000        0.325941         3    ;  uncertainty k = 0.064010
         9        11        16        18     9      180.000000       -0.240217         4    ;  uncertainty k = 0.174087
         9        11        16        22     9        0.000000       -2.721523         1    ;  uncertainty k = 2.037142
         9        11        16        22     9      180.000000       -1.994497         2    ;  uncertainty k = 0.706500
         9        11        16        22     9        0.000000        1.383758         3    ;  uncertainty k = 0.198115
         9        11        16        22     9      180.000000       -0.265515         4    ;  uncertainty k = 0.317177
         9        11        20        21     9        0.000000       18.922994         1    ;  uncertainty k = 0.298753
         9        11        20        21     9      180.000000       -3.432350         2    ;  uncertainty k = 0.393515
         9        11        20        21     9        0.000000        1.234355         3    ;  uncertainty k = 0.173337
         9        11        20        21     9      180.000000        0.343231         4    ;  uncertainty k = 0.075406
         9        13        19        24     9        0.000000        0.015961         1    ;  uncertainty k = 0.447291
         9        13        19        24     9      180.000000        1.479336         2    ;  uncertainty k = 0.197948
         9        13        19        24     9        0.000000        0.701691         3    ;  uncertainty k = 0.200767
         9        13        19        24     9      180.000000        0.342416         4    ;  uncertainty k = 0.070936
         9        13        19        47     9        0.000000        0.015961         1    ;  uncertainty k = 0.447288
         9        13        19        47     9      180.000000        1.479336         2    ;  uncertainty k = 0.197947
         9        13        19        47     9        0.000000        0.701691         3    ;  uncertainty k = 0.200768
         9        13        19        47     9      180.000000        0.342416         4    ;  uncertainty k = 0.070935
        10         9        11        12     9        0.000000        0.386005         1    ;  uncertainty k = 0.297791
        10         9        11        12     9      180.000000       -0.335124         2    ;  uncertainty k = 0.468728
        10         9        11        12     9        0.000000       -0.180620         3    ;  uncertainty k = 0.158635
        10         9        11        12     9      180.000000       -0.158597         4    ;  uncertainty k = 0.085571
        10         9        11        16     9        0.000000       -1.532420         1    ;  uncertainty k = 0.476672
        10         9        11        16     9      180.000000       -0.362009         2    ;  uncertainty k = 0.387921
        10         9        11        16     9        0.000000        0.096741         3    ;  uncertainty k = 0.093582
        10         9        11        16     9      180.000000       -0.220479         4    ;  uncertainty k = 0.064813
        10         9        11        20     9        0.000000       -0.963862         1    ;  uncertainty k = 0.487834
        10         9        11        20     9      180.000000       -0.431115         2    ;  uncertainty k = 0.551956
        10         9        11        20     9        0.000000        0.681317         3    ;  uncertainty k = 0.209680
        10         9        11        20     9      180.000000       -0.145731         4    ;  uncertainty k = 0.172707
        10         9        13        14     9        0.000000        1.003432         1    ;  uncertainty k = 0.142375
        10         9        13        14     9      180.000000       -0.763879         2    ;  uncertainty k = 0.190174
        10         9        13        14     9        0.000000       -0.150781         3    ;  uncertainty k = 0.200723
        10         9        13        14     9      180.000000       -0.028987         4    ;  uncertainty k = 0.020283
        10         9        13        15     9        0.000000        1.003432         1    ;  uncertainty k = 0.142375
        10         9        13        15     9      180.000000       -0.763879         2    ;  uncertainty k = 0.190174
        10         9        13        15     9        0.000000       -0.150781         3    ;  uncertainty k = 0.200723
        10         9        13        15     9      180.000000       -0.028987         4    ;  uncertainty k = 0.020283
        10         9        13        19     9        0.000000        0.663870         1    ;  uncertainty k = 0.280445
        10         9        13        19     9      180.000000       -0.659159         2    ;  uncertainty k = 0.292236
        10         9        13        19     9        0.000000        0.782258         3    ;  uncertainty k = 0.187761
        10         9        13        19     9      180.000000        0.056644         4    ;  uncertainty k = 0.060309
        11         9        13        14     9        0.000000       -0.833757         1    ;  uncertainty k = 0.318168
        11         9        13        14     9      180.000000       -0.513486         2    ;  uncertainty k = 0.291784
        11         9        13        14     9        0.000000        0.435444         3    ;  uncertainty k = 0.098110
        11         9        13        14     9      180.000000       -0.244629         4    ;  uncertainty k = 0.096307
        11         9        13        15     9        0.000000       -0.833757         1    ;  uncertainty k = 0.318168
        11         9        13        15     9      180.000000       -0.513486         2    ;  uncertainty k = 0.291784
        11         9        13        15     9        0.000000        0.435444         3    ;  uncertainty k = 0.098110
        11         9        13        15     9      180.000000       -0.244629         4    ;  uncertainty k = 0.096307
        11         9        13        19     9        0.000000        0.127953         1    ;  uncertainty k = 1.200013
        11         9        13        19     9      180.000000       -0.422221         2    ;  uncertainty k = 0.434810
        11         9        13        19     9        0.000000        1.156386         3    ;  uncertainty k = 0.343960
        11         9        13        19     9      180.000000       -0.125143         4    ;  uncertainty k = 0.138626
        11        16        22        23     9        0.000000        2.457270         1    ;  uncertainty k = 1.488027
        11        16        22        23     9      180.000000       -0.773804         2    ;  uncertainty k = 0.287470
        11        16        22        23     9        0.000000        0.533505         3    ;  uncertainty k = 0.104350
        11        16        22        23     9      180.000000       -0.282229         4    ;  uncertainty k = 0.192333
        11        16        22        26     9        0.000000        2.457270         1    ;  uncertainty k = 1.488027
        11        16        22        26     9      180.000000       -0.773804         2    ;  uncertainty k = 0.287470
        11        16        22        26     9        0.000000        0.533505         3    ;  uncertainty k = 0.104350
        11        16        22        26     9      180.000000       -0.282229         4    ;  uncertainty k = 0.192333
        11        16        22        27     9        0.000000       -0.618240         1    ;  uncertainty k = 0.776786
        11        16        22        27     9      180.000000       -0.765292         2    ;  uncertainty k = 0.842332
        11        16        22        27     9        0.000000        0.774132         3    ;  uncertainty k = 0.112185
        11        16        22        27     9      180.000000       -0.198254         4    ;  uncertainty k = 0.143715
        12        11         9        13     9        0.000000       -1.470180         1    ;  uncertainty k = 0.388134
        12        11         9        13     9      180.000000       -0.189690         2    ;  uncertainty k = 0.339954
        12        11         9        13     9        0.000000        0.262476         3    ;  uncertainty k = 0.130680
        12        11         9        13     9      180.000000       -0.175710         4    ;  uncertainty k = 0.057046
        12        11        16        17     9        0.000000       -0.190940         1    ;  uncertainty k = 0.376092
        12        11        16        17     9      180.000000        0.086053         2    ;  uncertainty k = 0.282313
        12        11        16        17     9        0.000000        0.087055         3    ;  uncertainty k = 0.123049
        12        11        16        17     9      180.000000       -0.006018         4    ;  uncertainty k = 0.068267
        12        11        16        18     9        0.000000       -0.190940         1    ;  uncertainty k = 0.376092
        12        11        16        18     9      180.000000        0.086053         2    ;  uncertainty k = 0.282313
        12        11        16        18     9        0.000000        0.087055         3    ;  uncertainty k = 0.123049
        12        11        16        18     9      180.000000       -0.006018         4    ;  uncertainty k = 0.068267
        12        11        16        22     9        0.000000       -0.686426         1    ;  uncertainty k = 0.601337
        12        11        16        22     9      180.000000       -2.837728         2    ;  uncertainty k = 0.870717
        12        11        16        22     9        0.000000        0.757431         3    ;  uncertainty k = 0.338154
        12        11        16        22     9      180.000000       -0.084817         4    ;  uncertainty k = 0.123537
        12        11        20        21     9        0.000000       13.155354         1    ;  uncertainty k = 0.207070
        12        11        20        21     9      180.000000       -1.919911         2    ;  uncertainty k = 0.136380
        12        11        20        21     9        0.000000        0.850953         3    ;  uncertainty k = 0.240363
        12        11        20        21     9      180.000000        0.270513         4    ;  uncertainty k = 0.106751
        13         9        11        16     9        0.000000       -3.571868         1    ;  uncertainty k = 0.805517
        13         9        11        16     9      180.000000        0.257577         2    ;  uncertainty k = 0.452772
        13         9        11        16     9        0.000000        0.661496         3    ;  uncertainty k = 0.214901
        13         9        11        16     9      180.000000       -0.509714         4    ;  uncertainty k = 0.205263
        13         9        11        20     9        0.000000       -2.882812         1    ;  uncertainty k = 0.437233
        13         9        11        20     9      180.000000        0.485460         2    ;  uncertainty k = 0.456214
        13         9        11        20     9        0.000000        1.153035         3    ;  uncertainty k = 0.206076
        13         9        11        20     9      180.000000       -0.393370         4    ;  uncertainty k = 0.109330
        13        19        24        25     9        0.000000       -0.263120         1    ;  uncertainty k = 0.264083
        13        19        24        25     9      180.000000        7.632151         2    ;  uncertainty k = 0.140015
        13        19        24        25     9        0.000000        0.567010         3    ;  uncertainty k = 0.309115
        13        19        24        25     9      180.000000        0.910084         4    ;  uncertainty k = 0.163563
        13        19        24        28     9        0.000000        0.110074         1    ;  uncertainty k = 0.214268
        13        19        24        28     9      180.000000        9.904684         2    ;  uncertainty k = 0.364719
        13        19        24        28     9        0.000000        1.390292         3    ;  uncertainty k = 0.243449
        13        19        24        28     9      180.000000        1.740266         4    ;  uncertainty k = 0.150935
        13        19        47        38     9        0.000000        0.110074         1    ;  uncertainty k = 0.214267
        13        19        47        38     9      180.000000        9.904686         2    ;  uncertainty k = 0.364720
        13        19        47        38     9        0.000000        1.390292         3    ;  uncertainty k = 0.243448
        13        19        47        38     9      180.000000        1.740266         4    ;  uncertainty k = 0.150935
        13        19        47        48     9        0.000000       -0.263121         1    ;  uncertainty k = 0.264083
        13        19        47        48     9      180.000000        7.632152         2    ;  uncertainty k = 0.140016
        13        19        47        48     9        0.000000        0.567011         3    ;  uncertainty k = 0.309115
        13        19        47        48     9      180.000000        0.910084         4    ;  uncertainty k = 0.163562
        14        13        19        24     9        0.000000       -0.039094         1    ;  uncertainty k = 0.264408
        14        13        19        24     9      180.000000        2.012165         2    ;  uncertainty k = 0.154154
        14        13        19        24     9        0.000000        0.435444         3    ;  uncertainty k = 0.052440
        14        13        19        24     9      180.000000        0.245682         4    ;  uncertainty k = 0.058980
        14        13        19        47     9        0.000000       -0.039094         1    ;  uncertainty k = 0.264407
        14        13        19        47     9      180.000000        2.012165         2    ;  uncertainty k = 0.154152
        14        13        19        47     9        0.000000        0.435445         3    ;  uncertainty k = 0.052439
        14        13        19        47     9      180.000000        0.245682         4    ;  uncertainty k = 0.058979
        15        13        19        24     9        0.000000       -0.039094         1    ;  uncertainty k = 0.264408
        15        13        19        24     9      180.000000        2.012165         2    ;  uncertainty k = 0.154154
        15        13        19        24     9        0.000000        0.435444         3    ;  uncertainty k = 0.052440
        15        13        19        24     9      180.000000        0.245682         4    ;  uncertainty k = 0.058980
        15        13        19        47     9        0.000000       -0.039094         1    ;  uncertainty k = 0.264407
        15        13        19        47     9      180.000000        2.012165         2    ;  uncertainty k = 0.154152
        15        13        19        47     9        0.000000        0.435445         3    ;  uncertainty k = 0.052439
        15        13        19        47     9      180.000000        0.245682         4    ;  uncertainty k = 0.058979
        16        11        20        21     9        0.000000       16.389838         1    ;  uncertainty k = 0.301224
        16        11        20        21     9      180.000000       -3.672201         2    ;  uncertainty k = 0.592037
        16        11        20        21     9        0.000000        1.291159         3    ;  uncertainty k = 0.170917
        16        11        20        21     9      180.000000        0.422890         4    ;  uncertainty k = 0.078252
        16        22        27        30     9        0.000000       -0.597343         1    ;  uncertainty k = 0.431671
        16        22        27        30     9      180.000000        0.816447         2    ;  uncertainty k = 0.440829
        16        22        27        30     9        0.000000        0.910721         3    ;  uncertainty k = 0.199554
        16        22        27        30     9      180.000000       -0.096987         4    ;  uncertainty k = 0.072643
        16        22        27        33     9        0.000000        0.750566         1    ;  uncertainty k = 0.654605
        16        22        27        33     9      180.000000       -0.120721         2    ;  uncertainty k = 0.785357
        16        22        27        33     9        0.000000        1.339178         3    ;  uncertainty k = 0.252545
        16        22        27        33     9      180.000000       -0.079548         4    ;  uncertainty k = 0.204168
        16        22        27        55     9        0.000000       -0.597343         1    ;  uncertainty k = 0.431669
        16        22        27        55     9      180.000000        0.816446         2    ;  uncertainty k = 0.440830
        16        22        27        55     9        0.000000        0.910721         3    ;  uncertainty k = 0.199554
        16        22        27        55     9      180.000000       -0.096987         4    ;  uncertainty k = 0.072643
        17        16        11        20     9        0.000000       -0.514289         1    ;  uncertainty k = 0.473599
        17        16        11        20     9      180.000000       -0.198718         2    ;  uncertainty k = 0.779969
        17        16        11        20     9        0.000000        0.827571         3    ;  uncertainty k = 0.290358
        17        16        11        20     9      180.000000       -0.067448         4    ;  uncertainty k = 0.211703
        17        16        22        23     9        0.000000        0.370280         1    ;  uncertainty k = 0.636238
        17        16        22        23     9      180.000000       -0.132100         2    ;  uncertainty k = 0.238132
        17        16        22        23     9        0.000000        0.259720         3    ;  uncertainty k = 0.102797
        17        16        22        23     9      180.000000        0.015971         4    ;  uncertainty k = 0.168575
        17        16        22        26     9        0.000000        0.370280         1    ;  uncertainty k = 0.636238
        17        16        22        26     9      180.000000       -0.132100         2    ;  uncertainty k = 0.238132
        17        16        22        26     9        0.000000        0.259720         3    ;  uncertainty k = 0.102797
        17        16        22        26     9      180.000000        0.015971         4    ;  uncertainty k = 0.168575
        17        16        22        27     9        0.000000        0.774376         1    ;  uncertainty k = 0.655808
        17        16        22        27     9      180.000000       -0.998969         2    ;  uncertainty k = 0.233861
        17        16        22        27     9        0.000000        0.865937         3    ;  uncertainty k = 0.137060
        17        16        22        27     9      180.000000       -0.083516         4    ;  uncertainty k = 0.175879
        18        16        11        20     9        0.000000       -0.514289         1    ;  uncertainty k = 0.473599
        18        16        11        20     9      180.000000       -0.198718         2    ;  uncertainty k = 0.779969
        18        16        11        20     9        0.000000        0.827571         3    ;  uncertainty k = 0.290358
        18        16        11        20     9      180.000000       -0.067448         4    ;  uncertainty k = 0.211703
        18        16        22        23     9        0.000000        0.370280         1    ;  uncertainty k = 0.636238
        18        16        22        23     9      180.000000       -0.132100         2    ;  uncertainty k = 0.238132
        18        16        22        23     9        0.000000        0.259720         3    ;  uncertainty k = 0.102797
        18        16        22        23     9      180.000000        0.015971         4    ;  uncertainty k = 0.168575
        18        16        22        26     9        0.000000        0.370280         1    ;  uncertainty k = 0.636238
        18        16        22        26     9      180.000000       -0.132100         2    ;  uncertainty k = 0.238132
        18        16        22        26     9        0.000000        0.259720         3    ;  uncertainty k = 0.102797
        18        16        22        26     9      180.000000        0.015971         4    ;  uncertainty k = 0.168575
        18        16        22        27     9        0.000000        0.774376         1    ;  uncertainty k = 0.655808
        18        16        22        27     9      180.000000       -0.998969         2    ;  uncertainty k = 0.233861
        18        16        22        27     9        0.000000        0.865937         3    ;  uncertainty k = 0.137060
        18        16        22        27     9      180.000000       -0.083516         4    ;  uncertainty k = 0.175879
        19        24        28        29     9        0.000000       -0.127667         1    ;  uncertainty k = 0.303255
        19        24        28        29     9      180.000000       12.478619         2    ;  uncertainty k = 0.567057
        19        24        28        29     9        0.000000        1.533163         3    ;  uncertainty k = 0.276196
        19        24        28        29     9      180.000000        1.474302         4    ;  uncertainty k = 0.234352
        19        24        28        34     9        0.000000       -0.053166         1    ;  uncertainty k = 0.191079
        19        24        28        34     9      180.000000        8.783283         2    ;  uncertainty k = 0.607469
        19        24        28        34     9        0.000000       -0.050043         3    ;  uncertainty k = 0.446776
        19        24        28        34     9      180.000000        1.273740         4    ;  uncertainty k = 0.296894
        19        47        38        34     9        0.000000       -0.053167         1    ;  uncertainty k = 0.191078
        19        47        38        34     9      180.000000        8.783284         2    ;  uncertainty k = 0.607468
        19        47        38        34     9        0.000000       -0.050044         3    ;  uncertainty k = 0.446777
        19        47        38        34     9      180.000000        1.273740         4    ;  uncertainty k = 0.296895
        19        47        38        39     9        0.000000       -0.127666         1    ;  uncertainty k = 0.303255
        19        47        38        39     9      180.000000       12.478619         2    ;  uncertainty k = 0.567057
        19        47        38        39     9        0.000000        1.533163         3    ;  uncertainty k = 0.276196
        19        47        38        39     9      180.000000        1.474302         4    ;  uncertainty k = 0.234352
        20        11        16        22     9        0.000000        4.304522         1    ;  uncertainty k = 1.001860
        20        11        16        22     9      180.000000       -2.577612         2    ;  uncertainty k = 0.965948
        20        11        16        22     9        0.000000        1.229514         3    ;  uncertainty k = 0.306165
        20        11        16        22     9      180.000000       -0.540715         4    ;  uncertainty k = 0.252532
        22        27        30        31     9        0.000000       -0.647045         1    ;  uncertainty k = 0.243970
        22        27        30        31     9      180.000000       -1.885652         2    ;  uncertainty k = 0.226030
        22        27        30        31     9        0.000000        0.576524         3    ;  uncertainty k = 0.154480
        22        27        30        31     9      180.000000       -0.208205         4    ;  uncertainty k = 0.133247
        22        27        30        32     9        0.000000       -0.647045         1    ;  uncertainty k = 0.243970
        22        27        30        32     9      180.000000       -1.885652         2    ;  uncertainty k = 0.226030
        22        27        30        32     9        0.000000        0.576524         3    ;  uncertainty k = 0.154480
        22        27        30        32     9      180.000000       -0.208205         4    ;  uncertainty k = 0.133247
        22        27        30        36     9        0.000000       -0.290797         1    ;  uncertainty k = 0.470419
        22        27        30        36     9      180.000000       -1.077800         2    ;  uncertainty k = 0.619420
        22        27        30        36     9        0.000000        1.044040         3    ;  uncertainty k = 0.400135
        22        27        30        36     9      180.000000        0.029196         4    ;  uncertainty k = 0.254797
        22        27        33        37     9        0.000000        0.409310         1    ;  uncertainty k = 0.789177
        22        27        33        37     9      180.000000        2.110941         2    ;  uncertainty k = 0.570296
        22        27        33        37     9        0.000000        0.639202         3    ;  uncertainty k = 0.234584
        22        27        33        37     9      180.000000        0.199103         4    ;  uncertainty k = 0.107506
        22        27        33        61     9        0.000000        0.019946         1    ;  uncertainty k = 0.437375
        22        27        33        61     9      180.000000        2.079477         2    ;  uncertainty k = 0.536532
        22        27        33        61     9        0.000000        0.685940         3    ;  uncertainty k = 0.235462
        22        27        33        61     9      180.000000        0.196724         4    ;  uncertainty k = 0.134443
        22        27        55        49     9        0.000000       -0.290798         1    ;  uncertainty k = 0.470418
        22        27        55        49     9      180.000000       -1.077801         2    ;  uncertainty k = 0.619421
        22        27        55        49     9        0.000000        1.044040         3    ;  uncertainty k = 0.400135
        22        27        55        49     9      180.000000        0.029196         4    ;  uncertainty k = 0.254798
        22        27        55        56     9        0.000000       -0.647044         1    ;  uncertainty k = 0.243972
        22        27        55        56     9      180.000000       -1.885650         2    ;  uncertainty k = 0.226029
        22        27        55        56     9        0.000000        0.576524         3    ;  uncertainty k = 0.154480
        22        27        55        56     9      180.000000       -0.208205         4    ;  uncertainty k = 0.133248
        22        27        55        57     9        0.000000       -0.647044         1    ;  uncertainty k = 0.243972
        22        27        55        57     9      180.000000       -1.885650         2    ;  uncertainty k = 0.226029
        22        27        55        57     9        0.000000        0.576524         3    ;  uncertainty k = 0.154480
        22        27        55        57     9      180.000000       -0.208205         4    ;  uncertainty k = 0.133248
        23        22        27        30     9        0.000000       -0.573717         1    ;  uncertainty k = 1.542229
        23        22        27        30     9      180.000000        0.371284         2    ;  uncertainty k = 0.537286
        23        22        27        30     9        0.000000        0.525394         3    ;  uncertainty k = 0.177202
        23        22        27        30     9      180.000000       -0.110754         4    ;  uncertainty k = 0.077114
        23        22        27        33     9        0.000000        3.075188         1    ;  uncertainty k = 1.011204
        23        22        27        33     9      180.000000        0.182078         2    ;  uncertainty k = 0.228156
        23        22        27        33     9        0.000000        0.646017         3    ;  uncertainty k = 0.402512
        23        22        27        33     9      180.000000       -0.150598         4    ;  uncertainty k = 0.115953
        23        22        27        55     9        0.000000       -0.573719         1    ;  uncertainty k = 1.542229
        23        22        27        55     9      180.000000        0.371286         2    ;  uncertainty k = 0.537285
        23        22        27        55     9        0.000000        0.525394         3    ;  uncertainty k = 0.177202
        23        22        27        55     9      180.000000       -0.110754         4    ;  uncertainty k = 0.077114
        24        19        47        38     9        0.000000       -0.194148         1    ;  uncertainty k = 0.229850
        24        19        47        38     9      180.000000       11.992983         2    ;  uncertainty k = 0.370745
        24        19        47        38     9        0.000000       -0.300681         3    ;  uncertainty k = 0.435491
        24        19        47        38     9      180.000000        0.903339         4    ;  uncertainty k = 0.359219
        24        19        47        48     9        0.000000        0.216233         1    ;  uncertainty k = 0.175925
        24        19        47        48     9      180.000000        7.293882         2    ;  uncertainty k = 0.645817
        24        19        47        48     9        0.000000        1.519205         3    ;  uncertainty k = 0.416345
        24        19        47        48     9      180.000000        1.640671         4    ;  uncertainty k = 0.160063
        24        28        34        35     9        0.000000        0.113274         1    ;  uncertainty k = 0.163886
        24        28        34        35     9      180.000000        5.570069         2    ;  uncertainty k = 0.658049
        24        28        34        35     9        0.000000        1.285226         3    ;  uncertainty k = 0.310395
        24        28        34        35     9      180.000000        1.458916         4    ;  uncertainty k = 0.148552
        24        28        34        38     9        0.000000       -0.020920         1    ;  uncertainty k = 0.157045
        24        28        34        38     9      180.000000        9.170649         2    ;  uncertainty k = 0.439327
        24        28        34        38     9        0.000000       -0.195729         3    ;  uncertainty k = 0.474557
        24        28        34        38     9      180.000000        1.239477         4    ;  uncertainty k = 0.264396
        25        24        19        47     9        0.000000        0.216234         1    ;  uncertainty k = 0.175926
        25        24        19        47     9      180.000000        7.293882         2    ;  uncertainty k = 0.645818
        25        24        19        47     9        0.000000        1.519205         3    ;  uncertainty k = 0.416346
        25        24        19        47     9      180.000000        1.640671         4    ;  uncertainty k = 0.160063
        25        24        28        29     9        0.000000       -0.338324         1    ;  uncertainty k = 0.125407
        25        24        28        29     9      180.000000        9.023859         2    ;  uncertainty k = 0.342385
        25        24        28        29     9        0.000000        0.780161         3    ;  uncertainty k = 0.283674
        25        24        28        29     9      180.000000        0.968908         4    ;  uncertainty k = 0.220959
        25        24        28        34     9        0.000000        0.000249         1    ;  uncertainty k = 0.206465
        25        24        28        34     9      180.000000        5.882344         2    ;  uncertainty k = 0.714480
        25        24        28        34     9        0.000000        1.305116         3    ;  uncertainty k = 0.360333
        25        24        28        34     9      180.000000        1.568343         4    ;  uncertainty k = 0.171881
        26        22        27        30     9        0.000000       -0.573717         1    ;  uncertainty k = 1.542229
        26        22        27        30     9      180.000000        0.371284         2    ;  uncertainty k = 0.537286
        26        22        27        30     9        0.000000        0.525394         3    ;  uncertainty k = 0.177202
        26        22        27        30     9      180.000000       -0.110754         4    ;  uncertainty k = 0.077114
        26        22        27        33     9        0.000000        3.075188         1    ;  uncertainty k = 1.011204
        26        22        27        33     9      180.000000        0.182078         2    ;  uncertainty k = 0.228156
        26        22        27        33     9        0.000000        0.646017         3    ;  uncertainty k = 0.402512
        26        22        27        33     9      180.000000       -0.150598         4    ;  uncertainty k = 0.115953
        26        22        27        55     9        0.000000       -0.573719         1    ;  uncertainty k = 1.542229
        26        22        27        55     9      180.000000        0.371286         2    ;  uncertainty k = 0.537285
        26        22        27        55     9        0.000000        0.525394         3    ;  uncertainty k = 0.177202
        26        22        27        55     9      180.000000       -0.110754         4    ;  uncertainty k = 0.077114
        27        30        36        40     9        0.000000       -0.407944         1    ;  uncertainty k = 0.525307
        27        30        36        40     9      180.000000       -1.098787         2    ;  uncertainty k = 0.249708
        27        30        36        40     9        0.000000        0.417833         3    ;  uncertainty k = 0.190233
        27        30        36        40     9      180.000000       -0.070139         4    ;  uncertainty k = 0.099482
        27        30        36        41     9        0.000000       -0.407944         1    ;  uncertainty k = 0.525307
        27        30        36        41     9      180.000000       -1.098787         2    ;  uncertainty k = 0.249708
        27        30        36        41     9        0.000000        0.417833         3    ;  uncertainty k = 0.190233
        27        30        36        41     9      180.000000       -0.070139         4    ;  uncertainty k = 0.099482
        27        30        36        43     9        0.000000       -4.114838         1    ;  uncertainty k = 0.876568
        27        30        36        43     9      180.000000       -1.148866         2    ;  uncertainty k = 0.718817
        27        30        36        43     9        0.000000        1.567937         3    ;  uncertainty k = 0.124713
        27        30        36        43     9      180.000000       -0.993753         4    ;  uncertainty k = 0.071509
        27        33        37        42     9        0.000000       -0.247767         1    ;  uncertainty k = 0.305281
        27        33        37        42     9      180.000000        7.444074         2    ;  uncertainty k = 0.344890
        27        33        37        42     9        0.000000        0.686231         3    ;  uncertainty k = 0.277603
        27        33        37        42     9      180.000000        1.072055         4    ;  uncertainty k = 0.254277
        27        33        37        46     9        0.000000        0.207055         1    ;  uncertainty k = 0.393848
        27        33        37        46     9      180.000000        8.809479         2    ;  uncertainty k = 0.405392
        27        33        37        46     9        0.000000        1.328668         3    ;  uncertainty k = 0.165247
        27        33        37        46     9      180.000000        1.760401         4    ;  uncertainty k = 0.207471
        27        33        61        58     9        0.000000        0.261860         1    ;  uncertainty k = 0.434278
        27        33        61        58     9      180.000000        8.960497         2    ;  uncertainty k = 0.755546
        27        33        61        58     9        0.000000        1.403960         3    ;  uncertainty k = 0.383218
        27        33        61        58     9      180.000000        1.710701         4    ;  uncertainty k = 0.235064
        27        33        61        62     9        0.000000       -0.157066         1    ;  uncertainty k = 0.257865
        27        33        61        62     9      180.000000        7.318176         2    ;  uncertainty k = 0.369286
        27        33        61        62     9        0.000000        0.726293         3    ;  uncertainty k = 0.266253
        27        33        61        62     9      180.000000        1.022939         4    ;  uncertainty k = 0.234716
        27        55        49        43     9        0.000000       -4.114840         1    ;  uncertainty k = 0.876572
        27        55        49        43     9      180.000000       -1.148867         2    ;  uncertainty k = 0.718817
        27        55        49        43     9        0.000000        1.567937         3    ;  uncertainty k = 0.124713
        27        55        49        43     9      180.000000       -0.993753         4    ;  uncertainty k = 0.071509
        27        55        49        50     9        0.000000       -0.407945         1    ;  uncertainty k = 0.525308
        27        55        49        50     9      180.000000       -1.098787         2    ;  uncertainty k = 0.249707
        27        55        49        50     9        0.000000        0.417833         3    ;  uncertainty k = 0.190233
        27        55        49        50     9      180.000000       -0.070139         4    ;  uncertainty k = 0.099482
        27        55        49        51     9        0.000000       -0.407945         1    ;  uncertainty k = 0.525308
        27        55        49        51     9      180.000000       -1.098787         2    ;  uncertainty k = 0.249707
        27        55        49        51     9        0.000000        0.417833         3    ;  uncertainty k = 0.190233
        27        55        49        51     9      180.000000       -0.070139         4    ;  uncertainty k = 0.099482
        28        24        19        47     9        0.000000       -0.194148         1    ;  uncertainty k = 0.229850
        28        24        19        47     9      180.000000       11.992984         2    ;  uncertainty k = 0.370744
        28        24        19        47     9        0.000000       -0.300681         3    ;  uncertainty k = 0.435492
        28        24        19        47     9      180.000000        0.903339         4    ;  uncertainty k = 0.359220
        28        34        38        39     9        0.000000       -0.058105         1    ;  uncertainty k = 0.253381
        28        34        38        39     9      180.000000       12.532833         2    ;  uncertainty k = 0.664664
        28        34        38        39     9        0.000000        1.588332         3    ;  uncertainty k = 0.317469
        28        34        38        39     9      180.000000        1.491709         4    ;  uncertainty k = 0.286719
        28        34        38        47     9        0.000000       -0.020922         1    ;  uncertainty k = 0.157047
        28        34        38        47     9      180.000000        9.170647         2    ;  uncertainty k = 0.439327
        28        34        38        47     9        0.000000       -0.195730         3    ;  uncertainty k = 0.474558
        28        34        38        47     9      180.000000        1.239476         4    ;  uncertainty k = 0.264396
        29        28        34        35     9        0.000000       -0.240771         1    ;  uncertainty k = 0.279190
        29        28        34        35     9      180.000000        8.519236         2    ;  uncertainty k = 0.364230
        29        28        34        35     9        0.000000        0.792415         3    ;  uncertainty k = 0.318593
        29        28        34        35     9      180.000000        0.989252         4    ;  uncertainty k = 0.224408
        29        28        34        38     9        0.000000       -0.058106         1    ;  uncertainty k = 0.253381
        29        28        34        38     9      180.000000       12.532832         2    ;  uncertainty k = 0.664665
        29        28        34        38     9        0.000000        1.588331         3    ;  uncertainty k = 0.317470
        29        28        34        38     9      180.000000        1.491709         4    ;  uncertainty k = 0.286719
        30        27        33        37     9        0.000000       -0.457669         1    ;  uncertainty k = 0.488551
        30        27        33        37     9      180.000000        2.394942         2    ;  uncertainty k = 0.448952
        30        27        33        37     9        0.000000        0.340568         3    ;  uncertainty k = 0.132716
        30        27        33        37     9      180.000000        0.184272         4    ;  uncertainty k = 0.067178
        30        27        33        61     9        0.000000       -0.462912         1    ;  uncertainty k = 0.449823
        30        27        33        61     9      180.000000        2.295122         2    ;  uncertainty k = 0.396404
        30        27        33        61     9        0.000000        0.432842         3    ;  uncertainty k = 0.148043
        30        27        33        61     9      180.000000        0.211688         4    ;  uncertainty k = 0.075598
        30        27        55        49     9        0.000000       -0.142798         1    ;  uncertainty k = 1.728686
        30        27        55        49     9      180.000000        0.916826         2    ;  uncertainty k = 0.343929
        30        27        55        49     9        0.000000        0.722540         3    ;  uncertainty k = 0.376946
        30        27        55        49     9      180.000000       -0.911695         4    ;  uncertainty k = 0.256878
        30        27        55        56     9        0.000000       -1.138658         1    ;  uncertainty k = 0.310936
        30        27        55        56     9      180.000000       -0.276772         2    ;  uncertainty k = 0.171409
        30        27        55        56     9        0.000000       -0.104417         3    ;  uncertainty k = 0.142239
        30        27        55        56     9      180.000000       -0.073598         4    ;  uncertainty k = 0.069647
        30        27        55        57     9        0.000000       -1.138658         1    ;  uncertainty k = 0.310936
        30        27        55        57     9      180.000000       -0.276772         2    ;  uncertainty k = 0.171409
        30        27        55        57     9        0.000000       -0.104417         3    ;  uncertainty k = 0.142239
        30        27        55        57     9      180.000000       -0.073598         4    ;  uncertainty k = 0.069647
        30        36        43        44     9        0.000000       -1.999805         1    ;  uncertainty k = 0.225318
        30        36        43        44     9      180.000000       -0.232324         2    ;  uncertainty k = 0.172198
        30        36        43        44     9        0.000000        0.488841         3    ;  uncertainty k = 0.205544
        30        36        43        44     9      180.000000       -0.107598         4    ;  uncertainty k = 0.052869
        30        36        43        45     9        0.000000       -1.999805         1    ;  uncertainty k = 0.225318
        30        36        43        45     9      180.000000       -0.232324         2    ;  uncertainty k = 0.172198
        30        36        43        45     9        0.000000        0.488841         3    ;  uncertainty k = 0.205544
        30        36        43        45     9      180.000000       -0.107598         4    ;  uncertainty k = 0.052869
        30        36        43        49     9        0.000000       -8.611498         1    ;  uncertainty k = 1.562644
        30        36        43        49     9      180.000000        1.369362         2    ;  uncertainty k = 0.438701
        30        36        43        49     9        0.000000        1.783440         3    ;  uncertainty k = 0.147500
        30        36        43        49     9      180.000000       -1.140308         4    ;  uncertainty k = 0.234597
        31        30        27        33     9        0.000000        1.046166         1    ;  uncertainty k = 0.634000
        31        30        27        33     9      180.000000       -0.209443         2    ;  uncertainty k = 0.470606
        31        30        27        33     9        0.000000        0.520181         3    ;  uncertainty k = 0.208402
        31        30        27        33     9      180.000000       -0.017922         4    ;  uncertainty k = 0.036059
        31        30        27        55     9        0.000000       -1.138660         1    ;  uncertainty k = 0.310936
        31        30        27        55     9      180.000000       -0.276771         2    ;  uncertainty k = 0.171408
        31        30        27        55     9        0.000000       -0.104417         3    ;  uncertainty k = 0.142240
        31        30        27        55     9      180.000000       -0.073598         4    ;  uncertainty k = 0.069648
        31        30        36        40     9        0.000000        1.865633         1    ;  uncertainty k = 0.151738
        31        30        36        40     9      180.000000       -0.051734         2    ;  uncertainty k = 0.121265
        31        30        36        40     9        0.000000        0.308088         3    ;  uncertainty k = 0.074080
        31        30        36        40     9      180.000000        0.151763         4    ;  uncertainty k = 0.037921
        31        30        36        41     9        0.000000        1.865633         1    ;  uncertainty k = 0.151738
        31        30        36        41     9      180.000000       -0.051734         2    ;  uncertainty k = 0.121265
        31        30        36        41     9        0.000000        0.308088         3    ;  uncertainty k = 0.074080
        31        30        36        41     9      180.000000        0.151763         4    ;  uncertainty k = 0.037921
        31        30        36        43     9        0.000000       -1.983969         1    ;  uncertainty k = 0.669414
        31        30        36        43     9      180.000000       -0.050872         2    ;  uncertainty k = 0.260863
        31        30        36        43     9        0.000000        0.508700         3    ;  uncertainty k = 0.104846
        31        30        36        43     9      180.000000       -0.031107         4    ;  uncertainty k = 0.060995
        32        30        27        33     9        0.000000        1.046166         1    ;  uncertainty k = 0.634000
        32        30        27        33     9      180.000000       -0.209443         2    ;  uncertainty k = 0.470606
        32        30        27        33     9        0.000000        0.520181         3    ;  uncertainty k = 0.208402
        32        30        27        33     9      180.000000       -0.017922         4    ;  uncertainty k = 0.036059
        32        30        27        55     9        0.000000       -1.138660         1    ;  uncertainty k = 0.310936
        32        30        27        55     9      180.000000       -0.276771         2    ;  uncertainty k = 0.171408
        32        30        27        55     9        0.000000       -0.104417         3    ;  uncertainty k = 0.142240
        32        30        27        55     9      180.000000       -0.073598         4    ;  uncertainty k = 0.069648
        32        30        36        40     9        0.000000        1.865633         1    ;  uncertainty k = 0.151738
        32        30        36        40     9      180.000000       -0.051734         2    ;  uncertainty k = 0.121265
        32        30        36        40     9        0.000000        0.308088         3    ;  uncertainty k = 0.074080
        32        30        36        40     9      180.000000        0.151763         4    ;  uncertainty k = 0.037921
        32        30        36        41     9        0.000000        1.865633         1    ;  uncertainty k = 0.151738
        32        30        36        41     9      180.000000       -0.051734         2    ;  uncertainty k = 0.121265
        32        30        36        41     9        0.000000        0.308088         3    ;  uncertainty k = 0.074080
        32        30        36        41     9      180.000000        0.151763         4    ;  uncertainty k = 0.037921
        32        30        36        43     9        0.000000       -1.983969         1    ;  uncertainty k = 0.669414
        32        30        36        43     9      180.000000       -0.050872         2    ;  uncertainty k = 0.260863
        32        30        36        43     9        0.000000        0.508700         3    ;  uncertainty k = 0.104846
        32        30        36        43     9      180.000000       -0.031107         4    ;  uncertainty k = 0.060995
        33        27        30        36     9        0.000000       -2.343906         1    ;  uncertainty k = 0.965765
        33        27        30        36     9      180.000000        0.760450         2    ;  uncertainty k = 0.318176
        33        27        30        36     9        0.000000        0.841892         3    ;  uncertainty k = 0.253139
        33        27        30        36     9      180.000000       -0.079615         4    ;  uncertainty k = 0.080457
        33        27        55        49     9        0.000000       -2.343906         1    ;  uncertainty k = 0.965764
        33        27        55        49     9      180.000000        0.760452         2    ;  uncertainty k = 0.318176
        33        27        55        49     9        0.000000        0.841892         3    ;  uncertainty k = 0.253139
        33        27        55        49     9      180.000000       -0.079615         4    ;  uncertainty k = 0.080457
        33        27        55        56     9        0.000000        1.046166         1    ;  uncertainty k = 0.634000
        33        27        55        56     9      180.000000       -0.209443         2    ;  uncertainty k = 0.470606
        33        27        55        56     9        0.000000        0.520181         3    ;  uncertainty k = 0.208402
        33        27        55        56     9      180.000000       -0.017922         4    ;  uncertainty k = 0.036059
        33        27        55        57     9        0.000000        1.046166         1    ;  uncertainty k = 0.634000
        33        27        55        57     9      180.000000       -0.209443         2    ;  uncertainty k = 0.470606
        33        27        55        57     9        0.000000        0.520181         3    ;  uncertainty k = 0.208402
        33        27        55        57     9      180.000000       -0.017922         4    ;  uncertainty k = 0.036059
        33        37        46        52     9        0.000000        0.090496         1    ;  uncertainty k = 0.238630
        33        37        46        52     9      180.000000        9.693882         2    ;  uncertainty k = 0.349815
        33        37        46        52     9        0.000000       -0.017652         3    ;  uncertainty k = 0.296030
        33        37        46        52     9      180.000000        1.167157         4    ;  uncertainty k = 0.221842
        33        37        46        54     9        0.000000        0.088389         1    ;  uncertainty k = 0.312202
        33        37        46        54     9      180.000000        8.976045         2    ;  uncertainty k = 0.511943
        33        37        46        54     9        0.000000        1.202359         3    ;  uncertainty k = 0.226759
        33        37        46        54     9      180.000000        1.643511         4    ;  uncertainty k = 0.163906
        33        61        58        52     9        0.000000       -0.055117         1    ;  uncertainty k = 0.319920
        33        61        58        52     9      180.000000       13.583632         2    ;  uncertainty k = 0.269406
        33        61        58        52     9        0.000000       -0.795394         3    ;  uncertainty k = 0.463373
        33        61        58        52     9      180.000000        0.759899         4    ;  uncertainty k = 0.237780
        33        61        58        59     9        0.000000        0.023364         1    ;  uncertainty k = 0.307948
        33        61        58        59     9      180.000000        7.482111         2    ;  uncertainty k = 0.255861
        33        61        58        59     9        0.000000        1.489262         3    ;  uncertainty k = 0.201904
        33        61        58        59     9      180.000000        1.742729         4    ;  uncertainty k = 0.108030
        34        38        47        48     9        0.000000        0.000250         1    ;  uncertainty k = 0.206465
        34        38        47        48     9      180.000000        5.882345         2    ;  uncertainty k = 0.714480
        34        38        47        48     9        0.000000        1.305115         3    ;  uncertainty k = 0.360334
        34        38        47        48     9      180.000000        1.568343         4    ;  uncertainty k = 0.171880
        35        34        38        39     9        0.000000       -0.240771         1    ;  uncertainty k = 0.279191
        35        34        38        39     9      180.000000        8.519234         2    ;  uncertainty k = 0.364229
        35        34        38        39     9        0.000000        0.792415         3    ;  uncertainty k = 0.318594
        35        34        38        39     9      180.000000        0.989252         4    ;  uncertainty k = 0.224408
        35        34        38        47     9        0.000000        0.113274         1    ;  uncertainty k = 0.163887
        35        34        38        47     9      180.000000        5.570070         2    ;  uncertainty k = 0.658049
        35        34        38        47     9        0.000000        1.285225         3    ;  uncertainty k = 0.310395
        35        34        38        47     9      180.000000        1.458916         4    ;  uncertainty k = 0.148553
        36        30        27        55     9        0.000000       -0.142798         1    ;  uncertainty k = 1.728685
        36        30        27        55     9      180.000000        0.916826         2    ;  uncertainty k = 0.343929
        36        30        27        55     9        0.000000        0.722540         3    ;  uncertainty k = 0.376945
        36        30        27        55     9      180.000000       -0.911694         4    ;  uncertainty k = 0.256878
        36        43        49        50     9        0.000000       -1.682033         1    ;  uncertainty k = 0.270101
        36        43        49        50     9      180.000000       -0.450516         2    ;  uncertainty k = 0.170394
        36        43        49        50     9        0.000000        0.426110         3    ;  uncertainty k = 0.085850
        36        43        49        50     9      180.000000       -0.018605         4    ;  uncertainty k = 0.047628
        36        43        49        51     9        0.000000       -1.682033         1    ;  uncertainty k = 0.270101
        36        43        49        51     9      180.000000       -0.450516         2    ;  uncertainty k = 0.170394
        36        43        49        51     9        0.000000        0.426110         3    ;  uncertainty k = 0.085850
        36        43        49        51     9      180.000000       -0.018605         4    ;  uncertainty k = 0.047628
        36        43        49        55     9        0.000000       -8.611498         1    ;  uncertainty k = 1.562641
        36        43        49        55     9      180.000000        1.369361         2    ;  uncertainty k = 0.438702
        36        43        49        55     9        0.000000        1.783440         3    ;  uncertainty k = 0.147501
        36        43        49        55     9      180.000000       -1.140309         4    ;  uncertainty k = 0.234597
        37        33        27        55     9        0.000000       -0.457669         1    ;  uncertainty k = 0.488552
        37        33        27        55     9      180.000000        2.394943         2    ;  uncertainty k = 0.448952
        37        33        27        55     9        0.000000        0.340568         3    ;  uncertainty k = 0.132716
        37        33        27        55     9      180.000000        0.184271         4    ;  uncertainty k = 0.067178
        37        33        61        58     9        0.000000       -0.293957         1    ;  uncertainty k = 0.302506
        37        33        61        58     9      180.000000       12.044207         2    ;  uncertainty k = 0.483249
        37        33        61        58     9        0.000000       -0.432578         3    ;  uncertainty k = 0.235156
        37        33        61        58     9      180.000000        0.879059         4    ;  uncertainty k = 0.259116
        37        33        61        62     9        0.000000        0.060837         1    ;  uncertainty k = 0.095391
        37        33        61        62     9      180.000000        7.504016         2    ;  uncertainty k = 0.511881
        37        33        61        62     9        0.000000        1.462767         3    ;  uncertainty k = 0.342533
        37        33        61        62     9      180.000000        1.612156         4    ;  uncertainty k = 0.195913
        37        46        52        53     9        0.000000        0.176003         1    ;  uncertainty k = 0.147188
        37        46        52        53     9      180.000000        6.777155         2    ;  uncertainty k = 0.482588
        37        46        52        53     9        0.000000        1.446314         3    ;  uncertainty k = 0.259804
        37        46        52        53     9      180.000000        1.612971         4    ;  uncertainty k = 0.223361
        37        46        52        58     9        0.000000       -0.030646         1    ;  uncertainty k = 0.161939
        37        46        52        58     9      180.000000       10.718901         2    ;  uncertainty k = 0.260863
        37        46        52        58     9        0.000000       -0.354117         3    ;  uncertainty k = 0.315722
        37        46        52        58     9      180.000000        1.002332         4    ;  uncertainty k = 0.237025
        37        46        54        60     9        0.000000       -0.188722         1    ;  uncertainty k = 0.751419
        37        46        54        60     9      180.000000        2.959926         2    ;  uncertainty k = 0.050102
        37        46        54        60     9        0.000000        0.464475         3    ;  uncertainty k = 0.219261
        37        46        54        60     9      180.000000        0.001169         4    ;  uncertainty k = 0.086742
        37        46        54        65     9        0.000000       -0.011442         1    ;  uncertainty k = 0.289527
        37        46        54        65     9      180.000000        3.429716         2    ;  uncertainty k = 0.196832
        37        46        54        65     9        0.000000        0.517801         3    ;  uncertainty k = 0.156695
        37        46        54        65     9      180.000000       -0.196225         4    ;  uncertainty k = 0.092800
        39        38        47        48     9        0.000000       -0.338324         1    ;  uncertainty k = 0.125407
        39        38        47        48     9      180.000000        9.023857         2    ;  uncertainty k = 0.342386
        39        38        47        48     9        0.000000        0.780162         3    ;  uncertainty k = 0.283675
        39        38        47        48     9      180.000000        0.968908         4    ;  uncertainty k = 0.220959
        40        36        43        44     9        0.000000        2.507999         1    ;  uncertainty k = 0.657804
        40        36        43        44     9      180.000000       -0.113206         2    ;  uncertainty k = 0.041036
        40        36        43        44     9        0.000000        0.237190         3    ;  uncertainty k = 0.141933
        40        36        43        44     9      180.000000        0.113988         4    ;  uncertainty k = 0.030644
        40        36        43        45     9        0.000000        2.507999         1    ;  uncertainty k = 0.657804
        40        36        43        45     9      180.000000       -0.113206         2    ;  uncertainty k = 0.041036
        40        36        43        45     9        0.000000        0.237190         3    ;  uncertainty k = 0.141933
        40        36        43        45     9      180.000000        0.113988         4    ;  uncertainty k = 0.030644
        40        36        43        49     9        0.000000       -1.682034         1    ;  uncertainty k = 0.270102
        40        36        43        49     9      180.000000       -0.450514         2    ;  uncertainty k = 0.170395
        40        36        43        49     9        0.000000        0.426110         3    ;  uncertainty k = 0.085850
        40        36        43        49     9      180.000000       -0.018604         4    ;  uncertainty k = 0.047629
        41        36        43        44     9        0.000000        2.507999         1    ;  uncertainty k = 0.657804
        41        36        43        44     9      180.000000       -0.113206         2    ;  uncertainty k = 0.041036
        41        36        43        44     9        0.000000        0.237190         3    ;  uncertainty k = 0.141933
        41        36        43        44     9      180.000000        0.113988         4    ;  uncertainty k = 0.030644
        41        36        43        45     9        0.000000        2.507999         1    ;  uncertainty k = 0.657804
        41        36        43        45     9      180.000000       -0.113206         2    ;  uncertainty k = 0.041036
        41        36        43        45     9        0.000000        0.237190         3    ;  uncertainty k = 0.141933
        41        36        43        45     9      180.000000        0.113988         4    ;  uncertainty k = 0.030644
        41        36        43        49     9        0.000000       -1.682034         1    ;  uncertainty k = 0.270102
        41        36        43        49     9      180.000000       -0.450514         2    ;  uncertainty k = 0.170395
        41        36        43        49     9        0.000000        0.426110         3    ;  uncertainty k = 0.085850
        41        36        43        49     9      180.000000       -0.018604         4    ;  uncertainty k = 0.047629
        42        37        33        61     9        0.000000        0.078792         1    ;  uncertainty k = 0.174295
        42        37        33        61     9      180.000000        7.820104         2    ;  uncertainty k = 0.462201
        42        37        33        61     9        0.000000        1.478714         3    ;  uncertainty k = 0.294367
        42        37        33        61     9      180.000000        1.657388         4    ;  uncertainty k = 0.194736
        42        37        46        52     9        0.000000        0.098268         1    ;  uncertainty k = 0.142175
        42        37        46        52     9      180.000000        7.220317         2    ;  uncertainty k = 0.678936
        42        37        46        52     9        0.000000        1.450402         3    ;  uncertainty k = 0.171377
        42        37        46        52     9      180.000000        1.617966         4    ;  uncertainty k = 0.290316
        42        37        46        54     9        0.000000       -0.211779         1    ;  uncertainty k = 0.515121
        42        37        46        54     9      180.000000        7.511041         2    ;  uncertainty k = 0.259484
        42        37        46        54     9        0.000000        0.697312         3    ;  uncertainty k = 0.237970
        42        37        46        54     9      180.000000        1.206613         4    ;  uncertainty k = 0.276580
        43        49        55        56     9        0.000000       -1.983969         1    ;  uncertainty k = 0.669418
        43        49        55        56     9      180.000000       -0.050871         2    ;  uncertainty k = 0.260863
        43        49        55        56     9        0.000000        0.508699         3    ;  uncertainty k = 0.104846
        43        49        55        56     9      180.000000       -0.031107         4    ;  uncertainty k = 0.060996
        43        49        55        57     9        0.000000       -1.983969         1    ;  uncertainty k = 0.669418
        43        49        55        57     9      180.000000       -0.050871         2    ;  uncertainty k = 0.260863
        43        49        55        57     9        0.000000        0.508699         3    ;  uncertainty k = 0.104846
        43        49        55        57     9      180.000000       -0.031107         4    ;  uncertainty k = 0.060996
        44        43        49        50     9        0.000000        2.507999         1    ;  uncertainty k = 0.657804
        44        43        49        50     9      180.000000       -0.113205         2    ;  uncertainty k = 0.041036
        44        43        49        50     9        0.000000        0.237190         3    ;  uncertainty k = 0.141933
        44        43        49        50     9      180.000000        0.113988         4    ;  uncertainty k = 0.030644
        44        43        49        51     9        0.000000        2.507999         1    ;  uncertainty k = 0.657804
        44        43        49        51     9      180.000000       -0.113205         2    ;  uncertainty k = 0.041036
        44        43        49        51     9        0.000000        0.237190         3    ;  uncertainty k = 0.141933
        44        43        49        51     9      180.000000        0.113988         4    ;  uncertainty k = 0.030644
        44        43        49        55     9        0.000000       -1.999804         1    ;  uncertainty k = 0.225317
        44        43        49        55     9      180.000000       -0.232323         2    ;  uncertainty k = 0.172197
        44        43        49        55     9        0.000000        0.488841         3    ;  uncertainty k = 0.205544
        44        43        49        55     9      180.000000       -0.107597         4    ;  uncertainty k = 0.052869
        45        43        49        50     9        0.000000        2.507999         1    ;  uncertainty k = 0.657804
        45        43        49        50     9      180.000000       -0.113205         2    ;  uncertainty k = 0.041036
        45        43        49        50     9        0.000000        0.237190         3    ;  uncertainty k = 0.141933
        45        43        49        50     9      180.000000        0.113988         4    ;  uncertainty k = 0.030644
        45        43        49        51     9        0.000000        2.507999         1    ;  uncertainty k = 0.657804
        45        43        49        51     9      180.000000       -0.113205         2    ;  uncertainty k = 0.041036
        45        43        49        51     9        0.000000        0.237190         3    ;  uncertainty k = 0.141933
        45        43        49        51     9      180.000000        0.113988         4    ;  uncertainty k = 0.030644
        45        43        49        55     9        0.000000       -1.999804         1    ;  uncertainty k = 0.225317
        45        43        49        55     9      180.000000       -0.232323         2    ;  uncertainty k = 0.172197
        45        43        49        55     9        0.000000        0.488841         3    ;  uncertainty k = 0.205544
        45        43        49        55     9      180.000000       -0.107597         4    ;  uncertainty k = 0.052869
        46        37        33        61     9        0.000000       -0.329332         1    ;  uncertainty k = 0.380249
        46        37        33        61     9      180.000000       11.896928         2    ;  uncertainty k = 0.304880
        46        37        33        61     9        0.000000       -0.127951         3    ;  uncertainty k = 0.117235
        46        37        33        61     9      180.000000        0.914150         4    ;  uncertainty k = 0.275735
        46        52        58        59     9        0.000000        0.090278         1    ;  uncertainty k = 0.172509
        46        52        58        59     9      180.000000        7.959133         2    ;  uncertainty k = 0.299616
        46        52        58        59     9        0.000000        1.371530         3    ;  uncertainty k = 0.274325
        46        52        58        59     9      180.000000        1.856783         4    ;  uncertainty k = 0.115493
        46        52        58        61     9        0.000000       -0.082661         1    ;  uncertainty k = 0.247176
        46        52        58        61     9      180.000000       14.518336         2    ;  uncertainty k = 0.248409
        46        52        58        61     9        0.000000       -0.877547         3    ;  uncertainty k = 0.382842
        46        52        58        61     9      180.000000        0.628488         4    ;  uncertainty k = 0.235546
        46        54        60        63     9        0.000000        1.049770         1    ;  uncertainty k = 0.692203
        46        54        60        63     9      180.000000       11.168824         2    ;  uncertainty k = 0.850799
        46        54        60        63     9        0.000000        1.081494         3    ;  uncertainty k = 0.553187
        46        54        60        63     9      180.000000        0.385487         4    ;  uncertainty k = 0.460500
        46        54        65        64     9        0.000000        0.535425         1    ;  uncertainty k = 0.228601
        46        54        65        64     9      180.000000       14.852460         2    ;  uncertainty k = 0.233355
        46        54        65        64     9        0.000000        1.834745         3    ;  uncertainty k = 0.372009
        46        54        65        64     9      180.000000        0.903696         4    ;  uncertainty k = 0.190121
        46        54        65        68     9        0.000000        0.244167         1    ;  uncertainty k = 0.415485
        46        54        65        68     9      180.000000        8.963986         2    ;  uncertainty k = 0.380639
        46        54        65        68     9        0.000000        1.342841         3    ;  uncertainty k = 0.328557
        46        54        65        68     9      180.000000        0.832358         4    ;  uncertainty k = 0.219385
        50        49        55        56     9        0.000000        1.865633         1    ;  uncertainty k = 0.151738
        50        49        55        56     9      180.000000       -0.051734         2    ;  uncertainty k = 0.121264
        50        49        55        56     9        0.000000        0.308088         3    ;  uncertainty k = 0.074079
        50        49        55        56     9      180.000000        0.151763         4    ;  uncertainty k = 0.037921
        50        49        55        57     9        0.000000        1.865633         1    ;  uncertainty k = 0.151738
        50        49        55        57     9      180.000000       -0.051734         2    ;  uncertainty k = 0.121264
        50        49        55        57     9        0.000000        0.308088         3    ;  uncertainty k = 0.074079
        50        49        55        57     9      180.000000        0.151763         4    ;  uncertainty k = 0.037921
        51        49        55        56     9        0.000000        1.865633         1    ;  uncertainty k = 0.151738
        51        49        55        56     9      180.000000       -0.051734         2    ;  uncertainty k = 0.121264
        51        49        55        56     9        0.000000        0.308088         3    ;  uncertainty k = 0.074079
        51        49        55        56     9      180.000000        0.151763         4    ;  uncertainty k = 0.037921
        51        49        55        57     9        0.000000        1.865633         1    ;  uncertainty k = 0.151738
        51        49        55        57     9      180.000000       -0.051734         2    ;  uncertainty k = 0.121264
        51        49        55        57     9        0.000000        0.308088         3    ;  uncertainty k = 0.074079
        51        49        55        57     9      180.000000        0.151763         4    ;  uncertainty k = 0.037921
        52        46        54        60     9        0.000000       -0.102325         1    ;  uncertainty k = 0.624328
        52        46        54        60     9      180.000000        2.876245         2    ;  uncertainty k = 0.097073
        52        46        54        60     9        0.000000        0.496468         3    ;  uncertainty k = 0.186283
        52        46        54        60     9      180.000000       -0.017745         4    ;  uncertainty k = 0.055234
        52        46        54        65     9        0.000000        0.173281         1    ;  uncertainty k = 0.154169
        52        46        54        65     9      180.000000        3.232922         2    ;  uncertainty k = 0.205206
        52        46        54        65     9        0.000000        0.463774         3    ;  uncertainty k = 0.095342
        52        46        54        65     9      180.000000       -0.199208         4    ;  uncertainty k = 0.053456
        52        58        61        62     9        0.000000        0.047551         1    ;  uncertainty k = 0.070310
        52        58        61        62     9      180.000000        7.786927         2    ;  uncertainty k = 0.299090
        52        58        61        62     9        0.000000        1.371196         3    ;  uncertainty k = 0.225007
        52        58        61        62     9      180.000000        1.816940         4    ;  uncertainty k = 0.095716
        53        52        46        54     9        0.000000       -0.232495         1    ;  uncertainty k = 0.374291
        53        52        46        54     9      180.000000        7.019743         2    ;  uncertainty k = 0.465938
        53        52        46        54     9        0.000000        0.789374         3    ;  uncertainty k = 0.175594
        53        52        46        54     9      180.000000        1.196527         4    ;  uncertainty k = 0.213179
        53        52        58        59     9        0.000000       -0.045466         1    ;  uncertainty k = 0.251932
        53        52        58        59     9      180.000000        8.095434         2    ;  uncertainty k = 0.344005
        53        52        58        59     9        0.000000       -0.477506         3    ;  uncertainty k = 0.276732
        53        52        58        59     9      180.000000        0.137324         4    ;  uncertainty k = 0.145506
        53        52        58        61     9        0.000000        0.149300         1    ;  uncertainty k = 0.084385
        53        52        58        61     9      180.000000        7.821748         2    ;  uncertainty k = 0.223895
        53        52        58        61     9        0.000000        1.445366         3    ;  uncertainty k = 0.191943
        53        52        58        61     9      180.000000        1.829152         4    ;  uncertainty k = 0.205841
        54        46        52        58     9        0.000000       -0.019024         1    ;  uncertainty k = 0.286139
        54        46        52        58     9      180.000000        9.024901         2    ;  uncertainty k = 0.561895
        54        46        52        58     9        0.000000        1.124832         3    ;  uncertainty k = 0.280690
        54        46        52        58     9      180.000000        1.664819         4    ;  uncertainty k = 0.223253
        54        60        63        64     9        0.000000       -0.125734         1    ;  uncertainty k = 0.449199
        54        60        63        64     9      180.000000       13.773392         2    ;  uncertainty k = 0.716217
        54        60        63        64     9        0.000000       -8.481225         3    ;  uncertainty k = 0.947718
        54        60        63        64     9      180.000000        1.805670         4    ;  uncertainty k = 0.578390
        54        60        63        66     9        0.000000        0.606723         1    ;  uncertainty k = 1.552322
        54        60        63        66     9      180.000000        8.038490         2    ;  uncertainty k = 1.152240
        54        60        63        66     9        0.000000        0.487096         3    ;  uncertainty k = 0.871059
        54        60        63        66     9      180.000000        0.295264         4    ;  uncertainty k = 0.336474
        54        65        64        63     9        0.000000       -0.520275         1    ;  uncertainty k = 0.605252
        54        65        64        63     9      180.000000       12.707826         2    ;  uncertainty k = 1.029789
        54        65        64        63     9        0.000000       -4.751688         3    ;  uncertainty k = 0.680629
        54        65        64        63     9      180.000000        1.519376         4    ;  uncertainty k = 0.699472
        54        65        64        67     9        0.000000       -0.264062         1    ;  uncertainty k = 0.662143
        54        65        64        67     9      180.000000        7.125014         2    ;  uncertainty k = 0.211063
        54        65        64        67     9        0.000000        1.192111         3    ;  uncertainty k = 0.168087
        54        65        64        67     9      180.000000        0.541919         4    ;  uncertainty k = 0.177824
        55        27        33        61     9        0.000000       -0.462912         1    ;  uncertainty k = 0.449824
        55        27        33        61     9      180.000000        2.295121         2    ;  uncertainty k = 0.396404
        55        27        33        61     9        0.000000        0.432842         3    ;  uncertainty k = 0.148043
        55        27        33        61     9      180.000000        0.211688         4    ;  uncertainty k = 0.075597
        59        58        61        62     9        0.000000       -0.073448         1    ;  uncertainty k = 0.356975
        59        58        61        62     9      180.000000        8.082222         2    ;  uncertainty k = 0.316989
        59        58        61        62     9        0.000000       -0.438437         3    ;  uncertainty k = 0.303311
        59        58        61        62     9      180.000000        0.188421         4    ;  uncertainty k = 0.159529
        60        54        65        64     9        0.000000       -0.639924         1    ;  uncertainty k = 0.410289
        60        54        65        64     9      180.000000       18.798758         2    ;  uncertainty k = 0.450184
        60        54        65        64     9        0.000000       -3.431103         3    ;  uncertainty k = 0.707292
        60        54        65        64     9      180.000000        1.006707         4    ;  uncertainty k = 0.696701
        60        54        65        68     9        0.000000        0.288640         1    ;  uncertainty k = 0.446729
        60        54        65        68     9      180.000000       11.826501         2    ;  uncertainty k = 0.520387
        60        54        65        68     9        0.000000        1.940938         3    ;  uncertainty k = 0.343439
        60        54        65        68     9      180.000000        1.233546         4    ;  uncertainty k = 0.211134
        60        63        64        65     9        0.000000       -0.552569         1    ;  uncertainty k = 0.505876
        60        63        64        65     9      180.000000       19.235991         2    ;  uncertainty k = 0.527498
        60        63        64        65     9        0.000000       -4.025504         3    ;  uncertainty k = 0.478114
        60        63        64        65     9      180.000000        1.175991         4    ;  uncertainty k = 0.828799
        60        63        64        67     9        0.000000       -0.011454         1    ;  uncertainty k = 0.558358
        60        63        64        67     9      180.000000       13.501651         2    ;  uncertainty k = 0.445740
        60        63        64        67     9        0.000000        2.151223         3    ;  uncertainty k = 0.376425
        60        63        64        67     9      180.000000        1.153721         4    ;  uncertainty k = 0.357856
        63        60        54        65     9        0.000000       -0.092744         1    ;  uncertainty k = 0.716644
        63        60        54        65     9      180.000000       12.098155         2    ;  uncertainty k = 0.500010
        63        60        54        65     9        0.000000       -7.543134         3    ;  uncertainty k = 0.996129
        63        60        54        65     9      180.000000        1.792435         4    ;  uncertainty k = 0.544618
        63        64        65        68     9        0.000000       -0.234354         1    ;  uncertainty k = 0.349100
        63        64        65        68     9      180.000000        7.348911         2    ;  uncertainty k = 0.107089
        63        64        65        68     9        0.000000        0.933797         3    ;  uncertainty k = 0.286140
        63        64        65        68     9      180.000000        0.568330         4    ;  uncertainty k = 0.215338
        65        64        63        66     9        0.000000       -0.161203         1    ;  uncertainty k = 0.208533
        65        64        63        66     9      180.000000       14.439467         2    ;  uncertainty k = 0.085121
        65        64        63        66     9        0.000000        1.682191         3    ;  uncertainty k = 0.301453
        65        64        63        66     9      180.000000        0.958538         4    ;  uncertainty k = 0.135004
        66        63        64        67     9        0.000000       -0.279115         1    ;  uncertainty k = 0.312409
        66        63        64        67     9      180.000000        7.417785         2    ;  uncertainty k = 0.477910
        66        63        64        67     9        0.000000        1.047565         3    ;  uncertainty k = 0.402721
        66        63        64        67     9      180.000000        0.551458         4    ;  uncertainty k = 0.268642
        67        64        65        68     9        0.000000       -0.119772         1    ;  uncertainty k = 0.990363
        67        64        65        68     9      180.000000        5.531163         2    ;  uncertainty k = 0.572332
        67        64        65        68     9        0.000000        1.153903         3    ;  uncertainty k = 0.500892
        67        64        65        68     9      180.000000        0.146187         4    ;  uncertainty k = 0.134568

[ dihedrals ] ; impropers
;       ai        aj        ak        al funct           phase               k        pn
         5         1         6         7     4      180.000000       55.748670         2    ;  uncertainty k = 0.008050
         5         6         7         1     4      180.000000       55.748670         2    ;  uncertainty k = 0.008050
         5         7         1         6     4      180.000000       55.748670         2    ;  uncertainty k = 0.008050
        19        13        24        47     4      180.000000       15.203962         2    ;  uncertainty k = 0.057963
        19        24        47        13     4      180.000000       15.203962         2    ;  uncertainty k = 0.057963
        19        47        13        24     4      180.000000       15.203962         2    ;  uncertainty k = 0.057963
        24        19        25        28     4      180.000000        1.997748         2    ;  uncertainty k = 0.039295
        24        25        28        19     4      180.000000        1.997748         2    ;  uncertainty k = 0.039295
        24        28        19        25     4      180.000000        1.997748         2    ;  uncertainty k = 0.039295
        28        24        29        34     4      180.000000       18.344378         2    ;  uncertainty k = 0.038620
        28        29        34        24     4      180.000000       18.344378         2    ;  uncertainty k = 0.038620
        28        34        24        29     4      180.000000       18.344378         2    ;  uncertainty k = 0.038620
        33        27        37        61     4      180.000000       11.612762         2    ;  uncertainty k = 0.204959
        33        37        61        27     4      180.000000       11.612762         2    ;  uncertainty k = 0.204959
        33        61        27        37     4      180.000000       11.612762         2    ;  uncertainty k = 0.204959
        34        28        35        38     4      180.000000        1.035730         2    ;  uncertainty k = 0.329384
        34        35        38        28     4      180.000000        1.035730         2    ;  uncertainty k = 0.329384
        34        38        28        35     4      180.000000        1.035730         2    ;  uncertainty k = 0.329384
        37        33        42        46     4      180.000000        3.547263         2    ;  uncertainty k = 0.399684
        37        42        46        33     4      180.000000        3.547263         2    ;  uncertainty k = 0.399684
        37        46        33        42     4      180.000000        3.547263         2    ;  uncertainty k = 0.399684
        38        34        39        47     4      180.000000       18.344380         2    ;  uncertainty k = 0.038621
        38        39        47        34     4      180.000000       18.344380         2    ;  uncertainty k = 0.038621
        38        47        34        39     4      180.000000       18.344380         2    ;  uncertainty k = 0.038621
        46        37        52        54     4      180.000000       14.386241         2    ;  uncertainty k = 0.066416
        46        52        54        37     4      180.000000       14.386241         2    ;  uncertainty k = 0.066416
        46        54        37        52     4      180.000000       14.386241         2    ;  uncertainty k = 0.066416
        47        19        38        48     4      180.000000        1.997753         2    ;  uncertainty k = 0.039293
        47        38        48        19     4      180.000000        1.997753         2    ;  uncertainty k = 0.039293
        47        48        19        38     4      180.000000        1.997753         2    ;  uncertainty k = 0.039293
        52        46        53        58     4      180.000000        4.358779         2    ;  uncertainty k = 0.165127
        52        53        58        46     4      180.000000        4.358779         2    ;  uncertainty k = 0.165127
        52        58        46        53     4      180.000000        4.358779         2    ;  uncertainty k = 0.165127
        54        46        60        65     4      180.000000        4.388373         2    ;  uncertainty k = 0.349267
        54        60        65        46     4      180.000000        4.388373         2    ;  uncertainty k = 0.349267
        54        65        46        60     4      180.000000        4.388373         2    ;  uncertainty k = 0.349267
        58        52        59        61     4      180.000000        3.805615         2    ;  uncertainty k = 0.095472
        58        59        61        52     4      180.000000        3.805615         2    ;  uncertainty k = 0.095472
        58        61        52        59     4      180.000000        3.805615         2    ;  uncertainty k = 0.095472
        61        33        58        62     4      180.000000        2.968893         2    ;  uncertainty k = 0.427948
        61        58        62        33     4      180.000000        2.968893         2    ;  uncertainty k = 0.427948
        61        62        33        58     4      180.000000        2.968893         2    ;  uncertainty k = 0.427948
        64        63        65        67     4      180.000000        1.024573         2    ;  uncertainty k = 0.304302
        64        65        67        63     4      180.000000        1.024573         2    ;  uncertainty k = 0.304302
        64        67        63        65     4      180.000000        1.024573         2    ;  uncertainty k = 0.304302
        65        54        64        68     4      180.000000        1.032794         2    ;  uncertainty k = 0.373036
        65        64        68        54     4      180.000000        1.032794         2    ;  uncertainty k = 0.373036
        65        68        54        64     4      180.000000        1.032794         2    ;  uncertainty k = 0.373036

[ pairs ]
;       ai        aj funct
         1         8     1
         1         9     1
         2         6     1
         2         7     1
         3         6     1
         3         7     1
         4         6     1
         4         7     1
         5        10     1
         5        11     1
         5        13     1
         6         8     1
         6         9     1
         7        12     1
         7        14     1
         7        15     1
         7        16     1
         7        19     1
         7        20     1
         8        10     1
         8        11     1
         8        13     1
         9        17     1
         9        18     1
         9        21     1
         9        22     1
         9        24     1
         9        47     1
        10        12     1
        10        14     1
        10        15     1
        10        16     1
        10        19     1
        10        20     1
        11        14     1
        11        15     1
        11        19     1
        11        23     1
        11        26     1
        11        27     1
        12        13     1
        12        17     1
        12        18     1
        12        21     1
        12        22     1
        13        16     1
        13        20     1
        13        25     1
        13        28     1
        13        38     1
        13        48     1
        14        24     1
        14        47     1
        15        24     1
        15        47     1
        16        21     1
        16        30     1
        16        33     1
        16        55     1
        17        20     1
        17        23     1
        17        26     1
        17        27     1
        18        20     1
        18        23     1
        18        26     1
        18        27     1
        19        29     1
        19        34     1
        19        39     1
        20        22     1
        22        31     1
        22        32     1
        22        36     1
        22        37     1
        22        49     1
        22        56     1
        22        57     1
        22        61     1
        23        30     1
        23        33     1
        23        55     1
        24        35     1
        24        38     1
        24        48     1
        25        29     1
        25        34     1
        25        47     1
        26        30     1
        26        33     1
        26        55     1
        27        40     1
        27        41     1
        27        42     1
        27        43     1
        27        46     1
        27        50     1
        27        51     1
        27        58     1
        27        62     1
        28        39     1
        28        47     1
        29        35     1
        29        38     1
        30        37     1
        30        44     1
        30        45     1
        30        49     1
        30        56     1
        30        57     1
        30        61     1
        31        33     1
        31        40     1
        31        41     1
        31        43     1
        31        55     1
        32        33     1
        32        40     1
        32        41     1
        32        43     1
        32        55     1
        33        36     1
        33        49     1
        33        52     1
        33        54     1
        33        56     1
        33        57     1
        33        59     1
        34        48     1
        35        39     1
        35        47     1
        36        50     1
        36        51     1
        36        55     1
        37        53     1
        37        55     1
        37        58     1
        37        60     1
        37        62     1
        37        65     1
        39        48     1
        40        44     1
        40        45     1
        40        49     1
        41        44     1
        41        45     1
        41        49     1
        42        52     1
        42        54     1
        42        61     1
        43        56     1
        43        57     1
        44        50     1
        44        51     1
        44        55     1
        45        50     1
        45        51     1
        45        55     1
        46        59     1
        46        61     1
        46        63     1
        46        64     1
        46        68     1
        50        56     1
        50        57     1
        51        56     1
        51        57     1
        52        60     1
        52        62     1
        52        65     1
        53        54     1
        53        59     1
        53        61     1
        54        58     1
        54        66     1
        54        67     1
        55        61     1
        59        62     1
        60        67     1
        60        68     1
        63        68     1
        65        66     1
        66        67     1
        67        68     1
