clashed crystal waters from merck/cmet
6
  101SOL     OW  301   2.041   3.269   5.297
  101SOL    HW1  302   2.030   3.341   5.228
  101SOL    HW2  303   2.110   3.203   5.266
  103SOL     OW  307   1.648   3.126   5.290
  103SOL    HW1  308   1.715   3.152   5.360
  103SOL    HW2  309   1.595   3.047   5.321
    9.0862    9.0862    9.0862
