Generated by PDBParser
396
    1SOL     OW    1   1.563   0.176   6.263
    1SOL    HW1    2   1.656   0.200   6.291
    1SOL    HW2    3   1.526   0.107   6.325
    2SOL     OW    4   1.358   0.586   5.865
    2SOL    HW1    5   1.332   0.528   5.942
    2SOL    HW2    6   1.452   0.617   5.877
    3SOL     OW    7   1.432   1.835   6.161
    3SOL    HW1    8   1.527   1.809   6.143
    3SOL    HW2    9   1.423   1.935   6.154
    4SOL     OW   10   1.202   1.000   6.009
    4SOL    HW1   11   1.198   0.921   5.948
    4SOL    HW2   12   1.200   1.084   5.954
    5SOL     OW   13   1.235   1.448   6.700
    5SOL    HW1   14   1.189   1.420   6.784
    5SOL    HW2   15   1.311   1.509   6.723
    6SOL     OW   16   3.055   2.826   6.697
    6SOL    HW1   17   3.020   2.796   6.608
    6SOL    HW2   18   2.980   2.823   6.764
    7SOL     OW   19   1.670   1.904   5.466
    7SOL    HW1   20   1.587   1.936   5.423
    7SOL    HW2   21   1.694   1.814   5.429
    8SOL     OW   22   1.536  -0.100   5.372
    8SOL    HW1   23   1.597  -0.040   5.426
    8SOL    HW2   24   1.441  -0.085   5.401
    9SOL     OW   25   1.395   2.545   6.300
    9SOL    HW1   26   1.374   2.617   6.234
    9SOL    HW2   27   1.382   2.456   6.257
   10SOL     OW   28   2.185   1.777   7.122
   10SOL    HW1   29   2.183   1.868   7.165
   10SOL    HW2   30   2.166   1.707   7.190
   11SOL     OW   31   1.537   1.663   6.859
   11SOL    HW1   32   1.628   1.698   6.840
   11SOL    HW2   33   1.493   1.636   6.774
   12SOL     OW   34   0.972   1.085   6.125
   12SOL    HW1   35   1.017   1.098   6.213
   12SOL    HW2   36   0.927   1.170   6.098
   13SOL     OW   37   0.924   0.137   6.502
   13SOL    HW1   38   0.864   0.163   6.426
   13SOL    HW2   39   0.914   0.039   6.520
   14SOL     OW   40   1.674   1.754   6.536
   14SOL    HW1   41   1.641   1.672   6.487
   14SOL    HW2   42   1.706   1.727   6.627
   15SOL     OW   43   1.810   0.039   6.548
   15SOL    HW1   44   1.826   0.112   6.481
   15SOL    HW2   45   1.883  -0.029   6.541
   16SOL     OW   46   2.545   1.263   7.207
   16SOL    HW1   47   2.489   1.202   7.263
   16SOL    HW2   48   2.516   1.358   7.221
   17SOL     OW   49   3.153   3.227   5.381
   17SOL    HW1   50   3.221   3.298   5.400
   17SOL    HW2   51   3.102   3.207   5.465
   18SOL     OW   52  -0.003   0.838   6.138
   18SOL    HW1   53   0.011   0.928   6.098
   18SOL    HW2   54  -0.054   0.847   6.224
   19SOL     OW   55   3.310   0.249   6.166
   19SOL    HW1   56   3.298   0.346   6.144
   19SOL    HW2   57   3.220   0.207   6.182
   20SOL     OW   58   3.031   3.024   6.241
   20SOL    HW1   59   3.072   3.114   6.224
   20SOL    HW2   60   2.990   2.990   6.156
   21SOL     OW   61   3.549   0.400   6.625
   21SOL    HW1   62   3.554   0.496   6.652
   21SOL    HW2   63   3.499   0.348   6.694
   22SOL     OW   64   2.809   1.270   7.243
   22SOL    HW1   65   2.842   1.361   7.266
   22SOL    HW2   66   2.736   1.244   7.307
   23SOL     OW   67   1.370   1.765   5.201
   23SOL    HW1   68   1.455   1.716   5.180
   23SOL    HW2   69   1.292   1.712   5.169
   24SOL     OW   70   1.889   1.273   7.533
   24SOL    HW1   71   1.978   1.240   7.565
   24SOL    HW2   72   1.817   1.213   7.568
   25SOL     OW   73   1.619   1.621   5.138
   25SOL    HW1   74   1.598   1.532   5.098
   25SOL    HW2   75   1.659   1.608   5.229
   26SOL     OW   76   3.428   0.889   4.701
   26SOL    HW1   77   3.527   0.901   4.696
   26SOL    HW2   78   3.398   0.827   4.629
   27SOL     OW   79   0.852   1.686   5.731
   27SOL    HW1   80   0.850   1.785   5.742
   27SOL    HW2   81   0.779   1.657   5.670
   28SOL     OW   82   2.848   3.198   6.920
   28SOL    HW1   83   2.909   3.126   6.952
   28SOL    HW2   84   2.760   3.191   6.968
   29SOL     OW   85   1.342   1.755   6.404
   29SOL    HW1   86   1.349   1.835   6.463
   29SOL    HW2   87   1.375   1.779   6.312
   30SOL     OW   88   1.285   0.525   5.140
   30SOL    HW1   89   1.328   0.548   5.052
   30SOL    HW2   90   1.265   0.609   5.190
   31SOL     OW   91   2.231   0.719   4.659
   31SOL    HW1   92   2.152   0.746   4.605
   31SOL    HW2   93   2.257   0.795   4.719
   32SOL     OW   94   4.077   0.987   5.452
   32SOL    HW1   95   4.032   0.945   5.531
   32SOL    HW2   96   4.086   1.085   5.468
   33SOL     OW   97   1.937  -0.358   7.068
   33SOL    HW1   98   1.863  -0.325   7.127
   33SOL    HW2   99   2.024  -0.348   7.116
   34SOL     OW  100   2.029   2.320   4.414
   34SOL    HW1  101   2.096   2.300   4.485
   34SOL    HW2  102   2.041   2.257   4.338
   35SOL     OW  103   1.547   2.822   7.672
   35SOL    HW1  104   1.597   2.859   7.594
   35SOL    HW2  105   1.612   2.797   7.744
   36SOL     OW  106   3.449   1.105   6.880
   36SOL    HW1  107   3.363   1.056   6.872
   36SOL    HW2  108   3.494   1.109   6.791
   37SOL     OW  109   1.960   1.524   7.533
   37SOL    HW1  110   1.941   1.590   7.606
   37SOL    HW2  111   2.001   1.442   7.572
   38SOL     OW  112   1.139  -0.084   5.600
   38SOL    HW1  113   1.225  -0.088   5.550
   38SOL    HW2  114   1.063  -0.082   5.535
   39SOL     OW  115   2.707   0.565   7.165
   39SOL    HW1  116   2.704   0.527   7.258
   39SOL    HW2  117   2.768   0.510   7.108
   40SOL     OW  118   2.396   1.103   7.355
   40SOL    HW1  119   2.446   1.052   7.425
   40SOL    HW2  120   2.337   1.171   7.398
   41SOL     OW  121   1.164   0.706   5.110
   41SOL    HW1  122   1.069   0.680   5.090
   41SOL    HW2  123   1.201   0.759   5.034
   42SOL     OW  124   3.191   2.856   6.350
   42SOL    HW1  125   3.129   2.922   6.308
   42SOL    HW2  126   3.138   2.787   6.399
   43SOL     OW  127   1.383   1.156   7.322
   43SOL    HW1  128   1.363   1.097   7.244
   43SOL    HW2  129   1.400   1.100   7.403
   44SOL     OW  130   3.345   1.788   6.837
   44SOL    HW1  131   3.408   1.721   6.798
   44SOL    HW2  132   3.264   1.796   6.779
   45SOL     OW  133   3.424   2.916   7.362
   45SOL    HW1  134   3.487   2.856   7.412
   45SOL    HW2  135   3.331   2.898   7.393
   46SOL     OW  136   3.345   1.859   7.086
   46SOL    HW1  137   3.345   1.832   6.990
   46SOL    HW2  138   3.260   1.829   7.129
   47SOL     OW  139   3.521   1.598   6.727
   47SOL    HW1  140   3.496   1.561   6.637
   47SOL    HW2  141   3.618   1.620   6.728
   48SOL     OW  142   3.913   1.210   5.919
   48SOL    HW1  143   3.863   1.124   5.911
   48SOL    HW2  144   4.011   1.192   5.922
   49SOL     OW  145   2.150  -0.234   6.285
   49SOL    HW1  146   2.188  -0.146   6.258
   49SOL    HW2  147   2.125  -0.286   6.203
   50SOL     OW  148   3.511   4.631   5.728
   50SOL    HW1  149   3.584   4.660   5.789
   50SOL    HW2  150   3.438   4.699   5.729
   51SOL     OW  151   3.621   0.540   4.696
   51SOL    HW1  152   3.662   0.505   4.612
   51SOL    HW2  153   3.542   0.597   4.673
   52SOL     OW  154   3.542   0.186   4.932
   52SOL    HW1  155   3.609   0.238   4.983
   52SOL    HW2  156   3.583   0.102   4.897
   53SOL     OW  157   3.790   1.081   6.476
   53SOL    HW1  158   3.729   1.075   6.397
   53SOL    HW2  159   3.847   1.163   6.469
   54SOL     OW  160   2.531   0.963   7.547
   54SOL    HW1  161   2.504   0.996   7.638
   54SOL    HW2  162   2.629   0.975   7.535
   55SOL     OW  163   1.898   1.035   4.485
   55SOL    HW1  164   1.942   1.107   4.540
   55SOL    HW2  165   1.802   1.026   4.513
   56SOL     OW  166   3.114   3.676   5.804
   56SOL    HW1  167   3.132   3.669   5.902
   56SOL    HW2  168   3.099   3.772   5.780
   57SOL     OW  169   3.337   1.690   5.301
   57SOL    HW1  170   3.267   1.628   5.266
   57SOL    HW2  171   3.426   1.646   5.295
   58SOL     OW  172   1.704   2.641   6.855
   58SOL    HW1  173   1.682   2.591   6.771
   58SOL    HW2  174   1.641   2.718   6.866
   59SOL     OW  175   0.886   1.404   5.159
   59SOL    HW1  176   0.929   1.325   5.203
   59SOL    HW2  177   0.933   1.488   5.186
   60SOL     OW  178   3.452   2.904   4.788
   60SOL    HW1  179   3.478   2.878   4.881
   60SOL    HW2  180   3.510   2.856   4.722
   61SOL     OW  181   1.430   1.997   5.342
   61SOL    HW1  182   1.409   1.913   5.291
   61SOL    HW2  183   1.440   2.073   5.278
   62SOL     OW  184   3.222   3.724   6.809
   62SOL    HW1  185   3.129   3.687   6.797
   62SOL    HW2  186   3.237   3.796   6.742
   63SOL     OW  187   1.269   0.638   7.334
   63SOL    HW1  188   1.201   0.591   7.279
   63SOL    HW2  189   1.261   0.737   7.319
   64SOL     OW  190   3.087   0.142   6.207
   64SOL    HW1  191   3.075   0.064   6.146
   64SOL    HW2  192   3.014   0.208   6.191
   65SOL     OW  193   1.253   1.069   4.769
   65SOL    HW1  194   1.243   1.115   4.857
   65SOL    HW2  195   1.254   1.136   4.696
   66SOL     OW  196   1.668   2.446   7.018
   66SOL    HW1  197   1.713   2.361   7.046
   66SOL    HW2  198   1.722   2.491   6.948
   67SOL     OW  199   2.323  -0.046   4.823
   67SOL    HW1  200   2.289   0.017   4.753
   67SOL    HW2  201   2.284  -0.021   4.912
   68SOL     OW  202   3.229   0.912   4.459
   68SOL    HW1  203   3.199   0.821   4.432
   68SOL    HW2  204   3.275   0.956   4.382
   69SOL     OW  205   1.430   2.531   5.801
   69SOL    HW1  206   1.525   2.506   5.824
   69SOL    HW2  207   1.367   2.470   5.849
   70SOL     OW  208   2.258  -0.360   5.327
   70SOL    HW1  209   2.228  -0.274   5.285
   70SOL    HW2  210   2.216  -0.370   5.417
   71SOL     OW  211   1.149   1.312   7.360
   71SOL    HW1  212   1.111   1.379   7.298
   71SOL    HW2  213   1.232   1.273   7.320
   72SOL     OW  214   2.896   1.509   7.304
   72SOL    HW1  215   2.896   1.594   7.251
   72SOL    HW2  216   2.986   1.493   7.342
   73SOL     OW  217   3.460   3.921   5.570
   73SOL    HW1  218   3.555   3.952   5.571
   73SOL    HW2  219   3.458   3.821   5.581
   74SOL     OW  220   2.568   2.564   4.502
   74SOL    HW1  221   2.562   2.523   4.410
   74SOL    HW2  222   2.505   2.642   4.507
   75SOL     OW  223   1.909   0.550   4.575
   75SOL    HW1  224   1.875   0.504   4.493
   75SOL    HW2  225   1.943   0.641   4.551
   76SOL     OW  226   1.438   1.599   6.633
   76SOL    HW1  227   1.405   1.652   6.555
   76SOL    HW2  228   1.496   1.525   6.600
   77SOL     OW  229   3.669   1.953   6.482
   77SOL    HW1  230   3.733   1.885   6.448
   77SOL    HW2  231   3.696   2.044   6.451
   78SOL     OW  232   1.540   1.810   7.603
   78SOL    HW1  233   1.479   1.771   7.534
   78SOL    HW2  234   1.511   1.782   7.694
   79SOL     OW  235   2.477  -0.460   5.675
   79SOL    HW1  236   2.534  -0.426   5.750
   79SOL    HW2  237   2.524  -0.444   5.588
   80SOL     OW  238   1.079   0.320   5.368
   80SOL    HW1  239   1.145   0.292   5.439
   80SOL    HW2  240   1.090   0.261   5.288
   81SOL     OW  241   2.932   0.289   4.726
   81SOL    HW1  242   2.976   0.233   4.796
   81SOL    HW2  243   2.867   0.352   4.769
   82SOL     OW  244   1.464   2.226   5.198
   82SOL    HW1  245   1.380   2.271   5.171
   82SOL    HW2  246   1.542   2.271   5.156
   83SOL     OW  247   2.377   2.601   4.900
   83SOL    HW1  248   2.355   2.535   4.972
   83SOL    HW2  249   2.465   2.644   4.920
   84SOL     OW  250   1.638   2.492   6.603
   84SOL    HW1  251   1.682   2.488   6.513
   84SOL    HW2  252   1.678   2.422   6.662
   85SOL     OW  253   2.575   1.210   4.201
   85SOL    HW1  254   2.520   1.176   4.124
   85SOL    HW2  255   2.538   1.174   4.287
   86SOL     OW  256   2.624   1.944   4.416
   86SOL    HW1  257   2.585   2.008   4.481
   86SOL    HW2  258   2.587   1.962   4.325
   87SOL     OW  259   3.322   2.128   7.575
   87SOL    HW1  260   3.336   2.227   7.564
   87SOL    HW2  261   3.266   2.094   7.499
   88SOL     OW  262   0.922   1.191   7.475
   88SOL    HW1  263   1.002   1.234   7.434
   88SOL    HW2  264   0.840   1.223   7.427
   89SOL     OW  265   2.207   2.391   7.749
   89SOL    HW1  266   2.186   2.298   7.720
   89SOL    HW2  267   2.248   2.389   7.840
   90SOL     OW  268   2.232   5.071   5.593
   90SOL    HW1  269   2.218   4.978   5.558
   90SOL    HW2  270   2.276   5.127   5.523
   91SOL     OW  271   0.749   4.066   6.597
   91SOL    HW1  272   0.729   4.015   6.514
   91SOL    HW2  273   0.717   4.014   6.676
   92SOL     OW  274   0.101   1.607   7.249
   92SOL    HW1  275   0.042   1.645   7.319
   92SOL    HW2  276   0.184   1.570   7.292
   93SOL     OW  277   1.789   2.300   4.489
   93SOL    HW1  278   1.884   2.308   4.459
   93SOL    HW2  279   1.780   2.339   4.580
   94SOL     OW  280   1.523   3.116   6.986
   94SOL    HW1  281   1.509   3.196   7.044
   94SOL    HW2  282   1.599   3.135   6.923
   95SOL     OW  283   2.448   0.226   6.893
   95SOL    HW1  284   2.412   0.319   6.898
   95SOL    HW2  285   2.429   0.177   6.978
   96SOL     OW  286   1.983   1.318   4.328
   96SOL    HW1  287   1.993   1.290   4.424
   96SOL    HW2  288   2.073   1.337   4.290
   97SOL     OW  289   1.424   1.569   4.420
   97SOL    HW1  290   1.361   1.528   4.485
   97SOL    HW2  291   1.481   1.497   4.379
   98SOL     OW  292   3.315   1.393   4.141
   98SOL    HW1  293   3.255   1.460   4.184
   98SOL    HW2  294   3.317   1.409   4.042
   99SOL     OW  295   0.984   3.808   7.080
   99SOL    HW1  296   0.886   3.828   7.075
   99SOL    HW2  297   1.001   3.714   7.051
  100SOL     OW  298   1.690   2.327   5.099
  100SOL    HW1  299   1.748   2.359   5.174
  100SOL    HW2  300   1.668   2.404   5.038
  101SOL     OW  301   2.041   3.269   5.297
  101SOL    HW1  302   2.030   3.341   5.228
  101SOL    HW2  303   2.110   3.203   5.266
  102SOL     OW  304   1.565   3.354   6.364
  102SOL    HW1  305   1.517   3.267   6.378
  102SOL    HW2  306   1.639   3.362   6.431
  103SOL     OW  307   1.648   3.126   5.290
  103SOL    HW1  308   1.715   3.152   5.360
  103SOL    HW2  309   1.595   3.047   5.321
  104SOL     OW  310   2.848   1.721   7.889
  104SOL    HW1  311   2.847   1.804   7.833
  104SOL    HW2  312   2.903   1.651   7.844
  105SOL     OW  313   1.413   2.453   6.579
  105SOL    HW1  314   1.395   2.356   6.594
  105SOL    HW2  315   1.385   2.479   6.487
  106SOL     OW  316   3.207   2.085   7.788
  106SOL    HW1  317   3.254   2.103   7.702
  106SOL    HW2  318   3.113   2.056   7.770
  107SOL     OW  319   0.020   0.845   5.340
  107SOL    HW1  320  -0.046   0.864   5.412
  107SOL    HW2  321   0.072   0.762   5.364
  108SOL     OW  322   3.058   2.267   3.951
  108SOL    HW1  323   2.998   2.205   3.901
  108SOL    HW2  324   3.140   2.284   3.896
  109SOL     OW  325   0.437   1.506   5.361
  109SOL    HW1  326   0.404   1.544   5.275
  109SOL    HW2  327   0.472   1.580   5.419
  110SOL     OW  328   1.882   1.785   3.975
  110SOL    HW1  329   1.941   1.775   3.895
  110SOL    HW2  330   1.932   1.832   4.048
  111SOL     OW  331   1.073   3.696   5.533
  111SOL    HW1  332   1.068   3.609   5.582
  111SOL    HW2  333   1.064   3.771   5.597
  112SOL     OW  334   0.412   1.915   5.500
  112SOL    HW1  335   0.486   1.967   5.456
  112SOL    HW2  336   0.347   1.884   5.430
  113SOL     OW  337   2.052   2.104   3.980
  113SOL    HW1  338   2.050   2.152   3.892
  113SOL    HW2  339   2.020   2.166   4.052
  114SOL     OW  340   2.660  -0.023   4.840
  114SOL    HW1  341   2.560  -0.030   4.835
  114SOL    HW2  342   2.689  -0.032   4.935
  115SOL     OW  343   2.890   0.091   6.127
  115SOL    HW1  344   2.839   0.124   6.047
  115SOL    HW2  345   2.838   0.110   6.210
  116SOL     OW  346   1.570   0.805   4.608
  116SOL    HW1  347   1.654   0.855   4.586
  116SOL    HW2  348   1.502   0.869   4.643
  117SOL     OW  349   3.050   0.140   4.914
  117SOL    HW1  350   3.142   0.124   4.950
  117SOL    HW2  351   3.012   0.054   4.879
  118SOL     OW  352   3.321   0.094   5.019
  118SOL    HW1  353   3.327   0.126   5.113
  118SOL    HW2  354   3.387   0.144   4.963
  119SOL     OW  355   3.263   1.143   4.161
  119SOL    HW1  356   3.284   1.241   4.153
  119SOL    HW2  357   3.334   1.091   4.113
  120SOL     OW  358   3.708   0.992   4.298
  120SOL    HW1  359   3.716   0.975   4.397
  120SOL    HW2  360   3.626   0.946   4.264
  121SOL     OW  361   2.016   0.792   4.513
  121SOL    HW1  362   1.972   0.882   4.503
  121SOL    HW2  363   2.046   0.759   4.424
  122SOL     OW  364   1.621   0.627   4.789
  122SOL    HW1  365   1.601   0.696   4.719
  122SOL    HW2  366   1.704   0.577   4.764
  123SOL     OW  367   3.194   1.850   4.708
  123SOL    HW1  368   3.248   1.765   4.705
  123SOL    HW2  369   3.174   1.880   4.615
  124SOL     OW  370   3.574   1.616   5.676
  124SOL    HW1  371   3.474   1.607   5.672
  124SOL    HW2  372   3.598   1.686   5.743
  125SOL     OW  373   3.188   1.489   7.409
  125SOL    HW1  374   3.239   1.571   7.382
  125SOL    HW2  375   3.232   1.408   7.371
  126SOL     OW  376   1.575   3.925   7.635
  126SOL    HW1  377   1.638   3.891   7.705
  126SOL    HW2  378   1.494   3.964   7.679
  127SOL     OW  379   2.300   1.671   7.548
  127SOL    HW1  380   2.393   1.707   7.543
  127SOL    HW2  381   2.291   1.612   7.628
  128SOL     OW  382   1.723  -0.262   7.239
  128SOL    HW1  383   1.684  -0.352   7.219
  128SOL    HW2  384   1.668  -0.216   7.308
  129SOL     OW  385   2.720   2.222   8.026
  129SOL    HW1  386   2.649   2.260   8.086
  129SOL    HW2  387   2.686   2.219   7.932
  130SOL     OW  388   1.291   2.997   6.987
  130SOL    HW1  389   1.253   2.988   7.079
  130SOL    HW2  390   1.379   3.043   6.992
  131SOL     OW  391   3.848   1.765   6.388
  131SOL    HW1  392   3.919   1.807   6.331
  131SOL    HW2  393   3.890   1.713   6.461
  132SOL     OW  394   1.825   3.193   5.477
  132SOL    HW1  395   1.899   3.219   5.415
  132SOL    HW2  396   1.850   3.217   5.571
    9.0862    9.0862    9.0862
