; ITP file created by ByteFF-joint-25, 2026-02-17 09:48:03.339047

[ atomtypes ]
;name           bonded.type        at.num        mass        charge   ptype           sigma         epsilon
 c0bf                                   6      0.0000       0.00000       A     3.31499e-01     4.12911e-01    ;  uncertainty sigma = 0.000016, epsilon = 0.001049
 c1bf                                   6      0.0000       0.00000       A     3.31512e-01     4.13389e-01    ;  uncertainty sigma = 0.000003, epsilon = 0.000801
 c2bf                                   6      0.0000       0.00000       A     3.31512e-01     4.13389e-01    ;  uncertainty sigma = 0.000003, epsilon = 0.000801
 c3bf                                   6      0.0000       0.00000       A     3.31516e-01     4.13389e-01    ;  uncertainty sigma = 0.000002, epsilon = 0.000631
 c4bf                                   6      0.0000       0.00000       A     3.31516e-01     4.13389e-01    ;  uncertainty sigma = 0.000002, epsilon = 0.000631
 n5bf                                   7      0.0000       0.00000       A     3.38420e-01     3.93559e-01    ;  uncertainty sigma = 0.000016, epsilon = 0.001456
 c6bf                                   6      0.0000       0.00000       A     3.31518e-01     4.13340e-01    ;  uncertainty sigma = 0.000003, epsilon = 0.000580
 c7bf                                   6      0.0000       0.00000       A     3.31529e-01     4.12953e-01    ;  uncertainty sigma = 0.000007, epsilon = 0.000869
 c8bf                                   6      0.0000       0.00000       A     3.31545e-01     4.13863e-01    ;  uncertainty sigma = 0.000011, epsilon = 0.001192
 c9bf                                   6      0.0000       0.00000       A     3.31520e-01     4.13328e-01    ;  uncertainty sigma = 0.000005, epsilon = 0.000523
 c10bf                                  6      0.0000       0.00000       A     3.31523e-01     4.13366e-01    ;  uncertainty sigma = 0.000003, epsilon = 0.000663
 c11bf                                  6      0.0000       0.00000       A     3.31507e-01     4.13124e-01    ;  uncertainty sigma = 0.000006, epsilon = 0.000619
 c12bf                                  6      0.0000       0.00000       A     3.31504e-01     4.13351e-01    ;  uncertainty sigma = 0.000006, epsilon = 0.000577
 c13bf                                  6      0.0000       0.00000       A     3.31535e-01     4.13454e-01    ;  uncertainty sigma = 0.000010, epsilon = 0.001039
 n14bf                                  7      0.0000       0.00000       A     3.26867e-01     4.92512e-01    ;  uncertainty sigma = 0.000088, epsilon = 0.003430
 c15bf                                  6      0.0000       0.00000       A     3.31512e-01     4.12851e-01    ;  uncertainty sigma = 0.000012, epsilon = 0.001342
 o16bf                                  8      0.0000       0.00000       A     3.04814e-01     6.11899e-01    ;  uncertainty sigma = 0.000014, epsilon = 0.001624
 h17bf                                  1      0.0000       0.00000       A     2.62563e-01     6.70454e-02    ;  uncertainty sigma = 0.000011, epsilon = 0.000576
 h18bf                                  1      0.0000       0.00000       A     2.62563e-01     6.70454e-02    ;  uncertainty sigma = 0.000011, epsilon = 0.000576
 h19bf                                  1      0.0000       0.00000       A     2.62559e-01     6.70249e-02    ;  uncertainty sigma = 0.000010, epsilon = 0.000440
 h20bf                                  1      0.0000       0.00000       A     2.62559e-01     6.70249e-02    ;  uncertainty sigma = 0.000010, epsilon = 0.000440
 h21bf                                  1      0.0000       0.00000       A     2.62572e-01     6.69736e-02    ;  uncertainty sigma = 0.000010, epsilon = 0.000548
 h22bf                                  1      0.0000       0.00000       A     2.62560e-01     6.69779e-02    ;  uncertainty sigma = 0.000012, epsilon = 0.000618
 h23bf                                  1      0.0000       0.00000       A     1.10651e-01     4.13760e-02    ;  uncertainty sigma = 0.000058, epsilon = 0.001253
 h24bf                                  1      0.0000       0.00000       A     2.62558e-01     6.70235e-02    ;  uncertainty sigma = 0.000015, epsilon = 0.000547
 h25bf                                  1      0.0000       0.00000       A     2.62567e-01     6.69735e-02    ;  uncertainty sigma = 0.000010, epsilon = 0.000525
 h26bf                                  1      0.0000       0.00000       A     2.62552e-01     6.70646e-02    ;  uncertainty sigma = 0.000011, epsilon = 0.000453

[ moleculetype ]
;name             nrexcl
 MOL                   3

[ atoms ]
;       nr            type      resi   res      atom      cgnr      charge          mass ; qtot
         1            c0bf         1   UNL        c0         1    -0.15565       12.0110 ; qtot   -0.156
         2            c1bf         1   UNL        c1         2    -0.09229       12.0110 ; qtot   -0.248
         3            c2bf         1   UNL        c2         3    -0.09229       12.0110 ; qtot   -0.340
         4            c3bf         1   UNL        c3         4    -0.13317       12.0110 ; qtot   -0.473
         5            c4bf         1   UNL        c4         5    -0.13317       12.0110 ; qtot   -0.607
         6            n5bf         1   UNL        n5         6    -0.62458       14.0070 ; qtot   -1.231
         7            c6bf         1   UNL        c6         7    -0.10807       12.0110 ; qtot   -1.339
         8            c7bf         1   UNL        c7         8     0.18952       12.0110 ; qtot   -1.150
         9            c8bf         1   UNL        c8         9    -0.20664       12.0110 ; qtot   -1.356
        10            c9bf         1   UNL        c9        10    -0.15127       12.0110 ; qtot   -1.508
        11           c10bf         1   UNL       c10        11    -0.09043       12.0110 ; qtot   -1.598
        12           c11bf         1   UNL       c11        12    -0.05918       12.0110 ; qtot   -1.657
        13           c12bf         1   UNL       c12        13    -0.12726       12.0110 ; qtot   -1.784
        14           c13bf         1   UNL       c13        14     0.71813       12.0110 ; qtot   -1.066
        15           n14bf         1   UNL       n14        15    -0.50736       14.0070 ; qtot   -1.574
        16           c15bf         1   UNL       c15        16     0.56495       12.0110 ; qtot   -1.009
        17           o16bf         1   UNL       o16        17    -0.60824       15.9990 ; qtot   -1.617
        18           h17bf         1   UNL       h17        18     0.14500        1.0080 ; qtot   -1.472
        19           h18bf         1   UNL       h18        19     0.14500        1.0080 ; qtot   -1.327
        20           h19bf         1   UNL       h19        20     0.13544        1.0080 ; qtot   -1.192
        21           h20bf         1   UNL       h20        21     0.13544        1.0080 ; qtot   -1.056
        22           h21bf         1   UNL       h21        22     0.13619        1.0080 ; qtot   -0.920
        23           h22bf         1   UNL       h22        23     0.15632        1.0080 ; qtot   -0.764
        24           h23bf         1   UNL       h23        24     0.33625        1.0080 ; qtot   -0.427
        25           h24bf         1   UNL       h24        25     0.15324        1.0080 ; qtot   -0.274
        26           h25bf         1   UNL       h25        26     0.14034        1.0080 ; qtot   -0.134
        27           h26bf         1   UNL       h26        27     0.13378        1.0080 ; qtot    0.000

[ bonds ]
;       ai        aj funct               r               k
         1         2     1        0.140140   348014.465918    ;  uncertainty r = 0.000042, k = 4.474855
         1         3     1        0.140140   348014.465918    ;  uncertainty r = 0.000042, k = 4.474855
         1        16     1        0.147440   266391.556689    ;  uncertainty r = 0.000117, k = 11.847175
         2         4     1        0.139332   363833.811377    ;  uncertainty r = 0.000046, k = 2.194757
         2        18     1        0.108756   334106.445410    ;  uncertainty r = 0.000043, k = 0.758473
         3         5     1        0.139332   363833.811377    ;  uncertainty r = 0.000046, k = 2.194757
         3        19     1        0.108756   334106.445410    ;  uncertainty r = 0.000043, k = 0.758473
         4         7     1        0.139647   371687.596143    ;  uncertainty r = 0.000022, k = 1.357942
         4        20     1        0.108838   333445.468408    ;  uncertainty r = 0.000017, k = 0.759054
         5         7     1        0.139647   371687.596143    ;  uncertainty r = 0.000022, k = 1.357942
         5        21     1        0.108838   333445.468408    ;  uncertainty r = 0.000017, k = 0.759054
         6         8     1        0.138784   292735.715332    ;  uncertainty r = 0.000088, k = 17.063234
         6        16     1        0.129809   466468.705273    ;  uncertainty r = 0.000049, k = 7.919451
         7        27     1        0.108841   334518.920801    ;  uncertainty r = 0.000012, k = 0.635583
         8         9     1        0.141863   389941.445312    ;  uncertainty r = 0.000062, k = 8.965949
         8        13     1        0.140927   350775.001904    ;  uncertainty r = 0.000037, k = 4.492166
         9        12     1        0.140149   365825.373926    ;  uncertainty r = 0.000032, k = 4.306308
         9        14     1        0.146475   267118.444971    ;  uncertainty r = 0.000080, k = 12.876766
        10        11     1        0.140959   354582.610449    ;  uncertainty r = 0.000047, k = 3.112266
        10        12     1        0.138834   365622.226221    ;  uncertainty r = 0.000027, k = 5.086639
        10        26     1        0.108771   333772.036963    ;  uncertainty r = 0.000014, k = 1.735930
        11        13     1        0.138593   376720.092139    ;  uncertainty r = 0.000040, k = 3.159882
        11        22     1        0.108788   334160.507471    ;  uncertainty r = 0.000010, k = 0.844491
        12        23     1        0.108581   330886.318066    ;  uncertainty r = 0.000008, k = 0.970842
        13        25     1        0.108757   337369.040967    ;  uncertainty r = 0.000013, k = 2.777785
        14        15     1        0.140308   445037.860938    ;  uncertainty r = 0.000068, k = 13.474937
        14        17     1        0.123451   862382.769727    ;  uncertainty r = 0.000113, k = 12.055905
        15        16     1        0.139072   297625.458887    ;  uncertainty r = 0.000069, k = 20.066655
        15        24     1        0.102058   454589.659180    ;  uncertainty r = 0.000027, k = 4.102130

[ angles ]
;       ai        aj        ak funct           theta             cth
         1         2         4     1      121.261917      520.989048    ;  uncertainty theta = 0.002230, k = 0.090164
         1         2        18     1      118.259010      265.581548    ;  uncertainty theta = 0.002023, k = 0.051515
         1         3         5     1      121.261917      520.989048    ;  uncertainty theta = 0.002230, k = 0.090164
         1         3        19     1      118.259010      265.581548    ;  uncertainty theta = 0.002023, k = 0.051515
         1        16         6     1      122.674561      446.610781    ;  uncertainty theta = 0.003798, k = 0.147227
         1        16        15     1      116.640709      514.328428    ;  uncertainty theta = 0.004873, k = 0.250272
         2         1         3     1      122.134911      430.320308    ;  uncertainty theta = 0.002389, k = 0.161572
         2         1        16     1      117.798172      400.449104    ;  uncertainty theta = 0.002699, k = 0.115001
         2         4         7     1      119.817062      515.049532    ;  uncertainty theta = 0.002271, k = 0.033042
         2         4        20     1      120.056015      283.980381    ;  uncertainty theta = 0.001084, k = 0.039564
         3         1        16     1      117.798172      400.449104    ;  uncertainty theta = 0.002699, k = 0.115001
         3         5         7     1      119.817062      515.049532    ;  uncertainty theta = 0.002271, k = 0.033042
         3         5        21     1      120.056015      283.980381    ;  uncertainty theta = 0.001084, k = 0.039564
         4         2        18     1      120.463638      290.804982    ;  uncertainty theta = 0.002462, k = 0.014362
         4         7         5     1      118.424683      527.899997    ;  uncertainty theta = 0.001630, k = 0.032802
         4         7        27     1      120.547501      288.037813    ;  uncertainty theta = 0.001903, k = 0.018550
         5         3        19     1      120.463638      290.804950    ;  uncertainty theta = 0.002462, k = 0.014363
         5         7        27     1      120.547501      288.037845    ;  uncertainty theta = 0.001903, k = 0.018550
         6         8         9     1      123.413307      569.804989    ;  uncertainty theta = 0.006084, k = 0.108261
         6         8        13     1      120.180405      515.019238    ;  uncertainty theta = 0.008445, k = 0.067778
         6        16        15     1      123.678001      679.251166    ;  uncertainty theta = 0.005921, k = 0.135841
         7         4        20     1      120.680786      289.031653    ;  uncertainty theta = 0.001127, k = 0.019107
         7         5        21     1      120.680786      289.031653    ;  uncertainty theta = 0.001127, k = 0.019107
         8         6        16     1      115.167862      417.895802    ;  uncertainty theta = 0.005409, k = 0.406456
         8         9        12     1      121.210655      442.885651    ;  uncertainty theta = 0.002563, k = 0.180134
         8         9        14     1      117.379295      492.211024    ;  uncertainty theta = 0.004509, k = 0.269989
         8        13        11     1      118.152382      536.041674    ;  uncertainty theta = 0.002296, k = 0.146779
         8        13        25     1      120.324745      273.256200    ;  uncertainty theta = 0.003414, k = 0.109978
         9         8        13     1      119.287331      404.892529    ;  uncertainty theta = 0.002940, k = 0.265975
         9        12        10     1      120.447304      513.467093    ;  uncertainty theta = 0.000787, k = 0.109045
         9        12        23     1      119.196671      249.131484    ;  uncertainty theta = 0.002717, k = 0.163190
         9        14        15     1      109.004433      392.397796    ;  uncertainty theta = 0.007663, k = 0.285119
         9        14        17     1      128.197845      510.099833    ;  uncertainty theta = 0.002635, k = 0.113580
        10        11        13     1      120.435791      533.675852    ;  uncertainty theta = 0.001825, k = 0.037758
        10        11        22     1      120.120682      286.167379    ;  uncertainty theta = 0.000985, k = 0.029469
        10        12        23     1      121.173691      278.249535    ;  uncertainty theta = 0.001451, k = 0.058817
        11        10        12     1      120.682922      534.770660    ;  uncertainty theta = 0.000868, k = 0.060456
        11        10        26     1      120.511620      288.740435    ;  uncertainty theta = 0.001069, k = 0.048187
        11        13        25     1      121.830910      283.074452    ;  uncertainty theta = 0.002091, k = 0.042320
        12         9        14     1      118.721725      400.331665    ;  uncertainty theta = 0.004392, k = 0.112033
        12        10        26     1      120.105263      285.510916    ;  uncertainty theta = 0.002246, k = 0.049607
        13        11        22     1      119.571182      286.884238    ;  uncertainty theta = 0.001544, k = 0.051879
        14        15        16     1      121.075363      496.806172    ;  uncertainty theta = 0.003172, k = 0.179104
        14        15        24     1      115.431900      354.050730    ;  uncertainty theta = 0.006822, k = 0.129438
        15        14        17     1      124.832138      820.945158    ;  uncertainty theta = 0.002656, k = 0.086022
        16        15        24     1      116.804955      331.084665    ;  uncertainty theta = 0.006464, k = 0.239703

[ dihedrals ] ; propers for gromacs 4.5 or higher, use funct 9
;       ai        aj        ak        al funct           phase               k        pn
         1         2         4         7     9        0.000000       -0.042946         1    ;  uncertainty k = 0.119891
         1         2         4         7     9      180.000000       13.709193         2    ;  uncertainty k = 0.280575
         1         2         4         7     9        0.000000       -0.745948         3    ;  uncertainty k = 0.476127
         1         2         4         7     9      180.000000        0.773786         4    ;  uncertainty k = 0.264652
         1         2         4        20     9        0.000000        0.087630         1    ;  uncertainty k = 0.140343
         1         2         4        20     9      180.000000        7.838833         2    ;  uncertainty k = 0.300860
         1         2         4        20     9        0.000000        1.495629         3    ;  uncertainty k = 0.214465
         1         2         4        20     9      180.000000        1.829980         4    ;  uncertainty k = 0.167402
         1         3         5         7     9        0.000000       -0.042946         1    ;  uncertainty k = 0.119891
         1         3         5         7     9      180.000000       13.709193         2    ;  uncertainty k = 0.280575
         1         3         5         7     9        0.000000       -0.745948         3    ;  uncertainty k = 0.476127
         1         3         5         7     9      180.000000        0.773786         4    ;  uncertainty k = 0.264652
         1         3         5        21     9        0.000000        0.087630         1    ;  uncertainty k = 0.140343
         1         3         5        21     9      180.000000        7.838833         2    ;  uncertainty k = 0.300860
         1         3         5        21     9        0.000000        1.495629         3    ;  uncertainty k = 0.214465
         1         3         5        21     9      180.000000        1.829980         4    ;  uncertainty k = 0.167402
         1        16         6         8     9        0.000000       -0.619663         1    ;  uncertainty k = 0.817612
         1        16         6         8     9      180.000000       19.120182         2    ;  uncertainty k = 0.463649
         1        16         6         8     9        0.000000        2.682940         3    ;  uncertainty k = 0.457453
         1        16         6         8     9      180.000000        1.362562         4    ;  uncertainty k = 0.365972
         1        16        15        14     9        0.000000        1.155350         1    ;  uncertainty k = 0.888677
         1        16        15        14     9      180.000000        5.481492         2    ;  uncertainty k = 0.773364
         1        16        15        14     9        0.000000        0.535704         3    ;  uncertainty k = 0.327598
         1        16        15        14     9      180.000000       -0.088320         4    ;  uncertainty k = 0.311165
         1        16        15        24     9        0.000000        0.924258         1    ;  uncertainty k = 0.184519
         1        16        15        24     9      180.000000        4.675536         2    ;  uncertainty k = 0.947405
         1        16        15        24     9        0.000000        1.359108         3    ;  uncertainty k = 0.262227
         1        16        15        24     9      180.000000       -0.078961         4    ;  uncertainty k = 0.275852
         2         1         3         5     9        0.000000       -0.001218         1    ;  uncertainty k = 0.167055
         2         1         3         5     9      180.000000       11.123531         2    ;  uncertainty k = 0.204039
         2         1         3         5     9        0.000000       -0.539474         3    ;  uncertainty k = 0.204150
         2         1         3         5     9      180.000000        0.945494         4    ;  uncertainty k = 0.219142
         2         1         3        19     9        0.000000        0.149880         1    ;  uncertainty k = 0.208907
         2         1         3        19     9      180.000000        6.962133         2    ;  uncertainty k = 0.559582
         2         1         3        19     9        0.000000        1.369073         3    ;  uncertainty k = 0.225538
         2         1         3        19     9      180.000000        1.612588         4    ;  uncertainty k = 0.240222
         2         1        16         6     9        0.000000        0.762276         1    ;  uncertainty k = 0.578114
         2         1        16         6     9      180.000000        3.885486         2    ;  uncertainty k = 0.259850
         2         1        16         6     9        0.000000        0.549219         3    ;  uncertainty k = 0.159994
         2         1        16         6     9      180.000000       -0.124383         4    ;  uncertainty k = 0.125470
         2         1        16        15     9        0.000000       -0.023893         1    ;  uncertainty k = 0.368006
         2         1        16        15     9      180.000000        3.963514         2    ;  uncertainty k = 0.384578
         2         1        16        15     9        0.000000        0.507165         3    ;  uncertainty k = 0.135147
         2         1        16        15     9      180.000000       -0.124125         4    ;  uncertainty k = 0.045780
         2         4         7         5     9        0.000000       -0.079037         1    ;  uncertainty k = 0.103240
         2         4         7         5     9      180.000000       14.703045         2    ;  uncertainty k = 0.253970
         2         4         7         5     9        0.000000       -1.113173         3    ;  uncertainty k = 0.470261
         2         4         7         5     9      180.000000        0.580996         4    ;  uncertainty k = 0.241505
         2         4         7        27     9        0.000000        0.071505         1    ;  uncertainty k = 0.092610
         2         4         7        27     9      180.000000        7.391163         2    ;  uncertainty k = 0.311901
         2         4         7        27     9        0.000000        1.472086         3    ;  uncertainty k = 0.268399
         2         4         7        27     9      180.000000        1.767548         4    ;  uncertainty k = 0.120216
         3         1         2         4     9        0.000000       -0.001218         1    ;  uncertainty k = 0.167055
         3         1         2         4     9      180.000000       11.123531         2    ;  uncertainty k = 0.204039
         3         1         2         4     9        0.000000       -0.539474         3    ;  uncertainty k = 0.204150
         3         1         2         4     9      180.000000        0.945494         4    ;  uncertainty k = 0.219142
         3         1         2        18     9        0.000000        0.149880         1    ;  uncertainty k = 0.208907
         3         1         2        18     9      180.000000        6.962133         2    ;  uncertainty k = 0.559582
         3         1         2        18     9        0.000000        1.369073         3    ;  uncertainty k = 0.225538
         3         1         2        18     9      180.000000        1.612588         4    ;  uncertainty k = 0.240222
         3         1        16         6     9        0.000000        0.762276         1    ;  uncertainty k = 0.578114
         3         1        16         6     9      180.000000        3.885486         2    ;  uncertainty k = 0.259850
         3         1        16         6     9        0.000000        0.549219         3    ;  uncertainty k = 0.159994
         3         1        16         6     9      180.000000       -0.124383         4    ;  uncertainty k = 0.125470
         3         1        16        15     9        0.000000       -0.023893         1    ;  uncertainty k = 0.368006
         3         1        16        15     9      180.000000        3.963514         2    ;  uncertainty k = 0.384578
         3         1        16        15     9        0.000000        0.507165         3    ;  uncertainty k = 0.135147
         3         1        16        15     9      180.000000       -0.124125         4    ;  uncertainty k = 0.045780
         3         5         7         4     9        0.000000       -0.079037         1    ;  uncertainty k = 0.103240
         3         5         7         4     9      180.000000       14.703045         2    ;  uncertainty k = 0.253970
         3         5         7         4     9        0.000000       -1.113173         3    ;  uncertainty k = 0.470261
         3         5         7         4     9      180.000000        0.580996         4    ;  uncertainty k = 0.241505
         3         5         7        27     9        0.000000        0.071505         1    ;  uncertainty k = 0.092610
         3         5         7        27     9      180.000000        7.391163         2    ;  uncertainty k = 0.311901
         3         5         7        27     9        0.000000        1.472086         3    ;  uncertainty k = 0.268399
         3         5         7        27     9      180.000000        1.767548         4    ;  uncertainty k = 0.120216
         4         2         1        16     9        0.000000        0.165572         1    ;  uncertainty k = 0.183434
         4         2         1        16     9      180.000000        9.214640         2    ;  uncertainty k = 0.638211
         4         2         1        16     9        0.000000        1.359436         3    ;  uncertainty k = 0.287124
         4         2         1        16     9      180.000000        1.737635         4    ;  uncertainty k = 0.226901
         4         7         5        21     9        0.000000        0.054467         1    ;  uncertainty k = 0.058877
         4         7         5        21     9      180.000000        7.611067         2    ;  uncertainty k = 0.317847
         4         7         5        21     9        0.000000        1.428416         3    ;  uncertainty k = 0.298361
         4         7         5        21     9      180.000000        1.817349         4    ;  uncertainty k = 0.097602
         5         3         1        16     9        0.000000        0.165572         1    ;  uncertainty k = 0.183434
         5         3         1        16     9      180.000000        9.214640         2    ;  uncertainty k = 0.638211
         5         3         1        16     9        0.000000        1.359436         3    ;  uncertainty k = 0.287124
         5         3         1        16     9      180.000000        1.737635         4    ;  uncertainty k = 0.226901
         5         7         4        20     9        0.000000        0.054467         1    ;  uncertainty k = 0.058877
         5         7         4        20     9      180.000000        7.611067         2    ;  uncertainty k = 0.317847
         5         7         4        20     9        0.000000        1.428416         3    ;  uncertainty k = 0.298361
         5         7         4        20     9      180.000000        1.817349         4    ;  uncertainty k = 0.097602
         6         8         9        12     9        0.000000        0.082635         1    ;  uncertainty k = 0.386488
         6         8         9        12     9      180.000000        8.313236         2    ;  uncertainty k = 0.549830
         6         8         9        12     9        0.000000        0.699557         3    ;  uncertainty k = 0.287181
         6         8         9        12     9      180.000000        1.442872         4    ;  uncertainty k = 0.225326
         6         8         9        14     9        0.000000       -0.177523         1    ;  uncertainty k = 0.379686
         6         8         9        14     9      180.000000        7.466701         2    ;  uncertainty k = 0.821856
         6         8         9        14     9        0.000000        1.009562         3    ;  uncertainty k = 0.461819
         6         8         9        14     9      180.000000        1.510966         4    ;  uncertainty k = 0.148065
         6         8        13        11     9        0.000000        0.117823         1    ;  uncertainty k = 0.449147
         6         8        13        11     9      180.000000       10.792855         2    ;  uncertainty k = 0.373407
         6         8        13        11     9        0.000000        0.881965         3    ;  uncertainty k = 0.244653
         6         8        13        11     9      180.000000        1.448032         4    ;  uncertainty k = 0.110443
         6         8        13        25     9        0.000000       -0.462288         1    ;  uncertainty k = 0.610871
         6         8        13        25     9      180.000000        7.702683         2    ;  uncertainty k = 0.308228
         6         8        13        25     9        0.000000        1.221412         3    ;  uncertainty k = 0.390475
         6         8        13        25     9      180.000000        1.249769         4    ;  uncertainty k = 0.221064
         6        16        15        14     9        0.000000        0.172094         1    ;  uncertainty k = 0.888922
         6        16        15        14     9      180.000000        7.167415         2    ;  uncertainty k = 0.653142
         6        16        15        14     9        0.000000        0.600185         3    ;  uncertainty k = 0.663178
         6        16        15        14     9      180.000000        0.376002         4    ;  uncertainty k = 0.218599
         6        16        15        24     9        0.000000        5.758950         1    ;  uncertainty k = 1.531635
         6        16        15        24     9      180.000000       10.846314         2    ;  uncertainty k = 0.608797
         6        16        15        24     9        0.000000        1.244463         3    ;  uncertainty k = 0.560007
         6        16        15        24     9      180.000000       -0.235958         4    ;  uncertainty k = 0.089809
         7         4         2        18     9        0.000000        0.029910         1    ;  uncertainty k = 0.099646
         7         4         2        18     9      180.000000        7.866652         2    ;  uncertainty k = 0.237007
         7         4         2        18     9        0.000000        1.382185         3    ;  uncertainty k = 0.261690
         7         4         2        18     9      180.000000        1.847130         4    ;  uncertainty k = 0.206331
         7         5         3        19     9        0.000000        0.029910         1    ;  uncertainty k = 0.099646
         7         5         3        19     9      180.000000        7.866652         2    ;  uncertainty k = 0.237007
         7         5         3        19     9        0.000000        1.382185         3    ;  uncertainty k = 0.261690
         7         5         3        19     9      180.000000        1.847130         4    ;  uncertainty k = 0.206331
         8         6        16        15     9        0.000000       -0.829308         1    ;  uncertainty k = 0.463825
         8         6        16        15     9      180.000000       23.938315         2    ;  uncertainty k = 0.186922
         8         6        16        15     9        0.000000        1.717743         3    ;  uncertainty k = 0.279768
         8         6        16        15     9      180.000000        1.440226         4    ;  uncertainty k = 0.456575
         8         9        12        10     9        0.000000        0.027998         1    ;  uncertainty k = 0.257688
         8         9        12        10     9      180.000000       11.736163         2    ;  uncertainty k = 0.315742
         8         9        12        10     9        0.000000       -0.588865         3    ;  uncertainty k = 0.464927
         8         9        12        10     9      180.000000        0.912796         4    ;  uncertainty k = 0.253978
         8         9        12        23     9        0.000000       -0.053618         1    ;  uncertainty k = 0.422279
         8         9        12        23     9      180.000000        7.478275         2    ;  uncertainty k = 0.675022
         8         9        12        23     9        0.000000        1.274776         3    ;  uncertainty k = 0.313870
         8         9        12        23     9      180.000000        1.350246         4    ;  uncertainty k = 0.143602
         8         9        14        15     9        0.000000       -1.367064         1    ;  uncertainty k = 0.828767
         8         9        14        15     9      180.000000        2.473751         2    ;  uncertainty k = 0.733269
         8         9        14        15     9        0.000000       -0.286933         3    ;  uncertainty k = 0.498447
         8         9        14        15     9      180.000000        0.563222         4    ;  uncertainty k = 0.242019
         8         9        14        17     9        0.000000       -2.139971         1    ;  uncertainty k = 0.820798
         8         9        14        17     9      180.000000        5.146431         2    ;  uncertainty k = 0.509591
         8         9        14        17     9        0.000000        0.250019         3    ;  uncertainty k = 0.253219
         8         9        14        17     9      180.000000       -0.131287         4    ;  uncertainty k = 0.215397
         8        13        11        10     9        0.000000       -0.000593         1    ;  uncertainty k = 0.197038
         8        13        11        10     9      180.000000       16.183699         2    ;  uncertainty k = 0.242348
         8        13        11        10     9        0.000000       -0.509524         3    ;  uncertainty k = 0.475120
         8        13        11        10     9      180.000000        0.669964         4    ;  uncertainty k = 0.331411
         8        13        11        22     9        0.000000        0.102882         1    ;  uncertainty k = 0.152361
         8        13        11        22     9      180.000000        9.912075         2    ;  uncertainty k = 0.367891
         8        13        11        22     9        0.000000        1.439086         3    ;  uncertainty k = 0.139023
         8        13        11        22     9      180.000000        1.661239         4    ;  uncertainty k = 0.107607
         9         8         6        16     9        0.000000        1.584942         1    ;  uncertainty k = 2.113165
         9         8         6        16     9      180.000000        3.936590         2    ;  uncertainty k = 1.582586
         9         8         6        16     9        0.000000        1.409244         3    ;  uncertainty k = 0.532941
         9         8         6        16     9      180.000000        0.417216         4    ;  uncertainty k = 0.485420
         9         8        13        11     9        0.000000        0.278281         1    ;  uncertainty k = 0.373812
         9         8        13        11     9      180.000000        8.808189         2    ;  uncertainty k = 0.403924
         9         8        13        11     9        0.000000       -0.368205         3    ;  uncertainty k = 0.122783
         9         8        13        11     9      180.000000        1.077393         4    ;  uncertainty k = 0.190556
         9         8        13        25     9        0.000000       -0.074949         1    ;  uncertainty k = 0.245963
         9         8        13        25     9      180.000000        5.557294         2    ;  uncertainty k = 0.473926
         9         8        13        25     9        0.000000        1.400365         3    ;  uncertainty k = 0.365763
         9         8        13        25     9      180.000000        1.227502         4    ;  uncertainty k = 0.115524
         9        12        10        11     9        0.000000       -0.097981         1    ;  uncertainty k = 0.312098
         9        12        10        11     9      180.000000       14.279931         2    ;  uncertainty k = 0.322920
         9        12        10        11     9        0.000000       -0.670791         3    ;  uncertainty k = 0.607942
         9        12        10        11     9      180.000000        0.821009         4    ;  uncertainty k = 0.389825
         9        12        10        26     9        0.000000        0.219309         1    ;  uncertainty k = 0.221785
         9        12        10        26     9      180.000000        9.205860         2    ;  uncertainty k = 0.186128
         9        12        10        26     9        0.000000        1.552893         3    ;  uncertainty k = 0.265951
         9        12        10        26     9      180.000000        1.805631         4    ;  uncertainty k = 0.119855
         9        14        15        16     9        0.000000        0.198226         1    ;  uncertainty k = 1.671215
         9        14        15        16     9      180.000000        4.044209         2    ;  uncertainty k = 1.207217
         9        14        15        16     9        0.000000        0.668975         3    ;  uncertainty k = 0.195985
         9        14        15        16     9      180.000000        0.485456         4    ;  uncertainty k = 0.383727
         9        14        15        24     9        0.000000        2.539166         1    ;  uncertainty k = 2.283136
         9        14        15        24     9      180.000000        5.210298         2    ;  uncertainty k = 0.856683
         9        14        15        24     9        0.000000        1.746601         3    ;  uncertainty k = 0.127223
         9        14        15        24     9      180.000000       -0.016431         4    ;  uncertainty k = 0.110132
        10        11        13        25     9        0.000000        0.083995         1    ;  uncertainty k = 0.220180
        10        11        13        25     9      180.000000        9.080667         2    ;  uncertainty k = 0.282909
        10        11        13        25     9        0.000000        1.434938         3    ;  uncertainty k = 0.317599
        10        11        13        25     9      180.000000        1.975946         4    ;  uncertainty k = 0.227539
        10        12         9        14     9        0.000000        0.044609         1    ;  uncertainty k = 0.367976
        10        12         9        14     9      180.000000        9.264699         2    ;  uncertainty k = 0.763341
        10        12         9        14     9        0.000000        1.197205         3    ;  uncertainty k = 0.229136
        10        12         9        14     9      180.000000        1.793137         4    ;  uncertainty k = 0.308067
        11        10        12        23     9        0.000000        0.143046         1    ;  uncertainty k = 0.096639
        11        10        12        23     9      180.000000        8.536627         2    ;  uncertainty k = 0.391041
        11        10        12        23     9        0.000000        1.370233         3    ;  uncertainty k = 0.287205
        11        10        12        23     9      180.000000        1.812796         4    ;  uncertainty k = 0.179750
        12         9         8        13     9        0.000000       -0.115933         1    ;  uncertainty k = 0.288595
        12         9         8        13     9      180.000000        7.038016         2    ;  uncertainty k = 0.789858
        12         9         8        13     9        0.000000        0.170187         3    ;  uncertainty k = 0.399467
        12         9         8        13     9      180.000000        1.344344         4    ;  uncertainty k = 0.306578
        12         9        14        15     9        0.000000       -0.016797         1    ;  uncertainty k = 0.905528
        12         9        14        15     9      180.000000        2.979966         2    ;  uncertainty k = 0.608569
        12         9        14        15     9        0.000000        0.632539         3    ;  uncertainty k = 0.487226
        12         9        14        15     9      180.000000        0.539347         4    ;  uncertainty k = 0.234167
        12         9        14        17     9        0.000000       -1.688195         1    ;  uncertainty k = 0.653457
        12         9        14        17     9      180.000000        5.358564         2    ;  uncertainty k = 0.685642
        12         9        14        17     9        0.000000        0.587120         3    ;  uncertainty k = 0.294819
        12         9        14        17     9      180.000000       -0.195627         4    ;  uncertainty k = 0.136122
        12        10        11        13     9        0.000000       -0.029396         1    ;  uncertainty k = 0.214165
        12        10        11        13     9      180.000000       12.578387         2    ;  uncertainty k = 0.442285
        12        10        11        13     9        0.000000       -0.899003         3    ;  uncertainty k = 0.583296
        12        10        11        13     9      180.000000        0.663347         4    ;  uncertainty k = 0.288190
        12        10        11        22     9        0.000000        0.011359         1    ;  uncertainty k = 0.319234
        12        10        11        22     9      180.000000        6.835019         2    ;  uncertainty k = 0.248300
        12        10        11        22     9        0.000000        1.435876         3    ;  uncertainty k = 0.212016
        12        10        11        22     9      180.000000        1.587834         4    ;  uncertainty k = 0.054964
        13         8         6        16     9        0.000000        1.297949         1    ;  uncertainty k = 1.604181
        13         8         6        16     9      180.000000        5.494292         2    ;  uncertainty k = 1.055299
        13         8         6        16     9        0.000000        2.253740         3    ;  uncertainty k = 0.378232
        13         8         6        16     9      180.000000        0.368606         4    ;  uncertainty k = 0.415462
        13         8         9        14     9        0.000000        0.115923         1    ;  uncertainty k = 0.411855
        13         8         9        14     9      180.000000        6.545745         2    ;  uncertainty k = 0.867683
        13         8         9        14     9        0.000000        0.913220         3    ;  uncertainty k = 0.207186
        13         8         9        14     9      180.000000        1.428426         4    ;  uncertainty k = 0.176106
        13        11        10        26     9        0.000000        0.061345         1    ;  uncertainty k = 0.366563
        13        11        10        26     9      180.000000        6.881052         2    ;  uncertainty k = 0.442243
        13        11        10        26     9        0.000000        1.487828         3    ;  uncertainty k = 0.235120
        13        11        10        26     9      180.000000        1.625651         4    ;  uncertainty k = 0.074964
        14         9        12        23     9        0.000000       -0.424196         1    ;  uncertainty k = 0.669709
        14         9        12        23     9      180.000000        7.749834         2    ;  uncertainty k = 0.309730
        14         9        12        23     9        0.000000        0.987633         3    ;  uncertainty k = 0.221527
        14         9        12        23     9      180.000000        1.187166         4    ;  uncertainty k = 0.106459
        16         1         2        18     9        0.000000       -0.256429         1    ;  uncertainty k = 0.173043
        16         1         2        18     9      180.000000        7.293389         2    ;  uncertainty k = 0.275744
        16         1         2        18     9        0.000000        0.721556         3    ;  uncertainty k = 0.197377
        16         1         2        18     9      180.000000        1.076759         4    ;  uncertainty k = 0.149497
        16         1         3        19     9        0.000000       -0.256429         1    ;  uncertainty k = 0.173043
        16         1         3        19     9      180.000000        7.293389         2    ;  uncertainty k = 0.275744
        16         1         3        19     9        0.000000        0.721556         3    ;  uncertainty k = 0.197377
        16         1         3        19     9      180.000000        1.076759         4    ;  uncertainty k = 0.149497
        16        15        14        17     9        0.000000        0.178177         1    ;  uncertainty k = 1.299270
        16        15        14        17     9      180.000000       11.105305         2    ;  uncertainty k = 0.468704
        16        15        14        17     9        0.000000        1.323604         3    ;  uncertainty k = 0.333440
        16        15        14        17     9      180.000000       -0.479268         4    ;  uncertainty k = 0.393953
        17        14        15        24     9        0.000000        1.507941         1    ;  uncertainty k = 2.538782
        17        14        15        24     9      180.000000        9.086731         2    ;  uncertainty k = 0.611574
        17        14        15        24     9        0.000000        0.750425         3    ;  uncertainty k = 0.512639
        17        14        15        24     9      180.000000       -0.105071         4    ;  uncertainty k = 0.057978
        18         2         4        20     9        0.000000       -0.122104         1    ;  uncertainty k = 0.212898
        18         2         4        20     9      180.000000        7.943843         2    ;  uncertainty k = 0.386766
        18         2         4        20     9        0.000000       -0.384276         3    ;  uncertainty k = 0.225896
        18         2         4        20     9      180.000000        0.182494         4    ;  uncertainty k = 0.139641
        19         3         5        21     9        0.000000       -0.122104         1    ;  uncertainty k = 0.212898
        19         3         5        21     9      180.000000        7.943843         2    ;  uncertainty k = 0.386766
        19         3         5        21     9        0.000000       -0.384276         3    ;  uncertainty k = 0.225896
        19         3         5        21     9      180.000000        0.182494         4    ;  uncertainty k = 0.139641
        20         4         7        27     9        0.000000       -0.102574         1    ;  uncertainty k = 0.079977
        20         4         7        27     9      180.000000        7.790479         2    ;  uncertainty k = 0.402177
        20         4         7        27     9        0.000000       -0.416507         3    ;  uncertainty k = 0.300300
        20         4         7        27     9      180.000000        0.044132         4    ;  uncertainty k = 0.150695
        21         5         7        27     9        0.000000       -0.102574         1    ;  uncertainty k = 0.079977
        21         5         7        27     9      180.000000        7.790480         2    ;  uncertainty k = 0.402177
        21         5         7        27     9        0.000000       -0.416507         3    ;  uncertainty k = 0.300300
        21         5         7        27     9      180.000000        0.044132         4    ;  uncertainty k = 0.150695
        22        11        10        26     9        0.000000       -0.060834         1    ;  uncertainty k = 0.279784
        22        11        10        26     9      180.000000        7.355345         2    ;  uncertainty k = 0.516032
        22        11        10        26     9        0.000000       -0.303531         3    ;  uncertainty k = 0.304832
        22        11        10        26     9      180.000000        0.102536         4    ;  uncertainty k = 0.162502
        22        11        13        25     9        0.000000       -0.138613         1    ;  uncertainty k = 0.278041
        22        11        13        25     9      180.000000        8.538967         2    ;  uncertainty k = 0.344921
        22        11        13        25     9        0.000000       -0.245478         3    ;  uncertainty k = 0.250256
        22        11        13        25     9      180.000000        0.240372         4    ;  uncertainty k = 0.216345
        23        12        10        26     9        0.000000       -0.129080         1    ;  uncertainty k = 0.198210
        23        12        10        26     9      180.000000        8.044442         2    ;  uncertainty k = 0.562925
        23        12        10        26     9        0.000000       -0.255409         3    ;  uncertainty k = 0.249825
        23        12        10        26     9      180.000000        0.185290         4    ;  uncertainty k = 0.177453

[ dihedrals ] ; impropers
;       ai        aj        ak        al funct           phase               k        pn
         1         2         3        16     4      180.000000        9.047911         2    ;  uncertainty k = 0.173267
         1         3        16         2     4      180.000000        9.047911         2    ;  uncertainty k = 0.173267
         1        16         2         3     4      180.000000        9.047911         2    ;  uncertainty k = 0.173267
         2         1         4        18     4      180.000000        4.057222         2    ;  uncertainty k = 0.058079
         2         4        18         1     4      180.000000        4.057222         2    ;  uncertainty k = 0.058079
         2        18         1         4     4      180.000000        4.057222         2    ;  uncertainty k = 0.058079
         3         1         5        19     4      180.000000        4.057222         2    ;  uncertainty k = 0.058079
         3         5        19         1     4      180.000000        4.057222         2    ;  uncertainty k = 0.058079
         3        19         1         5     4      180.000000        4.057222         2    ;  uncertainty k = 0.058079
         4         2         7        20     4      180.000000        3.866420         2    ;  uncertainty k = 0.073828
         4         7        20         2     4      180.000000        3.866420         2    ;  uncertainty k = 0.073828
         4        20         2         7     4      180.000000        3.866420         2    ;  uncertainty k = 0.073828
         5         3         7        21     4      180.000000        3.866420         2    ;  uncertainty k = 0.073828
         5         7        21         3     4      180.000000        3.866420         2    ;  uncertainty k = 0.073828
         5        21         3         7     4      180.000000        3.866420         2    ;  uncertainty k = 0.073828
         7         4         5        27     4      180.000000        4.937612         2    ;  uncertainty k = 0.210400
         7         5        27         4     4      180.000000        4.937612         2    ;  uncertainty k = 0.210400
         7        27         4         5     4      180.000000        4.937612         2    ;  uncertainty k = 0.210400
         8         6         9        13     4      180.000000       22.156717         2    ;  uncertainty k = 0.038741
         8         9        13         6     4      180.000000       22.156717         2    ;  uncertainty k = 0.038741
         8        13         6         9     4      180.000000       22.156717         2    ;  uncertainty k = 0.038741
         9         8        12        14     4      180.000000        4.750900         2    ;  uncertainty k = 0.360538
         9        12        14         8     4      180.000000        4.750900         2    ;  uncertainty k = 0.360538
         9        14         8        12     4      180.000000        4.750900         2    ;  uncertainty k = 0.360538
        10        11        12        26     4      180.000000        3.960470         2    ;  uncertainty k = 0.207464
        10        12        26        11     4      180.000000        3.960470         2    ;  uncertainty k = 0.207464
        10        26        11        12     4      180.000000        3.960470         2    ;  uncertainty k = 0.207464
        11        10        13        22     4      180.000000        5.682182         2    ;  uncertainty k = 0.071830
        11        13        22        10     4      180.000000        5.682182         2    ;  uncertainty k = 0.071830
        11        22        10        13     4      180.000000        5.682182         2    ;  uncertainty k = 0.071830
        12         9        10        23     4      180.000000        5.880987         2    ;  uncertainty k = 0.112644
        12        10        23         9     4      180.000000        5.880987         2    ;  uncertainty k = 0.112644
        12        23         9        10     4      180.000000        5.880987         2    ;  uncertainty k = 0.112644
        13         8        11        25     4      180.000000        2.555309         2    ;  uncertainty k = 0.346872
        13        11        25         8     4      180.000000        2.555309         2    ;  uncertainty k = 0.346872
        13        25         8        11     4      180.000000        2.555309         2    ;  uncertainty k = 0.346872
        14         9        15        17     4      180.000000       50.555720         2    ;  uncertainty k = 0.008014
        14        15        17         9     4      180.000000       50.555720         2    ;  uncertainty k = 0.008014
        14        17         9        15     4      180.000000       50.555720         2    ;  uncertainty k = 0.008014
        15        14        16        24     4      180.000000        0.644377         2    ;  uncertainty k = 0.548250
        15        16        24        14     4      180.000000        0.644377         2    ;  uncertainty k = 0.548250
        15        24        14        16     4      180.000000        0.644377         2    ;  uncertainty k = 0.548250
        16         1         6        15     4      180.000000       30.437013         2    ;  uncertainty k = 0.037317
        16         6        15         1     4      180.000000       30.437013         2    ;  uncertainty k = 0.037317
        16        15         1         6     4      180.000000       30.437013         2    ;  uncertainty k = 0.037317

[ pairs ]
;       ai        aj funct
         1         7     1
         1         8     1
         1        14     1
         1        20     1
         1        21     1
         1        24     1
         2         5     1
         2         6     1
         2        15     1
         2        19     1
         2        27     1
         3         4     1
         3         6     1
         3        15     1
         3        18     1
         3        27     1
         4        16     1
         4        21     1
         5        16     1
         5        20     1
         6        11     1
         6        12     1
         6        14     1
         6        24     1
         6        25     1
         7        18     1
         7        19     1
         8        10     1
         8        15     1
         8        17     1
         8        22     1
         8        23     1
         9        11     1
         9        16     1
         9        24     1
         9        25     1
         9        26     1
        10        14     1
        10        25     1
        11        23     1
        12        13     1
        12        15     1
        12        17     1
        12        22     1
        13        14     1
        13        16     1
        13        26     1
        14        23     1
        16        17     1
        16        18     1
        16        19     1
        17        24     1
        18        20     1
        19        21     1
        20        27     1
        21        27     1
        22        25     1
        22        26     1
        23        26     1
