; ITP file created by ByteFF-joint-25, 2026-02-17 09:50:11.939109

[ atomtypes ]
;name           bonded.type        at.num        mass        charge   ptype           sigma         epsilon
 c0bf                                   6      0.0000       0.00000       A     3.31506e-01     4.12883e-01    ;  uncertainty sigma = 0.000015, epsilon = 0.001203
 c1bf                                   6      0.0000       0.00000       A     3.31524e-01     4.13373e-01    ;  uncertainty sigma = 0.000006, epsilon = 0.000496
 c2bf                                   6      0.0000       0.00000       A     3.31524e-01     4.13373e-01    ;  uncertainty sigma = 0.000006, epsilon = 0.000496
 c3bf                                   6      0.0000       0.00000       A     3.31512e-01     4.13355e-01    ;  uncertainty sigma = 0.000005, epsilon = 0.000581
 c4bf                                   6      0.0000       0.00000       A     3.31512e-01     4.13355e-01    ;  uncertainty sigma = 0.000005, epsilon = 0.000581
 n5bf                                   7      0.0000       0.00000       A     3.38420e-01     3.93559e-01    ;  uncertainty sigma = 0.000016, epsilon = 0.001456
 c6bf                                   6      0.0000       0.00000       A     3.31535e-01     4.13386e-01    ;  uncertainty sigma = 0.000006, epsilon = 0.000549
 c7bf                                   6      0.0000       0.00000       A     3.31529e-01     4.12953e-01    ;  uncertainty sigma = 0.000007, epsilon = 0.000869
 c8bf                                   6      0.0000       0.00000       A     3.31545e-01     4.13863e-01    ;  uncertainty sigma = 0.000011, epsilon = 0.001192
 c9bf                                   6      0.0000       0.00000       A     3.31520e-01     4.13328e-01    ;  uncertainty sigma = 0.000005, epsilon = 0.000523
 c10bf                                  6      0.0000       0.00000       A     3.31523e-01     4.13366e-01    ;  uncertainty sigma = 0.000003, epsilon = 0.000663
 c11bf                                  6      0.0000       0.00000       A     3.31507e-01     4.13124e-01    ;  uncertainty sigma = 0.000006, epsilon = 0.000619
 c12bf                                  6      0.0000       0.00000       A     3.31504e-01     4.13351e-01    ;  uncertainty sigma = 0.000006, epsilon = 0.000577
 c13bf                                  6      0.0000       0.00000       A     3.31535e-01     4.13454e-01    ;  uncertainty sigma = 0.000010, epsilon = 0.001039
 n14bf                                  7      0.0000       0.00000       A     3.26867e-01     4.92512e-01    ;  uncertainty sigma = 0.000088, epsilon = 0.003430
 c15bf                                  6      0.0000       0.00000       A     3.31512e-01     4.12851e-01    ;  uncertainty sigma = 0.000012, epsilon = 0.001342
 o16bf                                  8      0.0000       0.00000       A     3.04814e-01     6.11899e-01    ;  uncertainty sigma = 0.000014, epsilon = 0.001624
 h17bf                                  1      0.0000       0.00000       A     2.62566e-01     6.71214e-02    ;  uncertainty sigma = 0.000012, epsilon = 0.000642
 h18bf                                  1      0.0000       0.00000       A     2.62566e-01     6.71214e-02    ;  uncertainty sigma = 0.000012, epsilon = 0.000642
 h19bf                                  1      0.0000       0.00000       A     2.62560e-01     6.71257e-02    ;  uncertainty sigma = 0.000008, epsilon = 0.000419
 h20bf                                  1      0.0000       0.00000       A     2.62560e-01     6.71257e-02    ;  uncertainty sigma = 0.000008, epsilon = 0.000419
 h21bf                                  1      0.0000       0.00000       A     2.62572e-01     6.69735e-02    ;  uncertainty sigma = 0.000010, epsilon = 0.000549
 h22bf                                  1      0.0000       0.00000       A     2.62560e-01     6.69780e-02    ;  uncertainty sigma = 0.000012, epsilon = 0.000618
 h23bf                                  1      0.0000       0.00000       A     1.10651e-01     4.13760e-02    ;  uncertainty sigma = 0.000058, epsilon = 0.001253
 h24bf                                  1      0.0000       0.00000       A     2.62558e-01     6.70235e-02    ;  uncertainty sigma = 0.000015, epsilon = 0.000547
 h25bf                                  1      0.0000       0.00000       A     2.62567e-01     6.69735e-02    ;  uncertainty sigma = 0.000010, epsilon = 0.000525
 o26bf                                  8      0.0000       0.00000       A     3.15646e-01     3.03089e-01    ;  uncertainty sigma = 0.000024, epsilon = 0.000735
 c27bf                                  6      0.0000       0.00000       A     3.39790e-01     4.50985e-01    ;  uncertainty sigma = 0.000004, epsilon = 0.000763
 h28bf                                  1      0.0000       0.00000       A     2.42205e-01     8.67538e-02    ;  uncertainty sigma = 0.000015, epsilon = 0.000624
 h29bf                                  1      0.0000       0.00000       A     2.42205e-01     8.67538e-02    ;  uncertainty sigma = 0.000015, epsilon = 0.000624
 h30bf                                  1      0.0000       0.00000       A     2.42205e-01     8.67538e-02    ;  uncertainty sigma = 0.000015, epsilon = 0.000624

[ moleculetype ]
;name             nrexcl
 MOL                   3

[ atoms ]
;       nr            type      resi   res      atom      cgnr      charge          mass ; qtot
         1            c0bf         1   UNL        c0         1    -0.18044       12.0110 ; qtot   -0.180
         2            c1bf         1   UNL        c1         2    -0.05402       12.0110 ; qtot   -0.234
         3            c2bf         1   UNL        c2         3    -0.05402       12.0110 ; qtot   -0.288
         4            c3bf         1   UNL        c3         4    -0.19644       12.0110 ; qtot   -0.485
         5            c4bf         1   UNL        c4         5    -0.19644       12.0110 ; qtot   -0.681
         6            n5bf         1   UNL        n5         6    -0.62458       14.0070 ; qtot   -1.306
         7            c6bf         1   UNL        c6         7     0.15204       12.0110 ; qtot   -1.154
         8            c7bf         1   UNL        c7         8     0.18952       12.0110 ; qtot   -0.964
         9            c8bf         1   UNL        c8         9    -0.20664       12.0110 ; qtot   -1.171
        10            c9bf         1   UNL        c9        10    -0.15127       12.0110 ; qtot   -1.322
        11           c10bf         1   UNL       c10        11    -0.09043       12.0110 ; qtot   -1.413
        12           c11bf         1   UNL       c11        12    -0.05918       12.0110 ; qtot   -1.472
        13           c12bf         1   UNL       c12        13    -0.12726       12.0110 ; qtot   -1.599
        14           c13bf         1   UNL       c13        14     0.71813       12.0110 ; qtot   -0.881
        15           n14bf         1   UNL       n14        15    -0.50736       14.0070 ; qtot   -1.388
        16           c15bf         1   UNL       c15        16     0.56935       12.0110 ; qtot   -0.819
        17           o16bf         1   UNL       o16        17    -0.60824       15.9990 ; qtot   -1.427
        18           h17bf         1   UNL       h17        18     0.14848        1.0080 ; qtot   -1.279
        19           h18bf         1   UNL       h18        19     0.14848        1.0080 ; qtot   -1.130
        20           h19bf         1   UNL       h19        20     0.14210        1.0080 ; qtot   -0.988
        21           h20bf         1   UNL       h20        21     0.14210        1.0080 ; qtot   -0.846
        22           h21bf         1   UNL       h21        22     0.13619        1.0080 ; qtot   -0.710
        23           h22bf         1   UNL       h22        23     0.15632        1.0080 ; qtot   -0.554
        24           h23bf         1   UNL       h23        24     0.33625        1.0080 ; qtot   -0.217
        25           h24bf         1   UNL       h24        25     0.15324        1.0080 ; qtot   -0.064
        26           h25bf         1   UNL       h25        26     0.14034        1.0080 ; qtot    0.076
        27           o26bf         1   UNL       o26        27    -0.32487       15.9990 ; qtot   -0.249
        28           c27bf         1   UNL       c27        28     0.12074       12.0110 ; qtot   -0.128
        29           h28bf         1   UNL       h28        29     0.04263        1.0080 ; qtot   -0.085
        30           h29bf         1   UNL       h29        30     0.04263        1.0080 ; qtot   -0.043
        31           h30bf         1   UNL       h30        31     0.04265        1.0080 ; qtot   -0.000

[ bonds ]
;       ai        aj funct               r               k
         1         2     1        0.140100   349244.358643    ;  uncertainty r = 0.000067, k = 2.663220
         1         3     1        0.140100   349244.358643    ;  uncertainty r = 0.000067, k = 2.663220
         1        16     1        0.147219   269444.313818    ;  uncertainty r = 0.000104, k = 12.787719
         2         4     1        0.138985   360931.135840    ;  uncertainty r = 0.000059, k = 3.791025
         2        18     1        0.108680   332887.916699    ;  uncertainty r = 0.000045, k = 0.592607
         3         5     1        0.138985   360931.135840    ;  uncertainty r = 0.000059, k = 3.791025
         3        19     1        0.108680   332887.916699    ;  uncertainty r = 0.000045, k = 0.592607
         4         7     1        0.139928   364492.796484    ;  uncertainty r = 0.000035, k = 4.018559
         4        20     1        0.108841   337317.200635    ;  uncertainty r = 0.000031, k = 0.606959
         5         7     1        0.139928   364492.796484    ;  uncertainty r = 0.000035, k = 4.018559
         5        21     1        0.108841   337317.200635    ;  uncertainty r = 0.000031, k = 0.606959
         6         8     1        0.138784   292735.715332    ;  uncertainty r = 0.000088, k = 17.063234
         6        16     1        0.129809   466468.756348    ;  uncertainty r = 0.000049, k = 7.919427
         7        27     1        0.136433   322333.863525    ;  uncertainty r = 0.000040, k = 2.819324
         8         9     1        0.141863   389941.496387    ;  uncertainty r = 0.000062, k = 8.965948
         8        13     1        0.140927   350774.950830    ;  uncertainty r = 0.000037, k = 4.492159
         9        12     1        0.140149   365825.373926    ;  uncertainty r = 0.000032, k = 4.306276
         9        14     1        0.146475   267118.470508    ;  uncertainty r = 0.000080, k = 12.876766
        10        11     1        0.140959   354582.610449    ;  uncertainty r = 0.000047, k = 3.112266
        10        12     1        0.138834   365622.226221    ;  uncertainty r = 0.000027, k = 5.086639
        10        26     1        0.108771   333772.036963    ;  uncertainty r = 0.000014, k = 1.735930
        11        13     1        0.138593   376720.092139    ;  uncertainty r = 0.000040, k = 3.159882
        11        22     1        0.108788   334160.481934    ;  uncertainty r = 0.000010, k = 0.844473
        12        23     1        0.108581   330886.318066    ;  uncertainty r = 0.000008, k = 0.970823
        13        25     1        0.108757   337369.015430    ;  uncertainty r = 0.000013, k = 2.777787
        14        15     1        0.140308   445037.860938    ;  uncertainty r = 0.000068, k = 13.474929
        14        17     1        0.123451   862382.769727    ;  uncertainty r = 0.000113, k = 12.055905
        15        16     1        0.139072   297625.407812    ;  uncertainty r = 0.000069, k = 20.066636
        15        24     1        0.102058   454589.659180    ;  uncertainty r = 0.000027, k = 4.102150
        27        28     1        0.141873   253422.331396    ;  uncertainty r = 0.000020, k = 2.719208
        28        29     1        0.109623   311224.914502    ;  uncertainty r = 0.000009, k = 1.869755
        28        30     1        0.109623   311224.914502    ;  uncertainty r = 0.000009, k = 1.869755
        28        31     1        0.109623   311224.914502    ;  uncertainty r = 0.000009, k = 1.869766

[ angles ]
;       ai        aj        ak funct           theta             cth
         1         2         4     1      122.697533      513.306177    ;  uncertainty theta = 0.002344, k = 0.115563
         1         2        18     1      118.149521      265.916867    ;  uncertainty theta = 0.002846, k = 0.065138
         1         3         5     1      122.697533      513.306177    ;  uncertainty theta = 0.002344, k = 0.115563
         1         3        19     1      118.149521      265.916867    ;  uncertainty theta = 0.002846, k = 0.065138
         1        16         6     1      122.828003      448.030453    ;  uncertainty theta = 0.003673, k = 0.167742
         1        16        15     1      116.764603      517.557116    ;  uncertainty theta = 0.005661, k = 0.246849
         2         1         3     1      121.328369      433.178932    ;  uncertainty theta = 0.002040, k = 0.177183
         2         1        16     1      117.958328      399.284133    ;  uncertainty theta = 0.003361, k = 0.113607
         2         4         7     1      119.718910      516.506615    ;  uncertainty theta = 0.003163, k = 0.049793
         2         4        20     1      120.626770      281.397079    ;  uncertainty theta = 0.001318, k = 0.070572
         3         1        16     1      117.958328      399.284133    ;  uncertainty theta = 0.003361, k = 0.113607
         3         5         7     1      119.718910      516.506615    ;  uncertainty theta = 0.003163, k = 0.049793
         3         5        21     1      120.626770      281.397079    ;  uncertainty theta = 0.001318, k = 0.070572
         4         2        18     1      119.777481      281.311402    ;  uncertainty theta = 0.003706, k = 0.060509
         4         7         5     1      119.878624      371.931175    ;  uncertainty theta = 0.005601, k = 0.149348
         4         7        27     1      119.830978      421.080918    ;  uncertainty theta = 0.002856, k = 0.062595
         5         3        19     1      119.777481      281.311402    ;  uncertainty theta = 0.003706, k = 0.060509
         5         7        27     1      119.830978      421.080918    ;  uncertainty theta = 0.002856, k = 0.062595
         6         8         9     1      123.413307      569.804989    ;  uncertainty theta = 0.006084, k = 0.108261
         6         8        13     1      120.180405      515.019238    ;  uncertainty theta = 0.008445, k = 0.067778
         6        16        15     1      123.678001      679.251166    ;  uncertainty theta = 0.005921, k = 0.135841
         7         4        20     1      119.886429      272.288567    ;  uncertainty theta = 0.002044, k = 0.056648
         7         5        21     1      119.886429      272.288567    ;  uncertainty theta = 0.002044, k = 0.056648
         7        27        28     1      109.631981      516.615116    ;  uncertainty theta = 0.000927, k = 0.049755
         8         6        16     1      115.167862      417.895834    ;  uncertainty theta = 0.005409, k = 0.406456
         8         9        12     1      121.210655      442.885651    ;  uncertainty theta = 0.002563, k = 0.180134
         8         9        14     1      117.379295      492.211024    ;  uncertainty theta = 0.004509, k = 0.269989
         8        13        11     1      118.152382      536.041674    ;  uncertainty theta = 0.002296, k = 0.146779
         8        13        25     1      120.324745      273.256200    ;  uncertainty theta = 0.003414, k = 0.109978
         9         8        13     1      119.287331      404.892529    ;  uncertainty theta = 0.002940, k = 0.265975
         9        12        10     1      120.447304      513.467093    ;  uncertainty theta = 0.000787, k = 0.109045
         9        12        23     1      119.196655      249.131484    ;  uncertainty theta = 0.002717, k = 0.163190
         9        14        15     1      109.004433      392.397796    ;  uncertainty theta = 0.007663, k = 0.285119
         9        14        17     1      128.197845      510.099770    ;  uncertainty theta = 0.002635, k = 0.113580
        10        11        13     1      120.435791      533.675852    ;  uncertainty theta = 0.001825, k = 0.037758
        10        11        22     1      120.120682      286.167379    ;  uncertainty theta = 0.000985, k = 0.029469
        10        12        23     1      121.173691      278.249567    ;  uncertainty theta = 0.001451, k = 0.058817
        11        10        12     1      120.682922      534.770660    ;  uncertainty theta = 0.000868, k = 0.060456
        11        10        26     1      120.511620      288.740435    ;  uncertainty theta = 0.001069, k = 0.048187
        11        13        25     1      121.830910      283.074452    ;  uncertainty theta = 0.002091, k = 0.042320
        12         9        14     1      118.721741      400.331697    ;  uncertainty theta = 0.004392, k = 0.112032
        12        10        26     1      120.105263      285.510852    ;  uncertainty theta = 0.002246, k = 0.049606
        13        11        22     1      119.571182      286.884238    ;  uncertainty theta = 0.001544, k = 0.051879
        14        15        16     1      121.075363      496.806076    ;  uncertainty theta = 0.003172, k = 0.179104
        14        15        24     1      115.431900      354.050730    ;  uncertainty theta = 0.006822, k = 0.129438
        15        14        17     1      124.832153      820.945158    ;  uncertainty theta = 0.002656, k = 0.086022
        16        15        24     1      116.804955      331.084697    ;  uncertainty theta = 0.006464, k = 0.239703
        27        28        29     1      108.813194      446.415294    ;  uncertainty theta = 0.001356, k = 0.024421
        27        28        30     1      108.813194      446.415294    ;  uncertainty theta = 0.001356, k = 0.024421
        27        28        31     1      108.813194      446.415294    ;  uncertainty theta = 0.001356, k = 0.024421
        29        28        30     1      109.081810      330.154380    ;  uncertainty theta = 0.001818, k = 0.013785
        29        28        31     1      109.081810      330.154380    ;  uncertainty theta = 0.001818, k = 0.013785
        30        28        31     1      109.081810      330.154316    ;  uncertainty theta = 0.001818, k = 0.013785

[ dihedrals ] ; propers for gromacs 4.5 or higher, use funct 9
;       ai        aj        ak        al funct           phase               k        pn
         1         2         4         7     9        0.000000       -0.227575         1    ;  uncertainty k = 0.217065
         1         2         4         7     9      180.000000       13.437441         2    ;  uncertainty k = 0.235658
         1         2         4         7     9        0.000000       -0.612873         3    ;  uncertainty k = 0.395115
         1         2         4         7     9      180.000000        0.914581         4    ;  uncertainty k = 0.308323
         1         2         4        20     9        0.000000        0.218315         1    ;  uncertainty k = 0.133477
         1         2         4        20     9      180.000000        8.325731         2    ;  uncertainty k = 0.302797
         1         2         4        20     9        0.000000        1.491658         3    ;  uncertainty k = 0.250936
         1         2         4        20     9      180.000000        1.877496         4    ;  uncertainty k = 0.148269
         1         3         5         7     9        0.000000       -0.227575         1    ;  uncertainty k = 0.217065
         1         3         5         7     9      180.000000       13.437441         2    ;  uncertainty k = 0.235658
         1         3         5         7     9        0.000000       -0.612873         3    ;  uncertainty k = 0.395115
         1         3         5         7     9      180.000000        0.914581         4    ;  uncertainty k = 0.308323
         1         3         5        21     9        0.000000        0.218315         1    ;  uncertainty k = 0.133477
         1         3         5        21     9      180.000000        8.325731         2    ;  uncertainty k = 0.302797
         1         3         5        21     9        0.000000        1.491658         3    ;  uncertainty k = 0.250936
         1         3         5        21     9      180.000000        1.877496         4    ;  uncertainty k = 0.148269
         1        16         6         8     9        0.000000       -0.720189         1    ;  uncertainty k = 0.831121
         1        16         6         8     9      180.000000       19.163701         2    ;  uncertainty k = 0.450956
         1        16         6         8     9        0.000000        2.696281         3    ;  uncertainty k = 0.482512
         1        16         6         8     9      180.000000        1.357798         4    ;  uncertainty k = 0.336986
         1        16        15        14     9        0.000000        1.018661         1    ;  uncertainty k = 0.824691
         1        16        15        14     9      180.000000        5.512651         2    ;  uncertainty k = 0.751624
         1        16        15        14     9        0.000000        0.519407         3    ;  uncertainty k = 0.352574
         1        16        15        14     9      180.000000       -0.084863         4    ;  uncertainty k = 0.307526
         1        16        15        24     9        0.000000        0.802843         1    ;  uncertainty k = 0.171159
         1        16        15        24     9      180.000000        4.693718         2    ;  uncertainty k = 0.808974
         1        16        15        24     9        0.000000        1.362431         3    ;  uncertainty k = 0.240459
         1        16        15        24     9      180.000000       -0.073645         4    ;  uncertainty k = 0.261046
         2         1         3         5     9        0.000000       -0.000195         1    ;  uncertainty k = 0.132317
         2         1         3         5     9      180.000000       11.011753         2    ;  uncertainty k = 0.269840
         2         1         3         5     9        0.000000       -0.653435         3    ;  uncertainty k = 0.192335
         2         1         3         5     9      180.000000        0.969480         4    ;  uncertainty k = 0.253002
         2         1         3        19     9        0.000000        0.007230         1    ;  uncertainty k = 0.229856
         2         1         3        19     9      180.000000        6.778867         2    ;  uncertainty k = 0.514492
         2         1         3        19     9        0.000000        1.291798         3    ;  uncertainty k = 0.239696
         2         1         3        19     9      180.000000        1.552458         4    ;  uncertainty k = 0.238569
         2         1        16         6     9        0.000000        0.878999         1    ;  uncertainty k = 0.786368
         2         1        16         6     9      180.000000        4.085727         2    ;  uncertainty k = 0.278980
         2         1        16         6     9        0.000000        0.570781         3    ;  uncertainty k = 0.159817
         2         1        16         6     9      180.000000       -0.128269         4    ;  uncertainty k = 0.146434
         2         1        16        15     9        0.000000       -0.000158         1    ;  uncertainty k = 0.361708
         2         1        16        15     9      180.000000        4.224242         2    ;  uncertainty k = 0.380347
         2         1        16        15     9        0.000000        0.571033         3    ;  uncertainty k = 0.109072
         2         1        16        15     9      180.000000       -0.116380         4    ;  uncertainty k = 0.057777
         2         4         7         5     9        0.000000        0.025019         1    ;  uncertainty k = 0.305223
         2         4         7         5     9      180.000000        8.627948         2    ;  uncertainty k = 0.631709
         2         4         7         5     9        0.000000        0.025410         3    ;  uncertainty k = 0.247144
         2         4         7         5     9      180.000000        1.232666         4    ;  uncertainty k = 0.316825
         2         4         7        27     9        0.000000        0.059224         1    ;  uncertainty k = 0.276325
         2         4         7        27     9      180.000000        9.822604         2    ;  uncertainty k = 0.442929
         2         4         7        27     9        0.000000        1.206425         3    ;  uncertainty k = 0.263715
         2         4         7        27     9      180.000000        1.577351         4    ;  uncertainty k = 0.172209
         3         1         2         4     9        0.000000       -0.000195         1    ;  uncertainty k = 0.132317
         3         1         2         4     9      180.000000       11.011753         2    ;  uncertainty k = 0.269840
         3         1         2         4     9        0.000000       -0.653435         3    ;  uncertainty k = 0.192335
         3         1         2         4     9      180.000000        0.969480         4    ;  uncertainty k = 0.253002
         3         1         2        18     9        0.000000        0.007230         1    ;  uncertainty k = 0.229856
         3         1         2        18     9      180.000000        6.778867         2    ;  uncertainty k = 0.514492
         3         1         2        18     9        0.000000        1.291798         3    ;  uncertainty k = 0.239696
         3         1         2        18     9      180.000000        1.552458         4    ;  uncertainty k = 0.238569
         3         1        16         6     9        0.000000        0.878999         1    ;  uncertainty k = 0.786368
         3         1        16         6     9      180.000000        4.085727         2    ;  uncertainty k = 0.278980
         3         1        16         6     9        0.000000        0.570781         3    ;  uncertainty k = 0.159817
         3         1        16         6     9      180.000000       -0.128269         4    ;  uncertainty k = 0.146434
         3         1        16        15     9        0.000000       -0.000158         1    ;  uncertainty k = 0.361708
         3         1        16        15     9      180.000000        4.224242         2    ;  uncertainty k = 0.380347
         3         1        16        15     9        0.000000        0.571033         3    ;  uncertainty k = 0.109072
         3         1        16        15     9      180.000000       -0.116380         4    ;  uncertainty k = 0.057777
         3         5         7         4     9        0.000000        0.025019         1    ;  uncertainty k = 0.305223
         3         5         7         4     9      180.000000        8.627948         2    ;  uncertainty k = 0.631709
         3         5         7         4     9        0.000000        0.025410         3    ;  uncertainty k = 0.247144
         3         5         7         4     9      180.000000        1.232666         4    ;  uncertainty k = 0.316825
         3         5         7        27     9        0.000000        0.059224         1    ;  uncertainty k = 0.276325
         3         5         7        27     9      180.000000        9.822604         2    ;  uncertainty k = 0.442929
         3         5         7        27     9        0.000000        1.206425         3    ;  uncertainty k = 0.263715
         3         5         7        27     9      180.000000        1.577351         4    ;  uncertainty k = 0.172209
         4         2         1        16     9        0.000000        0.162373         1    ;  uncertainty k = 0.222772
         4         2         1        16     9      180.000000        9.002311         2    ;  uncertainty k = 0.570547
         4         2         1        16     9        0.000000        1.268707         3    ;  uncertainty k = 0.256864
         4         2         1        16     9      180.000000        1.723092         4    ;  uncertainty k = 0.231949
         4         7         5        21     9        0.000000        0.233901         1    ;  uncertainty k = 0.288593
         4         7         5        21     9      180.000000        6.129411         2    ;  uncertainty k = 0.523053
         4         7         5        21     9        0.000000        1.415193         3    ;  uncertainty k = 0.286367
         4         7         5        21     9      180.000000        1.565871         4    ;  uncertainty k = 0.179571
         4         7        27        28     9        0.000000        0.261847         1    ;  uncertainty k = 0.466844
         4         7        27        28     9      180.000000        8.386668         2    ;  uncertainty k = 0.070856
         4         7        27        28     9        0.000000        0.703545         3    ;  uncertainty k = 0.035260
         4         7        27        28     9      180.000000        0.278461         4    ;  uncertainty k = 0.028891
         5         3         1        16     9        0.000000        0.162373         1    ;  uncertainty k = 0.222772
         5         3         1        16     9      180.000000        9.002311         2    ;  uncertainty k = 0.570547
         5         3         1        16     9        0.000000        1.268707         3    ;  uncertainty k = 0.256864
         5         3         1        16     9      180.000000        1.723092         4    ;  uncertainty k = 0.231949
         5         7         4        20     9        0.000000        0.233901         1    ;  uncertainty k = 0.288593
         5         7         4        20     9      180.000000        6.129411         2    ;  uncertainty k = 0.523053
         5         7         4        20     9        0.000000        1.415193         3    ;  uncertainty k = 0.286367
         5         7         4        20     9      180.000000        1.565871         4    ;  uncertainty k = 0.179571
         5         7        27        28     9        0.000000        0.261847         1    ;  uncertainty k = 0.466844
         5         7        27        28     9      180.000000        8.386668         2    ;  uncertainty k = 0.070856
         5         7        27        28     9        0.000000        0.703545         3    ;  uncertainty k = 0.035260
         5         7        27        28     9      180.000000        0.278461         4    ;  uncertainty k = 0.028891
         6         8         9        12     9        0.000000        0.082635         1    ;  uncertainty k = 0.386488
         6         8         9        12     9      180.000000        8.313236         2    ;  uncertainty k = 0.549830
         6         8         9        12     9        0.000000        0.699557         3    ;  uncertainty k = 0.287181
         6         8         9        12     9      180.000000        1.442872         4    ;  uncertainty k = 0.225326
         6         8         9        14     9        0.000000       -0.177523         1    ;  uncertainty k = 0.379686
         6         8         9        14     9      180.000000        7.466701         2    ;  uncertainty k = 0.821856
         6         8         9        14     9        0.000000        1.009562         3    ;  uncertainty k = 0.461819
         6         8         9        14     9      180.000000        1.510966         4    ;  uncertainty k = 0.148065
         6         8        13        11     9        0.000000        0.117823         1    ;  uncertainty k = 0.449147
         6         8        13        11     9      180.000000       10.792855         2    ;  uncertainty k = 0.373407
         6         8        13        11     9        0.000000        0.881965         3    ;  uncertainty k = 0.244653
         6         8        13        11     9      180.000000        1.448032         4    ;  uncertainty k = 0.110443
         6         8        13        25     9        0.000000       -0.462288         1    ;  uncertainty k = 0.610871
         6         8        13        25     9      180.000000        7.702683         2    ;  uncertainty k = 0.308228
         6         8        13        25     9        0.000000        1.221412         3    ;  uncertainty k = 0.390475
         6         8        13        25     9      180.000000        1.249769         4    ;  uncertainty k = 0.221064
         6        16        15        14     9        0.000000        0.172094         1    ;  uncertainty k = 0.888922
         6        16        15        14     9      180.000000        7.167418         2    ;  uncertainty k = 0.653143
         6        16        15        14     9        0.000000        0.600185         3    ;  uncertainty k = 0.663178
         6        16        15        14     9      180.000000        0.376002         4    ;  uncertainty k = 0.218599
         6        16        15        24     9        0.000000        5.758950         1    ;  uncertainty k = 1.531636
         6        16        15        24     9      180.000000       10.846315         2    ;  uncertainty k = 0.608797
         6        16        15        24     9        0.000000        1.244464         3    ;  uncertainty k = 0.560007
         6        16        15        24     9      180.000000       -0.235958         4    ;  uncertainty k = 0.089809
         7         4         2        18     9        0.000000       -0.004083         1    ;  uncertainty k = 0.287832
         7         4         2        18     9      180.000000        8.264396         2    ;  uncertainty k = 0.315716
         7         4         2        18     9        0.000000        1.154906         3    ;  uncertainty k = 0.363396
         7         4         2        18     9      180.000000        1.760989         4    ;  uncertainty k = 0.133898
         7         5         3        19     9        0.000000       -0.004083         1    ;  uncertainty k = 0.287832
         7         5         3        19     9      180.000000        8.264396         2    ;  uncertainty k = 0.315716
         7         5         3        19     9        0.000000        1.154906         3    ;  uncertainty k = 0.363396
         7         5         3        19     9      180.000000        1.760989         4    ;  uncertainty k = 0.133898
         7        27        28        29     9        0.000000        0.707836         1    ;  uncertainty k = 0.230900
         7        27        28        29     9      180.000000       -1.440835         2    ;  uncertainty k = 0.116133
         7        27        28        29     9        0.000000        0.934941         3    ;  uncertainty k = 0.055981
         7        27        28        29     9      180.000000        0.291613         4    ;  uncertainty k = 0.061323
         7        27        28        30     9        0.000000        0.707836         1    ;  uncertainty k = 0.230900
         7        27        28        30     9      180.000000       -1.440835         2    ;  uncertainty k = 0.116133
         7        27        28        30     9        0.000000        0.934941         3    ;  uncertainty k = 0.055981
         7        27        28        30     9      180.000000        0.291613         4    ;  uncertainty k = 0.061323
         7        27        28        31     9        0.000000        0.707836         1    ;  uncertainty k = 0.230900
         7        27        28        31     9      180.000000       -1.440835         2    ;  uncertainty k = 0.116133
         7        27        28        31     9        0.000000        0.934941         3    ;  uncertainty k = 0.055981
         7        27        28        31     9      180.000000        0.291613         4    ;  uncertainty k = 0.061323
         8         6        16        15     9        0.000000       -0.829308         1    ;  uncertainty k = 0.463826
         8         6        16        15     9      180.000000       23.938313         2    ;  uncertainty k = 0.186922
         8         6        16        15     9        0.000000        1.717744         3    ;  uncertainty k = 0.279767
         8         6        16        15     9      180.000000        1.440226         4    ;  uncertainty k = 0.456575
         8         9        12        10     9        0.000000        0.027998         1    ;  uncertainty k = 0.257688
         8         9        12        10     9      180.000000       11.736163         2    ;  uncertainty k = 0.315742
         8         9        12        10     9        0.000000       -0.588865         3    ;  uncertainty k = 0.464927
         8         9        12        10     9      180.000000        0.912796         4    ;  uncertainty k = 0.253978
         8         9        12        23     9        0.000000       -0.053620         1    ;  uncertainty k = 0.422279
         8         9        12        23     9      180.000000        7.478274         2    ;  uncertainty k = 0.675023
         8         9        12        23     9        0.000000        1.274777         3    ;  uncertainty k = 0.313870
         8         9        12        23     9      180.000000        1.350247         4    ;  uncertainty k = 0.143602
         8         9        14        15     9        0.000000       -1.367062         1    ;  uncertainty k = 0.828765
         8         9        14        15     9      180.000000        2.473751         2    ;  uncertainty k = 0.733270
         8         9        14        15     9        0.000000       -0.286933         3    ;  uncertainty k = 0.498446
         8         9        14        15     9      180.000000        0.563222         4    ;  uncertainty k = 0.242019
         8         9        14        17     9        0.000000       -2.139971         1    ;  uncertainty k = 0.820798
         8         9        14        17     9      180.000000        5.146431         2    ;  uncertainty k = 0.509591
         8         9        14        17     9        0.000000        0.250019         3    ;  uncertainty k = 0.253219
         8         9        14        17     9      180.000000       -0.131287         4    ;  uncertainty k = 0.215397
         8        13        11        10     9        0.000000       -0.000593         1    ;  uncertainty k = 0.197038
         8        13        11        10     9      180.000000       16.183699         2    ;  uncertainty k = 0.242348
         8        13        11        10     9        0.000000       -0.509524         3    ;  uncertainty k = 0.475120
         8        13        11        10     9      180.000000        0.669964         4    ;  uncertainty k = 0.331411
         8        13        11        22     9        0.000000        0.102882         1    ;  uncertainty k = 0.152360
         8        13        11        22     9      180.000000        9.912075         2    ;  uncertainty k = 0.367891
         8        13        11        22     9        0.000000        1.439085         3    ;  uncertainty k = 0.139023
         8        13        11        22     9      180.000000        1.661239         4    ;  uncertainty k = 0.107607
         9         8         6        16     9        0.000000        1.584944         1    ;  uncertainty k = 2.113165
         9         8         6        16     9      180.000000        3.936589         2    ;  uncertainty k = 1.582588
         9         8         6        16     9        0.000000        1.409244         3    ;  uncertainty k = 0.532942
         9         8         6        16     9      180.000000        0.417216         4    ;  uncertainty k = 0.485420
         9         8        13        11     9        0.000000        0.278281         1    ;  uncertainty k = 0.373812
         9         8        13        11     9      180.000000        8.808189         2    ;  uncertainty k = 0.403924
         9         8        13        11     9        0.000000       -0.368205         3    ;  uncertainty k = 0.122783
         9         8        13        11     9      180.000000        1.077393         4    ;  uncertainty k = 0.190556
         9         8        13        25     9        0.000000       -0.074949         1    ;  uncertainty k = 0.245963
         9         8        13        25     9      180.000000        5.557294         2    ;  uncertainty k = 0.473926
         9         8        13        25     9        0.000000        1.400365         3    ;  uncertainty k = 0.365763
         9         8        13        25     9      180.000000        1.227502         4    ;  uncertainty k = 0.115524
         9        12        10        11     9        0.000000       -0.097981         1    ;  uncertainty k = 0.312098
         9        12        10        11     9      180.000000       14.279931         2    ;  uncertainty k = 0.322920
         9        12        10        11     9        0.000000       -0.670791         3    ;  uncertainty k = 0.607942
         9        12        10        11     9      180.000000        0.821009         4    ;  uncertainty k = 0.389825
         9        12        10        26     9        0.000000        0.219309         1    ;  uncertainty k = 0.221785
         9        12        10        26     9      180.000000        9.205860         2    ;  uncertainty k = 0.186128
         9        12        10        26     9        0.000000        1.552893         3    ;  uncertainty k = 0.265951
         9        12        10        26     9      180.000000        1.805631         4    ;  uncertainty k = 0.119855
         9        14        15        16     9        0.000000        0.198225         1    ;  uncertainty k = 1.671218
         9        14        15        16     9      180.000000        4.044210         2    ;  uncertainty k = 1.207216
         9        14        15        16     9        0.000000        0.668974         3    ;  uncertainty k = 0.195984
         9        14        15        16     9      180.000000        0.485456         4    ;  uncertainty k = 0.383727
         9        14        15        24     9        0.000000        2.539167         1    ;  uncertainty k = 2.283135
         9        14        15        24     9      180.000000        5.210297         2    ;  uncertainty k = 0.856684
         9        14        15        24     9        0.000000        1.746601         3    ;  uncertainty k = 0.127222
         9        14        15        24     9      180.000000       -0.016431         4    ;  uncertainty k = 0.110132
        10        11        13        25     9        0.000000        0.083995         1    ;  uncertainty k = 0.220180
        10        11        13        25     9      180.000000        9.080667         2    ;  uncertainty k = 0.282909
        10        11        13        25     9        0.000000        1.434938         3    ;  uncertainty k = 0.317599
        10        11        13        25     9      180.000000        1.975946         4    ;  uncertainty k = 0.227539
        10        12         9        14     9        0.000000        0.044609         1    ;  uncertainty k = 0.367976
        10        12         9        14     9      180.000000        9.264699         2    ;  uncertainty k = 0.763341
        10        12         9        14     9        0.000000        1.197205         3    ;  uncertainty k = 0.229136
        10        12         9        14     9      180.000000        1.793137         4    ;  uncertainty k = 0.308067
        11        10        12        23     9        0.000000        0.143047         1    ;  uncertainty k = 0.096638
        11        10        12        23     9      180.000000        8.536629         2    ;  uncertainty k = 0.391042
        11        10        12        23     9        0.000000        1.370233         3    ;  uncertainty k = 0.287205
        11        10        12        23     9      180.000000        1.812795         4    ;  uncertainty k = 0.179750
        12         9         8        13     9        0.000000       -0.115933         1    ;  uncertainty k = 0.288595
        12         9         8        13     9      180.000000        7.038016         2    ;  uncertainty k = 0.789858
        12         9         8        13     9        0.000000        0.170187         3    ;  uncertainty k = 0.399467
        12         9         8        13     9      180.000000        1.344344         4    ;  uncertainty k = 0.306578
        12         9        14        15     9        0.000000       -0.016796         1    ;  uncertainty k = 0.905530
        12         9        14        15     9      180.000000        2.979968         2    ;  uncertainty k = 0.608570
        12         9        14        15     9        0.000000        0.632539         3    ;  uncertainty k = 0.487227
        12         9        14        15     9      180.000000        0.539347         4    ;  uncertainty k = 0.234167
        12         9        14        17     9        0.000000       -1.688195         1    ;  uncertainty k = 0.653457
        12         9        14        17     9      180.000000        5.358564         2    ;  uncertainty k = 0.685642
        12         9        14        17     9        0.000000        0.587120         3    ;  uncertainty k = 0.294819
        12         9        14        17     9      180.000000       -0.195627         4    ;  uncertainty k = 0.136122
        12        10        11        13     9        0.000000       -0.029396         1    ;  uncertainty k = 0.214165
        12        10        11        13     9      180.000000       12.578387         2    ;  uncertainty k = 0.442285
        12        10        11        13     9        0.000000       -0.899003         3    ;  uncertainty k = 0.583296
        12        10        11        13     9      180.000000        0.663347         4    ;  uncertainty k = 0.288190
        12        10        11        22     9        0.000000        0.011357         1    ;  uncertainty k = 0.319234
        12        10        11        22     9      180.000000        6.835020         2    ;  uncertainty k = 0.248300
        12        10        11        22     9        0.000000        1.435876         3    ;  uncertainty k = 0.212015
        12        10        11        22     9      180.000000        1.587834         4    ;  uncertainty k = 0.054963
        13         8         6        16     9        0.000000        1.297950         1    ;  uncertainty k = 1.604182
        13         8         6        16     9      180.000000        5.494291         2    ;  uncertainty k = 1.055298
        13         8         6        16     9        0.000000        2.253740         3    ;  uncertainty k = 0.378231
        13         8         6        16     9      180.000000        0.368607         4    ;  uncertainty k = 0.415462
        13         8         9        14     9        0.000000        0.115923         1    ;  uncertainty k = 0.411855
        13         8         9        14     9      180.000000        6.545745         2    ;  uncertainty k = 0.867683
        13         8         9        14     9        0.000000        0.913220         3    ;  uncertainty k = 0.207186
        13         8         9        14     9      180.000000        1.428426         4    ;  uncertainty k = 0.176106
        13        11        10        26     9        0.000000        0.061345         1    ;  uncertainty k = 0.366563
        13        11        10        26     9      180.000000        6.881052         2    ;  uncertainty k = 0.442243
        13        11        10        26     9        0.000000        1.487828         3    ;  uncertainty k = 0.235120
        13        11        10        26     9      180.000000        1.625651         4    ;  uncertainty k = 0.074964
        14         9        12        23     9        0.000000       -0.424195         1    ;  uncertainty k = 0.669709
        14         9        12        23     9      180.000000        7.749834         2    ;  uncertainty k = 0.309731
        14         9        12        23     9        0.000000        0.987633         3    ;  uncertainty k = 0.221527
        14         9        12        23     9      180.000000        1.187166         4    ;  uncertainty k = 0.106459
        16         1         2        18     9        0.000000       -0.325991         1    ;  uncertainty k = 0.149286
        16         1         2        18     9      180.000000        7.204689         2    ;  uncertainty k = 0.221688
        16         1         2        18     9        0.000000        0.725874         3    ;  uncertainty k = 0.175720
        16         1         2        18     9      180.000000        1.045185         4    ;  uncertainty k = 0.203830
        16         1         3        19     9        0.000000       -0.325991         1    ;  uncertainty k = 0.149286
        16         1         3        19     9      180.000000        7.204689         2    ;  uncertainty k = 0.221688
        16         1         3        19     9        0.000000        0.725874         3    ;  uncertainty k = 0.175720
        16         1         3        19     9      180.000000        1.045185         4    ;  uncertainty k = 0.203830
        16        15        14        17     9        0.000000        0.178179         1    ;  uncertainty k = 1.299272
        16        15        14        17     9      180.000000       11.105308         2    ;  uncertainty k = 0.468705
        16        15        14        17     9        0.000000        1.323604         3    ;  uncertainty k = 0.333439
        16        15        14        17     9      180.000000       -0.479268         4    ;  uncertainty k = 0.393953
        17        14        15        24     9        0.000000        1.507941         1    ;  uncertainty k = 2.538782
        17        14        15        24     9      180.000000        9.086730         2    ;  uncertainty k = 0.611573
        17        14        15        24     9        0.000000        0.750425         3    ;  uncertainty k = 0.512639
        17        14        15        24     9      180.000000       -0.105072         4    ;  uncertainty k = 0.057979
        18         2         4        20     9        0.000000       -0.078758         1    ;  uncertainty k = 0.199499
        18         2         4        20     9      180.000000        7.832198         2    ;  uncertainty k = 0.445256
        18         2         4        20     9        0.000000       -0.352533         3    ;  uncertainty k = 0.180059
        18         2         4        20     9      180.000000        0.277762         4    ;  uncertainty k = 0.192905
        19         3         5        21     9        0.000000       -0.078758         1    ;  uncertainty k = 0.199499
        19         3         5        21     9      180.000000        7.832198         2    ;  uncertainty k = 0.445256
        19         3         5        21     9        0.000000       -0.352533         3    ;  uncertainty k = 0.180059
        19         3         5        21     9      180.000000        0.277762         4    ;  uncertainty k = 0.192905
        20         4         7        27     9        0.000000       -0.081268         1    ;  uncertainty k = 0.115771
        20         4         7        27     9      180.000000        8.458427         2    ;  uncertainty k = 0.249376
        20         4         7        27     9        0.000000        0.659221         3    ;  uncertainty k = 0.127040
        20         4         7        27     9      180.000000        0.911484         4    ;  uncertainty k = 0.216446
        21         5         7        27     9        0.000000       -0.081268         1    ;  uncertainty k = 0.115771
        21         5         7        27     9      180.000000        8.458427         2    ;  uncertainty k = 0.249376
        21         5         7        27     9        0.000000        0.659221         3    ;  uncertainty k = 0.127040
        21         5         7        27     9      180.000000        0.911484         4    ;  uncertainty k = 0.216446
        22        11        10        26     9        0.000000       -0.060835         1    ;  uncertainty k = 0.279785
        22        11        10        26     9      180.000000        7.355343         2    ;  uncertainty k = 0.516032
        22        11        10        26     9        0.000000       -0.303531         3    ;  uncertainty k = 0.304832
        22        11        10        26     9      180.000000        0.102536         4    ;  uncertainty k = 0.162502
        22        11        13        25     9        0.000000       -0.138613         1    ;  uncertainty k = 0.278041
        22        11        13        25     9      180.000000        8.538969         2    ;  uncertainty k = 0.344921
        22        11        13        25     9        0.000000       -0.245479         3    ;  uncertainty k = 0.250256
        22        11        13        25     9      180.000000        0.240372         4    ;  uncertainty k = 0.216345
        23        12        10        26     9        0.000000       -0.129080         1    ;  uncertainty k = 0.198211
        23        12        10        26     9      180.000000        8.044443         2    ;  uncertainty k = 0.562924
        23        12        10        26     9        0.000000       -0.255409         3    ;  uncertainty k = 0.249824
        23        12        10        26     9      180.000000        0.185290         4    ;  uncertainty k = 0.177453

[ dihedrals ] ; impropers
;       ai        aj        ak        al funct           phase               k        pn
         1         2         3        16     4      180.000000        7.186157         2    ;  uncertainty k = 0.243887
         1         3        16         2     4      180.000000        7.186157         2    ;  uncertainty k = 0.243887
         1        16         2         3     4      180.000000        7.186157         2    ;  uncertainty k = 0.243887
         2         1         4        18     4      180.000000        4.432564         2    ;  uncertainty k = 0.122838
         2         4        18         1     4      180.000000        4.432564         2    ;  uncertainty k = 0.122838
         2        18         1         4     4      180.000000        4.432564         2    ;  uncertainty k = 0.122838
         3         1         5        19     4      180.000000        4.432564         2    ;  uncertainty k = 0.122838
         3         5        19         1     4      180.000000        4.432564         2    ;  uncertainty k = 0.122838
         3        19         1         5     4      180.000000        4.432564         2    ;  uncertainty k = 0.122838
         4         2         7        20     4      180.000000        1.711268         2    ;  uncertainty k = 0.379899
         4         7        20         2     4      180.000000        1.711268         2    ;  uncertainty k = 0.379899
         4        20         2         7     4      180.000000        1.711268         2    ;  uncertainty k = 0.379899
         5         3         7        21     4      180.000000        1.711268         2    ;  uncertainty k = 0.379899
         5         7        21         3     4      180.000000        1.711268         2    ;  uncertainty k = 0.379899
         5        21         3         7     4      180.000000        1.711268         2    ;  uncertainty k = 0.379899
         7         4         5        27     4      180.000000       21.019624         2    ;  uncertainty k = 0.071166
         7         5        27         4     4      180.000000       21.019624         2    ;  uncertainty k = 0.071166
         7        27         4         5     4      180.000000       21.019624         2    ;  uncertainty k = 0.071166
         8         6         9        13     4      180.000000       22.156717         2    ;  uncertainty k = 0.038741
         8         9        13         6     4      180.000000       22.156717         2    ;  uncertainty k = 0.038741
         8        13         6         9     4      180.000000       22.156717         2    ;  uncertainty k = 0.038741
         9         8        12        14     4      180.000000        4.750900         2    ;  uncertainty k = 0.360538
         9        12        14         8     4      180.000000        4.750900         2    ;  uncertainty k = 0.360538
         9        14         8        12     4      180.000000        4.750900         2    ;  uncertainty k = 0.360538
        10        11        12        26     4      180.000000        3.960470         2    ;  uncertainty k = 0.207464
        10        12        26        11     4      180.000000        3.960470         2    ;  uncertainty k = 0.207464
        10        26        11        12     4      180.000000        3.960470         2    ;  uncertainty k = 0.207464
        11        10        13        22     4      180.000000        5.682181         2    ;  uncertainty k = 0.071831
        11        13        22        10     4      180.000000        5.682181         2    ;  uncertainty k = 0.071831
        11        22        10        13     4      180.000000        5.682181         2    ;  uncertainty k = 0.071831
        12         9        10        23     4      180.000000        5.880983         2    ;  uncertainty k = 0.112644
        12        10        23         9     4      180.000000        5.880983         2    ;  uncertainty k = 0.112644
        12        23         9        10     4      180.000000        5.880983         2    ;  uncertainty k = 0.112644
        13         8        11        25     4      180.000000        2.555309         2    ;  uncertainty k = 0.346872
        13        11        25         8     4      180.000000        2.555309         2    ;  uncertainty k = 0.346872
        13        25         8        11     4      180.000000        2.555309         2    ;  uncertainty k = 0.346872
        14         9        15        17     4      180.000000       50.555714         2    ;  uncertainty k = 0.008014
        14        15        17         9     4      180.000000       50.555714         2    ;  uncertainty k = 0.008014
        14        17         9        15     4      180.000000       50.555714         2    ;  uncertainty k = 0.008014
        15        14        16        24     4      180.000000        0.644378         2    ;  uncertainty k = 0.548249
        15        16        24        14     4      180.000000        0.644378         2    ;  uncertainty k = 0.548249
        15        24        14        16     4      180.000000        0.644378         2    ;  uncertainty k = 0.548249
        16         1         6        15     4      180.000000       30.452487         2    ;  uncertainty k = 0.034052
        16         6        15         1     4      180.000000       30.452487         2    ;  uncertainty k = 0.034052
        16        15         1         6     4      180.000000       30.452487         2    ;  uncertainty k = 0.034052

[ pairs ]
;       ai        aj funct
         1         7     1
         1         8     1
         1        14     1
         1        20     1
         1        21     1
         1        24     1
         2         5     1
         2         6     1
         2        15     1
         2        19     1
         2        27     1
         3         4     1
         3         6     1
         3        15     1
         3        18     1
         3        27     1
         4        16     1
         4        21     1
         4        28     1
         5        16     1
         5        20     1
         5        28     1
         6        11     1
         6        12     1
         6        14     1
         6        24     1
         6        25     1
         7        18     1
         7        19     1
         7        29     1
         7        30     1
         7        31     1
         8        10     1
         8        15     1
         8        17     1
         8        22     1
         8        23     1
         9        11     1
         9        16     1
         9        24     1
         9        25     1
         9        26     1
        10        14     1
        10        25     1
        11        23     1
        12        13     1
        12        15     1
        12        17     1
        12        22     1
        13        14     1
        13        16     1
        13        26     1
        14        23     1
        16        17     1
        16        18     1
        16        19     1
        17        24     1
        18        20     1
        19        21     1
        20        27     1
        21        27     1
        22        25     1
        22        26     1
        23        26     1
