; ITP file created by ByteFF-joint-25, 2026-02-17 09:49:36.144920

[ atomtypes ]
;name           bonded.type        at.num        mass        charge   ptype           sigma         epsilon
 c0bf                                   6      0.0000       0.00000       A     3.31509e-01     4.13389e-01    ;  uncertainty sigma = 0.000003, epsilon = 0.000662
 c1bf                                   6      0.0000       0.00000       A     3.31532e-01     4.13181e-01    ;  uncertainty sigma = 0.000010, epsilon = 0.000993
 c2bf                                   6      0.0000       0.00000       A     3.31523e-01     4.13317e-01    ;  uncertainty sigma = 0.000004, epsilon = 0.000533
 c3bf                                   6      0.0000       0.00000       A     3.31547e-01     4.13871e-01    ;  uncertainty sigma = 0.000010, epsilon = 0.000770
 n4bf                                   7      0.0000       0.00000       A     3.38420e-01     3.93559e-01    ;  uncertainty sigma = 0.000016, epsilon = 0.001456
 c5bf                                   6      0.0000       0.00000       A     3.31508e-01     4.13375e-01    ;  uncertainty sigma = 0.000006, epsilon = 0.000570
 c6bf                                   6      0.0000       0.00000       A     3.31514e-01     4.13380e-01    ;  uncertainty sigma = 0.000006, epsilon = 0.000759
 c7bf                                   6      0.0000       0.00000       A     3.31538e-01     4.13505e-01    ;  uncertainty sigma = 0.000008, epsilon = 0.001165
 n8bf                                   7      0.0000       0.00000       A     3.26867e-01     4.92512e-01    ;  uncertainty sigma = 0.000088, epsilon = 0.003430
 o9bf                                   8      0.0000       0.00000       A     3.04814e-01     6.11899e-01    ;  uncertainty sigma = 0.000014, epsilon = 0.001624
 c10bf                                  6      0.0000       0.00000       A     3.31512e-01     4.12851e-01    ;  uncertainty sigma = 0.000012, epsilon = 0.001342
 c11bf                                  6      0.0000       0.00000       A     3.31501e-01     4.12880e-01    ;  uncertainty sigma = 0.000017, epsilon = 0.001089
 c12bf                                  6      0.0000       0.00000       A     3.31519e-01     4.13322e-01    ;  uncertainty sigma = 0.000004, epsilon = 0.000632
 c13bf                                  6      0.0000       0.00000       A     3.31525e-01     4.13356e-01    ;  uncertainty sigma = 0.000006, epsilon = 0.000529
 c14bf                                  6      0.0000       0.00000       A     3.31518e-01     4.13484e-01    ;  uncertainty sigma = 0.000012, epsilon = 0.001054
 c15bf                                  6      0.0000       0.00000       A     3.31525e-01     4.13356e-01    ;  uncertainty sigma = 0.000006, epsilon = 0.000529
 c16bf                                  6      0.0000       0.00000       A     3.31519e-01     4.13322e-01    ;  uncertainty sigma = 0.000004, epsilon = 0.000632
 f17bf                                  9      0.0000       0.00000       A     3.03425e-01     3.47959e-01    ;  uncertainty sigma = 0.000016, epsilon = 0.000686
 c18bf                                  6      0.0000       0.00000       A     3.39780e-01     4.51234e-01    ;  uncertainty sigma = 0.000015, epsilon = 0.000787
 c19bf                                  6      0.0000       0.00000       A     3.39771e-01     4.50889e-01    ;  uncertainty sigma = 0.000007, epsilon = 0.000480
 c20bf                                  6      0.0000       0.00000       A     3.39771e-01     4.50889e-01    ;  uncertainty sigma = 0.000007, epsilon = 0.000480
 c21bf                                  6      0.0000       0.00000       A     3.39771e-01     4.50889e-01    ;  uncertainty sigma = 0.000007, epsilon = 0.000480
 h22bf                                  1      0.0000       0.00000       A     2.62558e-01     6.69933e-02    ;  uncertainty sigma = 0.000012, epsilon = 0.000629
 h23bf                                  1      0.0000       0.00000       A     2.62557e-01     6.70626e-02    ;  uncertainty sigma = 0.000009, epsilon = 0.000557
 h24bf                                  1      0.0000       0.00000       A     2.62584e-01     6.68454e-02    ;  uncertainty sigma = 0.000019, epsilon = 0.000520
 h25bf                                  1      0.0000       0.00000       A     1.10651e-01     4.13762e-02    ;  uncertainty sigma = 0.000058, epsilon = 0.001253
 h26bf                                  1      0.0000       0.00000       A     2.62567e-01     6.70632e-02    ;  uncertainty sigma = 0.000011, epsilon = 0.000557
 h27bf                                  1      0.0000       0.00000       A     2.62552e-01     6.70955e-02    ;  uncertainty sigma = 0.000011, epsilon = 0.000489
 h28bf                                  1      0.0000       0.00000       A     2.62552e-01     6.70955e-02    ;  uncertainty sigma = 0.000011, epsilon = 0.000489
 h29bf                                  1      0.0000       0.00000       A     2.62567e-01     6.70632e-02    ;  uncertainty sigma = 0.000011, epsilon = 0.000557
 h30bf                                  1      0.0000       0.00000       A     2.60023e-01     8.66593e-02    ;  uncertainty sigma = 0.000006, epsilon = 0.000286
 h31bf                                  1      0.0000       0.00000       A     2.60023e-01     8.66593e-02    ;  uncertainty sigma = 0.000006, epsilon = 0.000286
 h32bf                                  1      0.0000       0.00000       A     2.60023e-01     8.66593e-02    ;  uncertainty sigma = 0.000006, epsilon = 0.000286
 h33bf                                  1      0.0000       0.00000       A     2.60023e-01     8.66593e-02    ;  uncertainty sigma = 0.000006, epsilon = 0.000286
 h34bf                                  1      0.0000       0.00000       A     2.60023e-01     8.66593e-02    ;  uncertainty sigma = 0.000006, epsilon = 0.000286
 h35bf                                  1      0.0000       0.00000       A     2.60023e-01     8.66593e-02    ;  uncertainty sigma = 0.000006, epsilon = 0.000286
 h36bf                                  1      0.0000       0.00000       A     2.60023e-01     8.66593e-02    ;  uncertainty sigma = 0.000006, epsilon = 0.000286
 h37bf                                  1      0.0000       0.00000       A     2.60023e-01     8.66593e-02    ;  uncertainty sigma = 0.000006, epsilon = 0.000286
 h38bf                                  1      0.0000       0.00000       A     2.60023e-01     8.66593e-02    ;  uncertainty sigma = 0.000006, epsilon = 0.000286

[ moleculetype ]
;name             nrexcl
 MOL                   3

[ atoms ]
;       nr            type      resi   res      atom      cgnr      charge          mass ; qtot
         1            c0bf         1   UNL        c0         1    -0.10135       12.0110 ; qtot   -0.101
         2            c1bf         1   UNL        c1         2     0.17920       12.0110 ; qtot    0.078
         3            c2bf         1   UNL        c2         3    -0.12598       12.0110 ; qtot   -0.048
         4            c3bf         1   UNL        c3         4    -0.18212       12.0110 ; qtot   -0.230
         5            n4bf         1   UNL        n4         5    -0.62332       14.0070 ; qtot   -0.854
         6            c5bf         1   UNL        c5         6     0.10691       12.0110 ; qtot   -0.747
         7            c6bf         1   UNL        c6         7    -0.09763       12.0110 ; qtot   -0.844
         8            c7bf         1   UNL        c7         8     0.71928       12.0110 ; qtot   -0.125
         9            n8bf         1   UNL        n8         9    -0.50680       14.0070 ; qtot   -0.632
        10            o9bf         1   UNL        o9        10    -0.60449       15.9990 ; qtot   -1.236
        11           c10bf         1   UNL       c10        11     0.56635       12.0110 ; qtot   -0.670
        12           c11bf         1   UNL       c11        12    -0.15660       12.0110 ; qtot   -0.827
        13           c12bf         1   UNL       c12        13    -0.08323       12.0110 ; qtot   -0.910
        14           c13bf         1   UNL       c13        14    -0.13764       12.0110 ; qtot   -1.047
        15           c14bf         1   UNL       c14        15    -0.04675       12.0110 ; qtot   -1.094
        16           c15bf         1   UNL       c15        16    -0.13764       12.0110 ; qtot   -1.232
        17           c16bf         1   UNL       c16        17    -0.08323       12.0110 ; qtot   -1.315
        18           f17bf         1   UNL       f17        18    -0.13638       18.9980 ; qtot   -1.451
        19           c18bf         1   UNL       c18        19    -0.00216       12.0110 ; qtot   -1.454
        20           c19bf         1   UNL       c19        20    -0.08540       12.0110 ; qtot   -1.539
        21           c20bf         1   UNL       c20        21    -0.08540       12.0110 ; qtot   -1.624
        22           c21bf         1   UNL       c21        22    -0.08540       12.0110 ; qtot   -1.710
        23           h22bf         1   UNL       h22        23     0.15981        1.0080 ; qtot   -1.550
        24           h23bf         1   UNL       h23        24     0.15611        1.0080 ; qtot   -1.394
        25           h24bf         1   UNL       h24        25     0.17554        1.0080 ; qtot   -1.218
        26           h25bf         1   UNL       h25        26     0.33625        1.0080 ; qtot   -0.882
        27           h26bf         1   UNL       h26        27     0.14490        1.0080 ; qtot   -0.737
        28           h27bf         1   UNL       h27        28     0.13432        1.0080 ; qtot   -0.603
        29           h28bf         1   UNL       h28        29     0.13432        1.0080 ; qtot   -0.469
        30           h29bf         1   UNL       h29        30     0.14490        1.0080 ; qtot   -0.324
        31           h30bf         1   UNL       h30        31     0.03596        1.0080 ; qtot   -0.288
        32           h31bf         1   UNL       h31        32     0.03596        1.0080 ; qtot   -0.252
        33           h32bf         1   UNL       h32        33     0.03596        1.0080 ; qtot   -0.216
        34           h33bf         1   UNL       h33        34     0.03596        1.0080 ; qtot   -0.180
        35           h34bf         1   UNL       h34        35     0.03596        1.0080 ; qtot   -0.144
        36           h35bf         1   UNL       h35        36     0.03596        1.0080 ; qtot   -0.108
        37           h36bf         1   UNL       h36        37     0.03596        1.0080 ; qtot   -0.072
        38           h37bf         1   UNL       h37        38     0.03596        1.0080 ; qtot   -0.036
        39           h38bf         1   UNL       h38        39     0.03595        1.0080 ; qtot    0.000

[ bonds ]
;       ai        aj funct               r               k
         1         2     1        0.140964   350832.205029    ;  uncertainty r = 0.000032, k = 4.629232
         1         3     1        0.138302   386095.505566    ;  uncertainty r = 0.000059, k = 4.599888
         1        23     1        0.108708   336704.616455    ;  uncertainty r = 0.000019, k = 1.942434
         2         4     1        0.141709   385237.969434    ;  uncertainty r = 0.000054, k = 10.311958
         2         5     1        0.138675   292907.452393    ;  uncertainty r = 0.000100, k = 22.573795
         3         6     1        0.140315   344554.851563    ;  uncertainty r = 0.000060, k = 7.146609
         3        24     1        0.108763   336320.308496    ;  uncertainty r = 0.000023, k = 0.938600
         4         7     1        0.139898   369180.720264    ;  uncertainty r = 0.000058, k = 4.441355
         4         8     1        0.146536   264613.892969    ;  uncertainty r = 0.000056, k = 18.208748
         5        11     1        0.129809   466468.756348    ;  uncertainty r = 0.000049, k = 7.919414
         6         7     1        0.138124   355371.196387    ;  uncertainty r = 0.000071, k = 8.089235
         6        18     1        0.135438   338566.118506    ;  uncertainty r = 0.000088, k = 4.182305
         7        25     1        0.108596   333125.437354    ;  uncertainty r = 0.000025, k = 2.230261
         8         9     1        0.140241   444690.658398    ;  uncertainty r = 0.000073, k = 13.079046
         8        10     1        0.123441   857064.411328    ;  uncertainty r = 0.000099, k = 12.610759
         9        11     1        0.139072   297625.382275    ;  uncertainty r = 0.000069, k = 20.066683
         9        26     1        0.102058   454589.659180    ;  uncertainty r = 0.000027, k = 4.102090
        11        12     1        0.147341   266941.958008    ;  uncertainty r = 0.000109, k = 11.708942
        12        13     1        0.139908   351425.508691    ;  uncertainty r = 0.000056, k = 3.943597
        12        17     1        0.139908   351425.508691    ;  uncertainty r = 0.000056, k = 3.943597
        13        14     1        0.139297   359548.863184    ;  uncertainty r = 0.000065, k = 2.962150
        13        27     1        0.108755   333214.536328    ;  uncertainty r = 0.000043, k = 1.293526
        14        15     1        0.139869   343806.307812    ;  uncertainty r = 0.000054, k = 4.080283
        14        28     1        0.108811   334622.295020    ;  uncertainty r = 0.000013, k = 1.212564
        15        16     1        0.139869   343806.307812    ;  uncertainty r = 0.000054, k = 4.080283
        15        19     1        0.151919   211304.385498    ;  uncertainty r = 0.000065, k = 3.283266
        16        17     1        0.139297   359548.812109    ;  uncertainty r = 0.000065, k = 2.962137
        16        29     1        0.108811   334622.295020    ;  uncertainty r = 0.000013, k = 1.212564
        17        30     1        0.108755   333214.536328    ;  uncertainty r = 0.000043, k = 1.293526
        19        20     1        0.153663   198494.779907    ;  uncertainty r = 0.000044, k = 2.852121
        19        21     1        0.153663   198494.779907    ;  uncertainty r = 0.000044, k = 2.852089
        19        22     1        0.153663   198494.779907    ;  uncertainty r = 0.000044, k = 2.852087
        20        31     1        0.109659   308688.670947    ;  uncertainty r = 0.000022, k = 1.388412
        20        32     1        0.109659   308688.670947    ;  uncertainty r = 0.000022, k = 1.388412
        20        33     1        0.109659   308688.670947    ;  uncertainty r = 0.000022, k = 1.388412
        21        34     1        0.109659   308688.696484    ;  uncertainty r = 0.000022, k = 1.388434
        21        35     1        0.109659   308688.696484    ;  uncertainty r = 0.000022, k = 1.388434
        21        36     1        0.109659   308688.696484    ;  uncertainty r = 0.000022, k = 1.388434
        22        37     1        0.109659   308688.696484    ;  uncertainty r = 0.000022, k = 1.388434
        22        38     1        0.109659   308688.696484    ;  uncertainty r = 0.000022, k = 1.388434
        22        39     1        0.109659   308688.696484    ;  uncertainty r = 0.000022, k = 1.388434

[ angles ]
;       ai        aj        ak funct           theta             cth
         1         2         4     1      119.134995      405.934571    ;  uncertainty theta = 0.003584, k = 0.232361
         1         2         5     1      119.959961      511.287405    ;  uncertainty theta = 0.010093, k = 0.072566
         1         3         6     1      119.123047      505.026663    ;  uncertainty theta = 0.003003, k = 0.103093
         1         3        24     1      120.849144      280.086036    ;  uncertainty theta = 0.001540, k = 0.061482
         2         1         3     1      119.036095      531.350028    ;  uncertainty theta = 0.002742, k = 0.145844
         2         1        23     1      120.508751      271.483126    ;  uncertainty theta = 0.003274, k = 0.096144
         2         4         7     1      121.777733      434.510277    ;  uncertainty theta = 0.001655, k = 0.211458
         2         4         8     1      117.297508      491.962516    ;  uncertainty theta = 0.006380, k = 0.238428
         2         5        11     1      115.240494      416.803867    ;  uncertainty theta = 0.006032, k = 0.412033
         3         1        23     1      121.081863      277.905199    ;  uncertainty theta = 0.001912, k = 0.023135
         3         6         7     1      124.230835      391.108491    ;  uncertainty theta = 0.005452, k = 0.270460
         3         6        18     1      118.443443      514.743533    ;  uncertainty theta = 0.002026, k = 0.040363
         4         2         5     1      123.497696      569.871194    ;  uncertainty theta = 0.006306, k = 0.143327
         4         7         6     1      118.287453      472.119161    ;  uncertainty theta = 0.002924, k = 0.132691
         4         7        25     1      120.828979      247.606536    ;  uncertainty theta = 0.006275, k = 0.079914
         4         8         9     1      108.865517      389.724125    ;  uncertainty theta = 0.007726, k = 0.270666
         4         8        10     1      128.088593      510.903263    ;  uncertainty theta = 0.002915, k = 0.145050
         5        11         9     1      123.678001      679.251166    ;  uncertainty theta = 0.005921, k = 0.135841
         5        11        12     1      122.676720      446.759790    ;  uncertainty theta = 0.003665, k = 0.151797
         6         3        24     1      120.507347      283.187997    ;  uncertainty theta = 0.002009, k = 0.088221
         6         7        25     1      121.686180      281.539576    ;  uncertainty theta = 0.002737, k = 0.087293
         7         4         8     1      117.958511      397.006702    ;  uncertainty theta = 0.003688, k = 0.159108
         7         6        18     1      118.829163      496.180609    ;  uncertainty theta = 0.001386, k = 0.097184
         8         9        11     1      121.146103      496.022693    ;  uncertainty theta = 0.003149, k = 0.185690
         8         9        26     1      115.307518      352.933705    ;  uncertainty theta = 0.006787, k = 0.132391
         9         8        10     1      124.920670      821.839978    ;  uncertainty theta = 0.002935, k = 0.080730
         9        11        12     1      116.651688      515.746791    ;  uncertainty theta = 0.005062, k = 0.242782
        11         9        26     1      116.804947      331.084697    ;  uncertainty theta = 0.006464, k = 0.239703
        11        12        13     1      118.079147      400.850739    ;  uncertainty theta = 0.002100, k = 0.116795
        11        12        17     1      118.079147      400.850739    ;  uncertainty theta = 0.002100, k = 0.116795
        12        13        14     1      122.035744      513.331459    ;  uncertainty theta = 0.001990, k = 0.057883
        12        13        27     1      118.402016      267.070569    ;  uncertainty theta = 0.002734, k = 0.048301
        12        17        16     1      122.035744      513.331459    ;  uncertainty theta = 0.001990, k = 0.057883
        12        17        30     1      118.402016      267.070569    ;  uncertainty theta = 0.002734, k = 0.048301
        13        12        17     1      120.579727      423.941393    ;  uncertainty theta = 0.002001, k = 0.257730
        13        14        15     1      122.231003      513.085122    ;  uncertainty theta = 0.002834, k = 0.098825
        13        14        28     1      119.231033      288.269275    ;  uncertainty theta = 0.001993, k = 0.033964
        14        13        27     1      120.277611      285.397723    ;  uncertainty theta = 0.002978, k = 0.062273
        14        15        16     1      119.161209      449.659656    ;  uncertainty theta = 0.002723, k = 0.202547
        14        15        19     1      120.090576      385.661075    ;  uncertainty theta = 0.005580, k = 0.133477
        15        14        28     1      118.313156      265.499877    ;  uncertainty theta = 0.002424, k = 0.072706
        15        16        17     1      122.231003      513.085122    ;  uncertainty theta = 0.002834, k = 0.098825
        15        16        29     1      118.313156      265.499877    ;  uncertainty theta = 0.002424, k = 0.072706
        15        19        20     1      108.234962      554.059765    ;  uncertainty theta = 0.002546, k = 0.092376
        15        19        21     1      108.234962      554.059701    ;  uncertainty theta = 0.002546, k = 0.092376
        15        19        22     1      108.234962      554.059701    ;  uncertainty theta = 0.002546, k = 0.092376
        16        15        19     1      120.090576      385.661075    ;  uncertainty theta = 0.005580, k = 0.133477
        16        17        30     1      120.277611      285.397723    ;  uncertainty theta = 0.002978, k = 0.062273
        17        16        29     1      119.231033      288.269275    ;  uncertainty theta = 0.001993, k = 0.033964
        19        20        31     1      107.721458      383.784767    ;  uncertainty theta = 0.000844, k = 0.039125
        19        20        32     1      107.721458      383.784767    ;  uncertainty theta = 0.000844, k = 0.039125
        19        20        33     1      107.721458      383.784767    ;  uncertainty theta = 0.000844, k = 0.039125
        19        21        34     1      107.721458      383.784767    ;  uncertainty theta = 0.000844, k = 0.039125
        19        21        35     1      107.721458      383.784767    ;  uncertainty theta = 0.000844, k = 0.039125
        19        21        36     1      107.721458      383.784767    ;  uncertainty theta = 0.000844, k = 0.039125
        19        22        37     1      107.721458      383.784767    ;  uncertainty theta = 0.000844, k = 0.039125
        19        22        38     1      107.721458      383.784767    ;  uncertainty theta = 0.000844, k = 0.039125
        19        22        39     1      107.721458      383.784767    ;  uncertainty theta = 0.000844, k = 0.039125
        20        19        21     1      108.422646      576.262749    ;  uncertainty theta = 0.002845, k = 0.059157
        20        19        22     1      108.422646      576.262749    ;  uncertainty theta = 0.002845, k = 0.059157
        21        19        22     1      108.422646      576.262749    ;  uncertainty theta = 0.002845, k = 0.059157
        31        20        32     1      105.345741      318.190691    ;  uncertainty theta = 0.000933, k = 0.011600
        31        20        33     1      105.345741      318.190691    ;  uncertainty theta = 0.000933, k = 0.011600
        32        20        33     1      105.345741      318.190691    ;  uncertainty theta = 0.000933, k = 0.011600
        34        21        35     1      105.345726      318.190659    ;  uncertainty theta = 0.000933, k = 0.011600
        34        21        36     1      105.345726      318.190659    ;  uncertainty theta = 0.000933, k = 0.011600
        35        21        36     1      105.345726      318.190659    ;  uncertainty theta = 0.000933, k = 0.011600
        37        22        38     1      105.345726      318.190659    ;  uncertainty theta = 0.000933, k = 0.011600
        37        22        39     1      105.345726      318.190659    ;  uncertainty theta = 0.000933, k = 0.011600
        38        22        39     1      105.345726      318.190659    ;  uncertainty theta = 0.000933, k = 0.011600

[ dihedrals ] ; propers for gromacs 4.5 or higher, use funct 9
;       ai        aj        ak        al funct           phase               k        pn
         1         2         4         7     9        0.000000       -0.184790         1    ;  uncertainty k = 0.321486
         1         2         4         7     9      180.000000        7.012765         2    ;  uncertainty k = 0.723269
         1         2         4         7     9        0.000000        0.265657         3    ;  uncertainty k = 0.306559
         1         2         4         7     9      180.000000        1.386198         4    ;  uncertainty k = 0.296939
         1         2         4         8     9        0.000000        0.070955         1    ;  uncertainty k = 0.503067
         1         2         4         8     9      180.000000        6.603892         2    ;  uncertainty k = 0.839765
         1         2         4         8     9        0.000000        0.947610         3    ;  uncertainty k = 0.295938
         1         2         4         8     9      180.000000        1.416061         4    ;  uncertainty k = 0.193480
         1         2         5        11     9        0.000000        1.403110         1    ;  uncertainty k = 1.780173
         1         2         5        11     9      180.000000        5.574977         2    ;  uncertainty k = 0.974761
         1         2         5        11     9        0.000000        2.281849         3    ;  uncertainty k = 0.367388
         1         2         5        11     9      180.000000        0.378300         4    ;  uncertainty k = 0.419358
         1         3         6         7     9        0.000000       -0.037320         1    ;  uncertainty k = 0.446590
         1         3         6         7     9      180.000000        7.190768         2    ;  uncertainty k = 0.575230
         1         3         6         7     9        0.000000        0.100290         3    ;  uncertainty k = 0.435788
         1         3         6         7     9      180.000000        1.245216         4    ;  uncertainty k = 0.285117
         1         3         6        18     9        0.000000       -0.122892         1    ;  uncertainty k = 0.197615
         1         3         6        18     9      180.000000       10.863912         2    ;  uncertainty k = 0.566594
         1         3         6        18     9        0.000000        1.520436         3    ;  uncertainty k = 0.425418
         1         3         6        18     9      180.000000        1.527117         4    ;  uncertainty k = 0.291310
         2         1         3         6     9        0.000000       -0.057073         1    ;  uncertainty k = 0.150985
         2         1         3         6     9      180.000000       15.642469         2    ;  uncertainty k = 0.154884
         2         1         3         6     9        0.000000       -0.221494         3    ;  uncertainty k = 0.546048
         2         1         3         6     9      180.000000        0.972330         4    ;  uncertainty k = 0.230431
         2         1         3        24     9        0.000000        0.150631         1    ;  uncertainty k = 0.194735
         2         1         3        24     9      180.000000        9.803223         2    ;  uncertainty k = 0.267504
         2         1         3        24     9        0.000000        1.485879         3    ;  uncertainty k = 0.156851
         2         1         3        24     9      180.000000        1.684062         4    ;  uncertainty k = 0.083206
         2         4         7         6     9        0.000000        0.050628         1    ;  uncertainty k = 0.400123
         2         4         7         6     9      180.000000       11.708080         2    ;  uncertainty k = 0.364861
         2         4         7         6     9        0.000000       -0.278443         3    ;  uncertainty k = 0.242420
         2         4         7         6     9      180.000000        1.120413         4    ;  uncertainty k = 0.208216
         2         4         7        25     9        0.000000        0.041981         1    ;  uncertainty k = 0.435749
         2         4         7        25     9      180.000000        7.322408         2    ;  uncertainty k = 0.745969
         2         4         7        25     9        0.000000        1.367994         3    ;  uncertainty k = 0.302457
         2         4         7        25     9      180.000000        1.425752         4    ;  uncertainty k = 0.115038
         2         4         8         9     9        0.000000       -1.193949         1    ;  uncertainty k = 0.844290
         2         4         8         9     9      180.000000        2.489746         2    ;  uncertainty k = 0.691617
         2         4         8         9     9        0.000000       -0.230394         3    ;  uncertainty k = 0.457346
         2         4         8         9     9      180.000000        0.546888         4    ;  uncertainty k = 0.237414
         2         4         8        10     9        0.000000       -2.356332         1    ;  uncertainty k = 0.972286
         2         4         8        10     9      180.000000        4.954601         2    ;  uncertainty k = 0.587205
         2         4         8        10     9        0.000000        0.258129         3    ;  uncertainty k = 0.265379
         2         4         8        10     9      180.000000       -0.085012         4    ;  uncertainty k = 0.204923
         2         5        11         9     9        0.000000       -0.806560         1    ;  uncertainty k = 0.443205
         2         5        11         9     9      180.000000       23.923140         2    ;  uncertainty k = 0.167277
         2         5        11         9     9        0.000000        1.746404         3    ;  uncertainty k = 0.254558
         2         5        11         9     9      180.000000        1.448584         4    ;  uncertainty k = 0.448997
         2         5        11        12     9        0.000000       -0.591543         1    ;  uncertainty k = 0.847502
         2         5        11        12     9      180.000000       19.152900         2    ;  uncertainty k = 0.448467
         2         5        11        12     9        0.000000        2.703670         3    ;  uncertainty k = 0.469541
         2         5        11        12     9      180.000000        1.363775         4    ;  uncertainty k = 0.339349
         3         1         2         4     9        0.000000        0.299010         1    ;  uncertainty k = 0.441394
         3         1         2         4     9      180.000000        8.793316         2    ;  uncertainty k = 0.480346
         3         1         2         4     9        0.000000       -0.398610         3    ;  uncertainty k = 0.171035
         3         1         2         4     9      180.000000        1.079569         4    ;  uncertainty k = 0.206112
         3         1         2         5     9        0.000000        0.123441         1    ;  uncertainty k = 0.423850
         3         1         2         5     9      180.000000       10.614146         2    ;  uncertainty k = 0.337062
         3         1         2         5     9        0.000000        0.825517         3    ;  uncertainty k = 0.234227
         3         1         2         5     9      180.000000        1.460557         4    ;  uncertainty k = 0.150431
         3         6         7         4     9        0.000000        0.014580         1    ;  uncertainty k = 0.406168
         3         6         7         4     9      180.000000        8.580803         2    ;  uncertainty k = 0.496282
         3         6         7         4     9        0.000000        0.411247         3    ;  uncertainty k = 0.429260
         3         6         7         4     9      180.000000        1.349937         4    ;  uncertainty k = 0.402939
         3         6         7        25     9        0.000000        0.166988         1    ;  uncertainty k = 0.092153
         3         6         7        25     9      180.000000        6.142410         2    ;  uncertainty k = 0.526407
         3         6         7        25     9        0.000000        1.428280         3    ;  uncertainty k = 0.294529
         3         6         7        25     9      180.000000        1.629598         4    ;  uncertainty k = 0.083727
         4         2         1        23     9        0.000000       -0.086631         1    ;  uncertainty k = 0.278042
         4         2         1        23     9      180.000000        5.469934         2    ;  uncertainty k = 0.424640
         4         2         1        23     9        0.000000        1.374953         3    ;  uncertainty k = 0.418873
         4         2         1        23     9      180.000000        1.196756         4    ;  uncertainty k = 0.132430
         4         2         5        11     9        0.000000        1.795741         1    ;  uncertainty k = 2.236194
         4         2         5        11     9      180.000000        3.972890         2    ;  uncertainty k = 1.621073
         4         2         5        11     9        0.000000        1.402420         3    ;  uncertainty k = 0.568804
         4         2         5        11     9      180.000000        0.447823         4    ;  uncertainty k = 0.482506
         4         7         6        18     9        0.000000        0.052940         1    ;  uncertainty k = 0.279630
         4         7         6        18     9      180.000000       14.300887         2    ;  uncertainty k = 0.204150
         4         7         6        18     9        0.000000        1.453226         3    ;  uncertainty k = 0.306010
         4         7         6        18     9      180.000000        1.325492         4    ;  uncertainty k = 0.084421
         4         8         9        11     9        0.000000        0.299155         1    ;  uncertainty k = 1.495458
         4         8         9        11     9      180.000000        4.160269         2    ;  uncertainty k = 1.161050
         4         8         9        11     9        0.000000        0.720046         3    ;  uncertainty k = 0.199570
         4         8         9        11     9      180.000000        0.476898         4    ;  uncertainty k = 0.377921
         4         8         9        26     9        0.000000        2.496625         1    ;  uncertainty k = 2.318088
         4         8         9        26     9      180.000000        5.316572         2    ;  uncertainty k = 0.889294
         4         8         9        26     9        0.000000        1.796287         3    ;  uncertainty k = 0.190470
         4         8         9        26     9      180.000000       -0.030160         4    ;  uncertainty k = 0.088266
         5         2         1        23     9        0.000000       -0.532603         1    ;  uncertainty k = 0.678534
         5         2         1        23     9      180.000000        7.650949         2    ;  uncertainty k = 0.346839
         5         2         1        23     9        0.000000        1.209871         3    ;  uncertainty k = 0.365775
         5         2         1        23     9      180.000000        1.221245         4    ;  uncertainty k = 0.215969
         5         2         4         7     9        0.000000        0.049402         1    ;  uncertainty k = 0.402186
         5         2         4         7     9      180.000000        8.514216         2    ;  uncertainty k = 0.717814
         5         2         4         7     9        0.000000        0.658246         3    ;  uncertainty k = 0.224700
         5         2         4         7     9      180.000000        1.431737         4    ;  uncertainty k = 0.311120
         5         2         4         8     9        0.000000       -0.183103         1    ;  uncertainty k = 0.431012
         5         2         4         8     9      180.000000        7.575105         2    ;  uncertainty k = 0.899866
         5         2         4         8     9        0.000000        0.995014         3    ;  uncertainty k = 0.432246
         5         2         4         8     9      180.000000        1.496214         4    ;  uncertainty k = 0.209473
         5        11         9         8     9        0.000000        0.194990         1    ;  uncertainty k = 0.883244
         5        11         9         8     9      180.000000        7.090508         2    ;  uncertainty k = 0.650035
         5        11         9         8     9        0.000000        0.606196         3    ;  uncertainty k = 0.671787
         5        11         9         8     9      180.000000        0.383228         4    ;  uncertainty k = 0.217670
         5        11         9        26     9        0.000000        5.758950         1    ;  uncertainty k = 1.531635
         5        11         9        26     9      180.000000       10.846313         2    ;  uncertainty k = 0.608795
         5        11         9        26     9        0.000000        1.244464         3    ;  uncertainty k = 0.560006
         5        11         9        26     9      180.000000       -0.235958         4    ;  uncertainty k = 0.089809
         5        11        12        13     9        0.000000        0.811045         1    ;  uncertainty k = 0.705428
         5        11        12        13     9      180.000000        3.976317         2    ;  uncertainty k = 0.319687
         5        11        12        13     9        0.000000        0.559668         3    ;  uncertainty k = 0.170019
         5        11        12        13     9      180.000000       -0.117294         4    ;  uncertainty k = 0.145882
         5        11        12        17     9        0.000000        0.811045         1    ;  uncertainty k = 0.705428
         5        11        12        17     9      180.000000        3.976317         2    ;  uncertainty k = 0.319687
         5        11        12        17     9        0.000000        0.559668         3    ;  uncertainty k = 0.170019
         5        11        12        17     9      180.000000       -0.117294         4    ;  uncertainty k = 0.145882
         6         3         1        23     9        0.000000       -0.011413         1    ;  uncertainty k = 0.293284
         6         3         1        23     9      180.000000        9.463462         2    ;  uncertainty k = 0.336797
         6         3         1        23     9        0.000000        1.362115         3    ;  uncertainty k = 0.433380
         6         3         1        23     9      180.000000        1.933407         4    ;  uncertainty k = 0.228212
         6         7         4         8     9        0.000000        0.264940         1    ;  uncertainty k = 0.246431
         6         7         4         8     9      180.000000        9.013462         2    ;  uncertainty k = 0.640345
         6         7         4         8     9        0.000000        1.402405         3    ;  uncertainty k = 0.236211
         6         7         4         8     9      180.000000        1.807428         4    ;  uncertainty k = 0.213904
         7         4         8         9     9        0.000000        0.354863         1    ;  uncertainty k = 0.703754
         7         4         8         9     9      180.000000        2.980996         2    ;  uncertainty k = 0.626009
         7         4         8         9     9        0.000000        0.683030         3    ;  uncertainty k = 0.504923
         7         4         8         9     9      180.000000        0.519281         4    ;  uncertainty k = 0.265179
         7         4         8        10     9        0.000000       -1.911914         1    ;  uncertainty k = 0.521653
         7         4         8        10     9      180.000000        5.458000         2    ;  uncertainty k = 0.685108
         7         4         8        10     9        0.000000        0.514570         3    ;  uncertainty k = 0.325112
         7         4         8        10     9      180.000000       -0.138469         4    ;  uncertainty k = 0.135496
         7         6         3        24     9        0.000000       -0.021607         1    ;  uncertainty k = 0.306379
         7         6         3        24     9      180.000000        5.222009         2    ;  uncertainty k = 0.775374
         7         6         3        24     9        0.000000        1.141407         3    ;  uncertainty k = 0.190575
         7         6         3        24     9      180.000000        1.375914         4    ;  uncertainty k = 0.167968
         8         4         7        25     9        0.000000       -0.388183         1    ;  uncertainty k = 0.709543
         8         4         7        25     9      180.000000        7.471749         2    ;  uncertainty k = 0.400570
         8         4         7        25     9        0.000000        0.936545         3    ;  uncertainty k = 0.220276
         8         4         7        25     9      180.000000        1.188458         4    ;  uncertainty k = 0.138463
         8         9        11        12     9        0.000000        1.136732         1    ;  uncertainty k = 0.845638
         8         9        11        12     9      180.000000        5.378643         2    ;  uncertainty k = 0.753050
         8         9        11        12     9        0.000000        0.529824         3    ;  uncertainty k = 0.332522
         8         9        11        12     9      180.000000       -0.081540         4    ;  uncertainty k = 0.312631
         9        11        12        13     9        0.000000       -0.009517         1    ;  uncertainty k = 0.284214
         9        11        12        13     9      180.000000        4.141572         2    ;  uncertainty k = 0.393128
         9        11        12        13     9        0.000000        0.553528         3    ;  uncertainty k = 0.130721
         9        11        12        13     9      180.000000       -0.116777         4    ;  uncertainty k = 0.042934
         9        11        12        17     9        0.000000       -0.009517         1    ;  uncertainty k = 0.284214
         9        11        12        17     9      180.000000        4.141572         2    ;  uncertainty k = 0.393128
         9        11        12        17     9        0.000000        0.553528         3    ;  uncertainty k = 0.130721
         9        11        12        17     9      180.000000       -0.116777         4    ;  uncertainty k = 0.042934
        10         8         9        11     9        0.000000        0.129290         1    ;  uncertainty k = 1.265351
        10         8         9        11     9      180.000000       11.179130         2    ;  uncertainty k = 0.473645
        10         8         9        11     9        0.000000        1.319941         3    ;  uncertainty k = 0.341337
        10         8         9        11     9      180.000000       -0.489621         4    ;  uncertainty k = 0.399230
        10         8         9        26     9        0.000000        1.499196         1    ;  uncertainty k = 2.518562
        10         8         9        26     9      180.000000        9.178552         2    ;  uncertainty k = 0.611521
        10         8         9        26     9        0.000000        0.741428         3    ;  uncertainty k = 0.511189
        10         8         9        26     9      180.000000       -0.114754         4    ;  uncertainty k = 0.058823
        11        12        13        14     9        0.000000        0.118633         1    ;  uncertainty k = 0.137004
        11        12        13        14     9      180.000000        9.021637         2    ;  uncertainty k = 0.591492
        11        12        13        14     9        0.000000        1.314411         3    ;  uncertainty k = 0.266658
        11        12        13        14     9      180.000000        1.699162         4    ;  uncertainty k = 0.187845
        11        12        13        27     9        0.000000       -0.289135         1    ;  uncertainty k = 0.190475
        11        12        13        27     9      180.000000        7.203429         2    ;  uncertainty k = 0.257433
        11        12        13        27     9        0.000000        0.713586         3    ;  uncertainty k = 0.162928
        11        12        13        27     9      180.000000        1.051303         4    ;  uncertainty k = 0.171937
        11        12        17        16     9        0.000000        0.118633         1    ;  uncertainty k = 0.137004
        11        12        17        16     9      180.000000        9.021637         2    ;  uncertainty k = 0.591492
        11        12        17        16     9        0.000000        1.314411         3    ;  uncertainty k = 0.266658
        11        12        17        16     9      180.000000        1.699162         4    ;  uncertainty k = 0.187845
        11        12        17        30     9        0.000000       -0.289135         1    ;  uncertainty k = 0.190475
        11        12        17        30     9      180.000000        7.203429         2    ;  uncertainty k = 0.257433
        11        12        17        30     9        0.000000        0.713586         3    ;  uncertainty k = 0.162928
        11        12        17        30     9      180.000000        1.051303         4    ;  uncertainty k = 0.171937
        12        11         9        26     9        0.000000        0.911623         1    ;  uncertainty k = 0.129052
        12        11         9        26     9      180.000000        4.671520         2    ;  uncertainty k = 0.900674
        12        11         9        26     9        0.000000        1.367313         3    ;  uncertainty k = 0.257053
        12        11         9        26     9      180.000000       -0.076850         4    ;  uncertainty k = 0.266316
        12        13        14        15     9        0.000000       -0.202178         1    ;  uncertainty k = 0.264586
        12        13        14        15     9      180.000000       12.515956         2    ;  uncertainty k = 0.182381
        12        13        14        15     9        0.000000       -0.635009         3    ;  uncertainty k = 0.510060
        12        13        14        15     9      180.000000        0.911968         4    ;  uncertainty k = 0.290281
        12        13        14        28     9        0.000000        0.118493         1    ;  uncertainty k = 0.144321
        12        13        14        28     9      180.000000        8.307864         2    ;  uncertainty k = 0.287810
        12        13        14        28     9        0.000000        1.397418         3    ;  uncertainty k = 0.201794
        12        13        14        28     9      180.000000        1.866430         4    ;  uncertainty k = 0.190208
        12        17        16        15     9        0.000000       -0.202178         1    ;  uncertainty k = 0.264586
        12        17        16        15     9      180.000000       12.515956         2    ;  uncertainty k = 0.182381
        12        17        16        15     9        0.000000       -0.635009         3    ;  uncertainty k = 0.510060
        12        17        16        15     9      180.000000        0.911968         4    ;  uncertainty k = 0.290281
        12        17        16        29     9        0.000000        0.118493         1    ;  uncertainty k = 0.144321
        12        17        16        29     9      180.000000        8.307864         2    ;  uncertainty k = 0.287810
        12        17        16        29     9        0.000000        1.397418         3    ;  uncertainty k = 0.201794
        12        17        16        29     9      180.000000        1.866430         4    ;  uncertainty k = 0.190208
        13        12        17        16     9        0.000000        0.065803         1    ;  uncertainty k = 0.111125
        13        12        17        16     9      180.000000       11.056743         2    ;  uncertainty k = 0.302316
        13        12        17        16     9        0.000000       -0.660446         3    ;  uncertainty k = 0.177057
        13        12        17        16     9      180.000000        0.919799         4    ;  uncertainty k = 0.279534
        13        12        17        30     9        0.000000        0.064315         1    ;  uncertainty k = 0.159415
        13        12        17        30     9      180.000000        6.901517         2    ;  uncertainty k = 0.567298
        13        12        17        30     9        0.000000        1.305852         3    ;  uncertainty k = 0.246051
        13        12        17        30     9      180.000000        1.580564         4    ;  uncertainty k = 0.259982
        13        14        15        16     9        0.000000       -0.174414         1    ;  uncertainty k = 0.152051
        13        14        15        16     9      180.000000       10.897437         2    ;  uncertainty k = 0.371956
        13        14        15        16     9        0.000000       -0.167502         3    ;  uncertainty k = 0.230743
        13        14        15        16     9      180.000000        0.912285         4    ;  uncertainty k = 0.318883
        13        14        15        19     9        0.000000        0.225608         1    ;  uncertainty k = 0.170898
        13        14        15        19     9      180.000000        7.924566         2    ;  uncertainty k = 0.369236
        13        14        15        19     9        0.000000        1.423889         3    ;  uncertainty k = 0.334532
        13        14        15        19     9      180.000000        1.870765         4    ;  uncertainty k = 0.198105
        14        13        12        17     9        0.000000        0.065803         1    ;  uncertainty k = 0.111125
        14        13        12        17     9      180.000000       11.056743         2    ;  uncertainty k = 0.302316
        14        13        12        17     9        0.000000       -0.660446         3    ;  uncertainty k = 0.177057
        14        13        12        17     9      180.000000        0.919799         4    ;  uncertainty k = 0.279534
        14        15        16        17     9        0.000000       -0.174414         1    ;  uncertainty k = 0.152051
        14        15        16        17     9      180.000000       10.897437         2    ;  uncertainty k = 0.371956
        14        15        16        17     9        0.000000       -0.167502         3    ;  uncertainty k = 0.230743
        14        15        16        17     9      180.000000        0.912285         4    ;  uncertainty k = 0.318883
        14        15        16        29     9        0.000000        0.164231         1    ;  uncertainty k = 0.182256
        14        15        16        29     9      180.000000        7.515642         2    ;  uncertainty k = 0.452871
        14        15        16        29     9        0.000000        1.423717         3    ;  uncertainty k = 0.318604
        14        15        16        29     9      180.000000        1.658914         4    ;  uncertainty k = 0.196313
        14        15        19        20     9        0.000000       -0.273390         1    ;  uncertainty k = 0.319017
        14        15        19        20     9      180.000000        2.663082         2    ;  uncertainty k = 0.132000
        14        15        19        20     9        0.000000        0.364173         3    ;  uncertainty k = 0.086054
        14        15        19        20     9      180.000000        0.393816         4    ;  uncertainty k = 0.037610
        14        15        19        21     9        0.000000       -0.273390         1    ;  uncertainty k = 0.319018
        14        15        19        21     9      180.000000        2.663082         2    ;  uncertainty k = 0.132000
        14        15        19        21     9        0.000000        0.364173         3    ;  uncertainty k = 0.086055
        14        15        19        21     9      180.000000        0.393816         4    ;  uncertainty k = 0.037610
        14        15        19        22     9        0.000000       -0.273390         1    ;  uncertainty k = 0.319018
        14        15        19        22     9      180.000000        2.663082         2    ;  uncertainty k = 0.132000
        14        15        19        22     9        0.000000        0.364173         3    ;  uncertainty k = 0.086055
        14        15        19        22     9      180.000000        0.393816         4    ;  uncertainty k = 0.037610
        15        14        13        27     9        0.000000       -0.034932         1    ;  uncertainty k = 0.212220
        15        14        13        27     9      180.000000        7.596742         2    ;  uncertainty k = 0.225527
        15        14        13        27     9        0.000000        1.261964         3    ;  uncertainty k = 0.235928
        15        14        13        27     9      180.000000        1.865344         4    ;  uncertainty k = 0.224955
        15        16        17        30     9        0.000000       -0.034932         1    ;  uncertainty k = 0.212220
        15        16        17        30     9      180.000000        7.596742         2    ;  uncertainty k = 0.225527
        15        16        17        30     9        0.000000        1.261964         3    ;  uncertainty k = 0.235928
        15        16        17        30     9      180.000000        1.865344         4    ;  uncertainty k = 0.224955
        15        19        20        31     9        0.000000        0.844462         1    ;  uncertainty k = 0.426918
        15        19        20        31     9      180.000000       -0.572508         2    ;  uncertainty k = 0.081674
        15        19        20        31     9        0.000000        0.701605         3    ;  uncertainty k = 0.068964
        15        19        20        31     9      180.000000        0.043140         4    ;  uncertainty k = 0.063334
        15        19        20        32     9        0.000000        0.844462         1    ;  uncertainty k = 0.426918
        15        19        20        32     9      180.000000       -0.572508         2    ;  uncertainty k = 0.081674
        15        19        20        32     9        0.000000        0.701605         3    ;  uncertainty k = 0.068964
        15        19        20        32     9      180.000000        0.043140         4    ;  uncertainty k = 0.063334
        15        19        20        33     9        0.000000        0.844462         1    ;  uncertainty k = 0.426918
        15        19        20        33     9      180.000000       -0.572508         2    ;  uncertainty k = 0.081674
        15        19        20        33     9        0.000000        0.701605         3    ;  uncertainty k = 0.068964
        15        19        20        33     9      180.000000        0.043140         4    ;  uncertainty k = 0.063334
        15        19        21        34     9        0.000000        0.844461         1    ;  uncertainty k = 0.426919
        15        19        21        34     9      180.000000       -0.572507         2    ;  uncertainty k = 0.081673
        15        19        21        34     9        0.000000        0.701605         3    ;  uncertainty k = 0.068964
        15        19        21        34     9      180.000000        0.043139         4    ;  uncertainty k = 0.063334
        15        19        21        35     9        0.000000        0.844461         1    ;  uncertainty k = 0.426919
        15        19        21        35     9      180.000000       -0.572507         2    ;  uncertainty k = 0.081673
        15        19        21        35     9        0.000000        0.701605         3    ;  uncertainty k = 0.068964
        15        19        21        35     9      180.000000        0.043139         4    ;  uncertainty k = 0.063334
        15        19        21        36     9        0.000000        0.844461         1    ;  uncertainty k = 0.426919
        15        19        21        36     9      180.000000       -0.572507         2    ;  uncertainty k = 0.081673
        15        19        21        36     9        0.000000        0.701605         3    ;  uncertainty k = 0.068964
        15        19        21        36     9      180.000000        0.043139         4    ;  uncertainty k = 0.063334
        15        19        22        37     9        0.000000        0.844461         1    ;  uncertainty k = 0.426919
        15        19        22        37     9      180.000000       -0.572507         2    ;  uncertainty k = 0.081673
        15        19        22        37     9        0.000000        0.701605         3    ;  uncertainty k = 0.068964
        15        19        22        37     9      180.000000        0.043139         4    ;  uncertainty k = 0.063334
        15        19        22        38     9        0.000000        0.844461         1    ;  uncertainty k = 0.426919
        15        19        22        38     9      180.000000       -0.572507         2    ;  uncertainty k = 0.081673
        15        19        22        38     9        0.000000        0.701605         3    ;  uncertainty k = 0.068964
        15        19        22        38     9      180.000000        0.043139         4    ;  uncertainty k = 0.063334
        15        19        22        39     9        0.000000        0.844461         1    ;  uncertainty k = 0.426919
        15        19        22        39     9      180.000000       -0.572507         2    ;  uncertainty k = 0.081673
        15        19        22        39     9        0.000000        0.701605         3    ;  uncertainty k = 0.068964
        15        19        22        39     9      180.000000        0.043139         4    ;  uncertainty k = 0.063334
        16        15        14        28     9        0.000000        0.164231         1    ;  uncertainty k = 0.182256
        16        15        14        28     9      180.000000        7.515642         2    ;  uncertainty k = 0.452871
        16        15        14        28     9        0.000000        1.423717         3    ;  uncertainty k = 0.318604
        16        15        14        28     9      180.000000        1.658914         4    ;  uncertainty k = 0.196313
        16        15        19        20     9        0.000000       -0.273390         1    ;  uncertainty k = 0.319017
        16        15        19        20     9      180.000000        2.663082         2    ;  uncertainty k = 0.132000
        16        15        19        20     9        0.000000        0.364173         3    ;  uncertainty k = 0.086054
        16        15        19        20     9      180.000000        0.393816         4    ;  uncertainty k = 0.037610
        16        15        19        21     9        0.000000       -0.273390         1    ;  uncertainty k = 0.319018
        16        15        19        21     9      180.000000        2.663082         2    ;  uncertainty k = 0.132000
        16        15        19        21     9        0.000000        0.364173         3    ;  uncertainty k = 0.086055
        16        15        19        21     9      180.000000        0.393816         4    ;  uncertainty k = 0.037610
        16        15        19        22     9        0.000000       -0.273390         1    ;  uncertainty k = 0.319018
        16        15        19        22     9      180.000000        2.663082         2    ;  uncertainty k = 0.132000
        16        15        19        22     9        0.000000        0.364173         3    ;  uncertainty k = 0.086055
        16        15        19        22     9      180.000000        0.393816         4    ;  uncertainty k = 0.037610
        17        12        13        27     9        0.000000        0.064315         1    ;  uncertainty k = 0.159415
        17        12        13        27     9      180.000000        6.901517         2    ;  uncertainty k = 0.567298
        17        12        13        27     9        0.000000        1.305852         3    ;  uncertainty k = 0.246051
        17        12        13        27     9      180.000000        1.580564         4    ;  uncertainty k = 0.259982
        17        16        15        19     9        0.000000        0.225608         1    ;  uncertainty k = 0.170898
        17        16        15        19     9      180.000000        7.924566         2    ;  uncertainty k = 0.369236
        17        16        15        19     9        0.000000        1.423889         3    ;  uncertainty k = 0.334532
        17        16        15        19     9      180.000000        1.870765         4    ;  uncertainty k = 0.198105
        18         6         3        24     9        0.000000       -0.164895         1    ;  uncertainty k = 0.458057
        18         6         3        24     9      180.000000        8.717670         2    ;  uncertainty k = 0.312534
        18         6         3        24     9        0.000000        0.777601         3    ;  uncertainty k = 0.256890
        18         6         3        24     9      180.000000        0.897535         4    ;  uncertainty k = 0.157117
        18         6         7        25     9        0.000000       -0.388026         1    ;  uncertainty k = 0.271818
        18         6         7        25     9      180.000000        9.843060         2    ;  uncertainty k = 0.427436
        18         6         7        25     9        0.000000        0.955047         3    ;  uncertainty k = 0.236450
        18         6         7        25     9      180.000000        1.015023         4    ;  uncertainty k = 0.197015
        19        15        14        28     9        0.000000       -0.217963         1    ;  uncertainty k = 0.637828
        19        15        14        28     9      180.000000        7.725278         2    ;  uncertainty k = 0.469631
        19        15        14        28     9        0.000000        0.596886         3    ;  uncertainty k = 0.291342
        19        15        14        28     9      180.000000        0.979460         4    ;  uncertainty k = 0.198654
        19        15        16        29     9        0.000000       -0.217963         1    ;  uncertainty k = 0.637828
        19        15        16        29     9      180.000000        7.725278         2    ;  uncertainty k = 0.469631
        19        15        16        29     9        0.000000        0.596886         3    ;  uncertainty k = 0.291342
        19        15        16        29     9      180.000000        0.979460         4    ;  uncertainty k = 0.198654
        20        19        21        34     9        0.000000       -1.198065         1    ;  uncertainty k = 0.274246
        20        19        21        34     9      180.000000       -0.228153         2    ;  uncertainty k = 0.093396
        20        19        21        34     9        0.000000        0.811101         3    ;  uncertainty k = 0.035130
        20        19        21        34     9      180.000000       -0.066216         4    ;  uncertainty k = 0.044438
        20        19        21        35     9        0.000000       -1.198065         1    ;  uncertainty k = 0.274246
        20        19        21        35     9      180.000000       -0.228153         2    ;  uncertainty k = 0.093396
        20        19        21        35     9        0.000000        0.811101         3    ;  uncertainty k = 0.035130
        20        19        21        35     9      180.000000       -0.066216         4    ;  uncertainty k = 0.044438
        20        19        21        36     9        0.000000       -1.198065         1    ;  uncertainty k = 0.274246
        20        19        21        36     9      180.000000       -0.228153         2    ;  uncertainty k = 0.093396
        20        19        21        36     9        0.000000        0.811101         3    ;  uncertainty k = 0.035130
        20        19        21        36     9      180.000000       -0.066216         4    ;  uncertainty k = 0.044438
        20        19        22        37     9        0.000000       -1.198065         1    ;  uncertainty k = 0.274246
        20        19        22        37     9      180.000000       -0.228153         2    ;  uncertainty k = 0.093396
        20        19        22        37     9        0.000000        0.811101         3    ;  uncertainty k = 0.035130
        20        19        22        37     9      180.000000       -0.066216         4    ;  uncertainty k = 0.044438
        20        19        22        38     9        0.000000       -1.198065         1    ;  uncertainty k = 0.274246
        20        19        22        38     9      180.000000       -0.228153         2    ;  uncertainty k = 0.093396
        20        19        22        38     9        0.000000        0.811101         3    ;  uncertainty k = 0.035130
        20        19        22        38     9      180.000000       -0.066216         4    ;  uncertainty k = 0.044438
        20        19        22        39     9        0.000000       -1.198065         1    ;  uncertainty k = 0.274246
        20        19        22        39     9      180.000000       -0.228153         2    ;  uncertainty k = 0.093396
        20        19        22        39     9        0.000000        0.811101         3    ;  uncertainty k = 0.035130
        20        19        22        39     9      180.000000       -0.066216         4    ;  uncertainty k = 0.044438
        21        19        20        31     9        0.000000       -1.198065         1    ;  uncertainty k = 0.274244
        21        19        20        31     9      180.000000       -0.228152         2    ;  uncertainty k = 0.093394
        21        19        20        31     9        0.000000        0.811101         3    ;  uncertainty k = 0.035130
        21        19        20        31     9      180.000000       -0.066216         4    ;  uncertainty k = 0.044438
        21        19        20        32     9        0.000000       -1.198065         1    ;  uncertainty k = 0.274244
        21        19        20        32     9      180.000000       -0.228152         2    ;  uncertainty k = 0.093394
        21        19        20        32     9        0.000000        0.811101         3    ;  uncertainty k = 0.035130
        21        19        20        32     9      180.000000       -0.066216         4    ;  uncertainty k = 0.044438
        21        19        20        33     9        0.000000       -1.198065         1    ;  uncertainty k = 0.274244
        21        19        20        33     9      180.000000       -0.228152         2    ;  uncertainty k = 0.093394
        21        19        20        33     9        0.000000        0.811101         3    ;  uncertainty k = 0.035130
        21        19        20        33     9      180.000000       -0.066216         4    ;  uncertainty k = 0.044438
        21        19        22        37     9        0.000000       -1.198065         1    ;  uncertainty k = 0.274246
        21        19        22        37     9      180.000000       -0.228151         2    ;  uncertainty k = 0.093393
        21        19        22        37     9        0.000000        0.811101         3    ;  uncertainty k = 0.035130
        21        19        22        37     9      180.000000       -0.066216         4    ;  uncertainty k = 0.044438
        21        19        22        38     9        0.000000       -1.198065         1    ;  uncertainty k = 0.274246
        21        19        22        38     9      180.000000       -0.228151         2    ;  uncertainty k = 0.093393
        21        19        22        38     9        0.000000        0.811101         3    ;  uncertainty k = 0.035130
        21        19        22        38     9      180.000000       -0.066216         4    ;  uncertainty k = 0.044438
        21        19        22        39     9        0.000000       -1.198065         1    ;  uncertainty k = 0.274246
        21        19        22        39     9      180.000000       -0.228151         2    ;  uncertainty k = 0.093393
        21        19        22        39     9        0.000000        0.811101         3    ;  uncertainty k = 0.035130
        21        19        22        39     9      180.000000       -0.066216         4    ;  uncertainty k = 0.044438
        22        19        20        31     9        0.000000       -1.198065         1    ;  uncertainty k = 0.274244
        22        19        20        31     9      180.000000       -0.228152         2    ;  uncertainty k = 0.093394
        22        19        20        31     9        0.000000        0.811101         3    ;  uncertainty k = 0.035130
        22        19        20        31     9      180.000000       -0.066216         4    ;  uncertainty k = 0.044438
        22        19        20        32     9        0.000000       -1.198065         1    ;  uncertainty k = 0.274244
        22        19        20        32     9      180.000000       -0.228152         2    ;  uncertainty k = 0.093394
        22        19        20        32     9        0.000000        0.811101         3    ;  uncertainty k = 0.035130
        22        19        20        32     9      180.000000       -0.066216         4    ;  uncertainty k = 0.044438
        22        19        20        33     9        0.000000       -1.198065         1    ;  uncertainty k = 0.274244
        22        19        20        33     9      180.000000       -0.228152         2    ;  uncertainty k = 0.093394
        22        19        20        33     9        0.000000        0.811101         3    ;  uncertainty k = 0.035130
        22        19        20        33     9      180.000000       -0.066216         4    ;  uncertainty k = 0.044438
        22        19        21        34     9        0.000000       -1.198065         1    ;  uncertainty k = 0.274246
        22        19        21        34     9      180.000000       -0.228151         2    ;  uncertainty k = 0.093393
        22        19        21        34     9        0.000000        0.811101         3    ;  uncertainty k = 0.035130
        22        19        21        34     9      180.000000       -0.066216         4    ;  uncertainty k = 0.044438
        22        19        21        35     9        0.000000       -1.198065         1    ;  uncertainty k = 0.274246
        22        19        21        35     9      180.000000       -0.228151         2    ;  uncertainty k = 0.093393
        22        19        21        35     9        0.000000        0.811101         3    ;  uncertainty k = 0.035130
        22        19        21        35     9      180.000000       -0.066216         4    ;  uncertainty k = 0.044438
        22        19        21        36     9        0.000000       -1.198065         1    ;  uncertainty k = 0.274246
        22        19        21        36     9      180.000000       -0.228151         2    ;  uncertainty k = 0.093393
        22        19        21        36     9        0.000000        0.811101         3    ;  uncertainty k = 0.035130
        22        19        21        36     9      180.000000       -0.066216         4    ;  uncertainty k = 0.044438
        23         1         3        24     9        0.000000       -0.169010         1    ;  uncertainty k = 0.251725
        23         1         3        24     9      180.000000        8.399340         2    ;  uncertainty k = 0.338025
        23         1         3        24     9        0.000000       -0.223565         3    ;  uncertainty k = 0.293096
        23         1         3        24     9      180.000000        0.239211         4    ;  uncertainty k = 0.177227
        27        13        14        28     9        0.000000       -0.074197         1    ;  uncertainty k = 0.233068
        27        13        14        28     9      180.000000        8.039388         2    ;  uncertainty k = 0.447801
        27        13        14        28     9        0.000000       -0.377573         3    ;  uncertainty k = 0.208157
        27        13        14        28     9      180.000000        0.323975         4    ;  uncertainty k = 0.238342
        29        16        17        30     9        0.000000       -0.074197         1    ;  uncertainty k = 0.233068
        29        16        17        30     9      180.000000        8.039388         2    ;  uncertainty k = 0.447801
        29        16        17        30     9        0.000000       -0.377573         3    ;  uncertainty k = 0.208157
        29        16        17        30     9      180.000000        0.323975         4    ;  uncertainty k = 0.238342

[ dihedrals ] ; impropers
;       ai        aj        ak        al funct           phase               k        pn
         1         2         3        23     4      180.000000        3.056718         2    ;  uncertainty k = 0.286146
         1         3        23         2     4      180.000000        3.056718         2    ;  uncertainty k = 0.286146
         1        23         2         3     4      180.000000        3.056718         2    ;  uncertainty k = 0.286146
         2         1         4         5     4      180.000000       21.108004         2    ;  uncertainty k = 0.036468
         2         4         5         1     4      180.000000       21.108004         2    ;  uncertainty k = 0.036468
         2         5         1         4     4      180.000000       21.108004         2    ;  uncertainty k = 0.036468
         3         1         6        24     4      180.000000        3.605828         2    ;  uncertainty k = 0.146573
         3         6        24         1     4      180.000000        3.605828         2    ;  uncertainty k = 0.146573
         3        24         1         6     4      180.000000        3.605828         2    ;  uncertainty k = 0.146573
         4         2         7         8     4      180.000000        5.434744         2    ;  uncertainty k = 0.365734
         4         7         8         2     4      180.000000        5.434744         2    ;  uncertainty k = 0.365734
         4         8         2         7     4      180.000000        5.434744         2    ;  uncertainty k = 0.365734
         6         3         7        18     4      180.000000       16.721150         2    ;  uncertainty k = 0.059128
         6         7        18         3     4      180.000000       16.721150         2    ;  uncertainty k = 0.059128
         6        18         3         7     4      180.000000       16.721150         2    ;  uncertainty k = 0.059128
         7         4         6        25     4      180.000000        3.847247         2    ;  uncertainty k = 0.056780
         7         6        25         4     4      180.000000        3.847247         2    ;  uncertainty k = 0.056780
         7        25         4         6     4      180.000000        3.847247         2    ;  uncertainty k = 0.056780
         8         4         9        10     4      180.000000       50.258053         2    ;  uncertainty k = 0.010206
         8         9        10         4     4      180.000000       50.258053         2    ;  uncertainty k = 0.010206
         8        10         4         9     4      180.000000       50.258053         2    ;  uncertainty k = 0.010206
         9         8        11        26     4      180.000000        0.721308         2    ;  uncertainty k = 0.517020
         9        11        26         8     4      180.000000        0.721308         2    ;  uncertainty k = 0.517020
         9        26         8        11     4      180.000000        0.721308         2    ;  uncertainty k = 0.517020
        11         5         9        12     4      180.000000       30.410736         2    ;  uncertainty k = 0.037194
        11         9        12         5     4      180.000000       30.410736         2    ;  uncertainty k = 0.037194
        11        12         5         9     4      180.000000       30.410736         2    ;  uncertainty k = 0.037194
        12        11        13        17     4      180.000000        8.592346         2    ;  uncertainty k = 0.255768
        12        13        17        11     4      180.000000        8.592346         2    ;  uncertainty k = 0.255768
        12        17        11        13     4      180.000000        8.592346         2    ;  uncertainty k = 0.255768
        13        12        14        27     4      180.000000        4.203139         2    ;  uncertainty k = 0.155299
        13        14        27        12     4      180.000000        4.203139         2    ;  uncertainty k = 0.155299
        13        27        12        14     4      180.000000        4.203139         2    ;  uncertainty k = 0.155299
        14        13        15        28     4      180.000000        3.575898         2    ;  uncertainty k = 0.152938
        14        15        28        13     4      180.000000        3.575898         2    ;  uncertainty k = 0.152938
        14        28        13        15     4      180.000000        3.575898         2    ;  uncertainty k = 0.152938
        15        14        16        19     4      180.000000       15.432477         2    ;  uncertainty k = 0.120698
        15        16        19        14     4      180.000000       15.432477         2    ;  uncertainty k = 0.120698
        15        19        14        16     4      180.000000       15.432477         2    ;  uncertainty k = 0.120698
        16        15        17        29     4      180.000000        3.575898         2    ;  uncertainty k = 0.152938
        16        17        29        15     4      180.000000        3.575898         2    ;  uncertainty k = 0.152938
        16        29        15        17     4      180.000000        3.575898         2    ;  uncertainty k = 0.152938
        17        12        16        30     4      180.000000        4.203139         2    ;  uncertainty k = 0.155299
        17        16        30        12     4      180.000000        4.203139         2    ;  uncertainty k = 0.155299
        17        30        12        16     4      180.000000        4.203139         2    ;  uncertainty k = 0.155299

[ pairs ]
;       ai        aj funct
         1         7     1
         1         8     1
         1        11     1
         1        18     1
         2         6     1
         2         9     1
         2        10     1
         2        12     1
         2        24     1
         2        25     1
         3         4     1
         3         5     1
         3        25     1
         4        11     1
         4        18     1
         4        23     1
         4        26     1
         5         7     1
         5         8     1
         5        13     1
         5        17     1
         5        23     1
         5        26     1
         6         8     1
         6        23     1
         7         9     1
         7        10     1
         7        24     1
         8        12     1
         8        25     1
         9        13     1
         9        17     1
        10        11     1
        10        26     1
        11        14     1
        11        16     1
        11        27     1
        11        30     1
        12        15     1
        12        26     1
        12        28     1
        12        29     1
        13        16     1
        13        19     1
        13        30     1
        14        17     1
        14        20     1
        14        21     1
        14        22     1
        14        29     1
        15        27     1
        15        30     1
        15        31     1
        15        32     1
        15        33     1
        15        34     1
        15        35     1
        15        36     1
        15        37     1
        15        38     1
        15        39     1
        16        20     1
        16        21     1
        16        22     1
        16        28     1
        17        19     1
        17        27     1
        18        24     1
        18        25     1
        19        28     1
        19        29     1
        20        34     1
        20        35     1
        20        36     1
        20        37     1
        20        38     1
        20        39     1
        21        31     1
        21        32     1
        21        33     1
        21        37     1
        21        38     1
        21        39     1
        22        31     1
        22        32     1
        22        33     1
        22        34     1
        22        35     1
        22        36     1
        23        24     1
        27        28     1
        29        30     1
