; ITP file created by ByteFF-joint-25, 2026-02-17 09:51:11.439958

[ atomtypes ]
;name           bonded.type        at.num        mass        charge   ptype           sigma         epsilon
 c0bf                                   6      0.0000       0.00000       A     3.31504e-01     4.13500e-01    ;  uncertainty sigma = 0.000009, epsilon = 0.000354
 c1bf                                   6      0.0000       0.00000       A     3.31542e-01     4.12762e-01    ;  uncertainty sigma = 0.000008, epsilon = 0.001004
 c2bf                                   6      0.0000       0.00000       A     3.31528e-01     4.13427e-01    ;  uncertainty sigma = 0.000003, epsilon = 0.000809
 c3bf                                   6      0.0000       0.00000       A     3.31534e-01     4.13562e-01    ;  uncertainty sigma = 0.000021, epsilon = 0.001540
 n4bf                                   7      0.0000       0.00000       A     3.38420e-01     3.93601e-01    ;  uncertainty sigma = 0.000016, epsilon = 0.001577
 c5bf                                   6      0.0000       0.00000       A     3.31513e-01     4.13232e-01    ;  uncertainty sigma = 0.000006, epsilon = 0.000506
 c6bf                                   6      0.0000       0.00000       A     3.31531e-01     4.13318e-01    ;  uncertainty sigma = 0.000007, epsilon = 0.001816
 c7bf                                   6      0.0000       0.00000       A     3.31556e-01     4.13515e-01    ;  uncertainty sigma = 0.000010, epsilon = 0.001010
 n8bf                                   7      0.0000       0.00000       A     3.26959e-01     4.90529e-01    ;  uncertainty sigma = 0.000067, epsilon = 0.003013
 o9bf                                   8      0.0000       0.00000       A     3.04794e-01     6.11791e-01    ;  uncertainty sigma = 0.000015, epsilon = 0.001761
 c10bf                                  6      0.0000       0.00000       A     3.31512e-01     4.12851e-01    ;  uncertainty sigma = 0.000012, epsilon = 0.001342
 c11bf                                  6      0.0000       0.00000       A     3.31501e-01     4.12880e-01    ;  uncertainty sigma = 0.000017, epsilon = 0.001089
 c12bf                                  6      0.0000       0.00000       A     3.31519e-01     4.13337e-01    ;  uncertainty sigma = 0.000004, epsilon = 0.000604
 c13bf                                  6      0.0000       0.00000       A     3.31522e-01     4.13196e-01    ;  uncertainty sigma = 0.000004, epsilon = 0.000447
 c14bf                                  6      0.0000       0.00000       A     3.31544e-01     4.13202e-01    ;  uncertainty sigma = 0.000004, epsilon = 0.001200
 c15bf                                  6      0.0000       0.00000       A     3.31522e-01     4.13196e-01    ;  uncertainty sigma = 0.000004, epsilon = 0.000447
 c16bf                                  6      0.0000       0.00000       A     3.31519e-01     4.13337e-01    ;  uncertainty sigma = 0.000004, epsilon = 0.000604
 c17bf                                  6      0.0000       0.00000       A     3.39755e-01     4.50272e-01    ;  uncertainty sigma = 0.000025, epsilon = 0.001042
 o18bf                                  8      0.0000       0.00000       A     3.24292e-01     3.89709e-01    ;  uncertainty sigma = 0.000031, epsilon = 0.001714
 c19bf                                  6      0.0000       0.00000       A     3.39763e-01     4.50805e-01    ;  uncertainty sigma = 0.000004, epsilon = 0.000470
 c20bf                                  6      0.0000       0.00000       A     3.39763e-01     4.50805e-01    ;  uncertainty sigma = 0.000004, epsilon = 0.000470
 f21bf                                  9      0.0000       0.00000       A     3.03479e-01     3.47746e-01    ;  uncertainty sigma = 0.000053, epsilon = 0.001878
 h22bf                                  1      0.0000       0.00000       A     2.62558e-01     6.70236e-02    ;  uncertainty sigma = 0.000015, epsilon = 0.000547
 h23bf                                  1      0.0000       0.00000       A     2.62584e-01     6.69956e-02    ;  uncertainty sigma = 0.000008, epsilon = 0.000549
 h24bf                                  1      0.0000       0.00000       A     2.62563e-01     6.69417e-02    ;  uncertainty sigma = 0.000010, epsilon = 0.000484
 h25bf                                  1      0.0000       0.00000       A     1.10651e-01     4.13762e-02    ;  uncertainty sigma = 0.000058, epsilon = 0.001253
 h26bf                                  1      0.0000       0.00000       A     2.62567e-01     6.70632e-02    ;  uncertainty sigma = 0.000011, epsilon = 0.000557
 h27bf                                  1      0.0000       0.00000       A     2.62556e-01     6.70460e-02    ;  uncertainty sigma = 0.000009, epsilon = 0.000514
 h28bf                                  1      0.0000       0.00000       A     2.62556e-01     6.70460e-02    ;  uncertainty sigma = 0.000009, epsilon = 0.000514
 h29bf                                  1      0.0000       0.00000       A     2.62567e-01     6.70633e-02    ;  uncertainty sigma = 0.000011, epsilon = 0.000557
 h30bf                                  1      0.0000       0.00000       A     5.37866e-02     1.91555e-02    ;  uncertainty sigma = 0.000161, epsilon = 0.001189
 h31bf                                  1      0.0000       0.00000       A     2.60031e-01     8.67183e-02    ;  uncertainty sigma = 0.000009, epsilon = 0.000447
 h32bf                                  1      0.0000       0.00000       A     2.60031e-01     8.67183e-02    ;  uncertainty sigma = 0.000009, epsilon = 0.000447
 h33bf                                  1      0.0000       0.00000       A     2.60031e-01     8.67183e-02    ;  uncertainty sigma = 0.000009, epsilon = 0.000447
 h34bf                                  1      0.0000       0.00000       A     2.60031e-01     8.67183e-02    ;  uncertainty sigma = 0.000009, epsilon = 0.000447
 h35bf                                  1      0.0000       0.00000       A     2.60031e-01     8.67183e-02    ;  uncertainty sigma = 0.000009, epsilon = 0.000447
 h36bf                                  1      0.0000       0.00000       A     2.60031e-01     8.67183e-02    ;  uncertainty sigma = 0.000009, epsilon = 0.000447

[ moleculetype ]
;name             nrexcl
 MOL                   3

[ atoms ]
;       nr            type      resi   res      atom      cgnr      charge          mass ; qtot
         1            c0bf         1   UNL        c0         1    -0.14966       12.0110 ; qtot   -0.150
         2            c1bf         1   UNL        c1         2     0.21481       12.0110 ; qtot    0.065
         3            c2bf         1   UNL        c2         3    -0.05895       12.0110 ; qtot    0.006
         4            c3bf         1   UNL        c3         4    -0.24768       12.0110 ; qtot   -0.241
         5            n4bf         1   UNL        n4         5    -0.63013       14.0070 ; qtot   -0.872
         6            c5bf         1   UNL        c5         6    -0.19891       12.0110 ; qtot   -1.071
         7            c6bf         1   UNL        c6         7     0.20615       12.0110 ; qtot   -0.864
         8            c7bf         1   UNL        c7         8     0.72382       12.0110 ; qtot   -0.141
         9            n8bf         1   UNL        n8         9    -0.50951       14.0070 ; qtot   -0.650
        10            o9bf         1   UNL        o9        10    -0.58654       15.9990 ; qtot   -1.237
        11           c10bf         1   UNL       c10        11     0.57644       12.0110 ; qtot   -0.660
        12           c11bf         1   UNL       c11        12    -0.15129       12.0110 ; qtot   -0.811
        13           c12bf         1   UNL       c12        13    -0.08668       12.0110 ; qtot   -0.898
        14           c13bf         1   UNL       c13        14    -0.12388       12.0110 ; qtot   -1.022
        15           c14bf         1   UNL       c14        15    -0.08876       12.0110 ; qtot   -1.111
        16           c15bf         1   UNL       c15        16    -0.12388       12.0110 ; qtot   -1.235
        17           c16bf         1   UNL       c16        17    -0.08668       12.0110 ; qtot   -1.321
        18           c17bf         1   UNL       c17        18     0.20190       12.0110 ; qtot   -1.119
        19           o18bf         1   UNL       o18        19    -0.60342       15.9990 ; qtot   -1.723
        20           c19bf         1   UNL       c19        20    -0.10277       12.0110 ; qtot   -1.826
        21           c20bf         1   UNL       c20        21    -0.10277       12.0110 ; qtot   -1.928
        22           f21bf         1   UNL       f21        22    -0.11580       18.9980 ; qtot   -2.044
        23           h22bf         1   UNL       h22        23     0.15802        1.0080 ; qtot   -1.886
        24           h23bf         1   UNL       h23        24     0.14205        1.0080 ; qtot   -1.744
        25           h24bf         1   UNL       h24        25     0.15890        1.0080 ; qtot   -1.585
        26           h25bf         1   UNL       h25        26     0.33836        1.0080 ; qtot   -1.247
        27           h26bf         1   UNL       h26        27     0.14623        1.0080 ; qtot   -1.101
        28           h27bf         1   UNL       h27        28     0.14030        1.0080 ; qtot   -0.960
        29           h28bf         1   UNL       h28        29     0.14030        1.0080 ; qtot   -0.820
        30           h29bf         1   UNL       h29        30     0.14623        1.0080 ; qtot   -0.674
        31           h30bf         1   UNL       h30        31     0.40249        1.0080 ; qtot   -0.271
        32           h31bf         1   UNL       h31        32     0.04522        1.0080 ; qtot   -0.226
        33           h32bf         1   UNL       h32        33     0.04522        1.0080 ; qtot   -0.181
        34           h33bf         1   UNL       h33        34     0.04522        1.0080 ; qtot   -0.136
        35           h34bf         1   UNL       h34        35     0.04522        1.0080 ; qtot   -0.090
        36           h35bf         1   UNL       h35        36     0.04522        1.0080 ; qtot   -0.045
        37           h36bf         1   UNL       h36        37     0.04521        1.0080 ; qtot    0.000

[ bonds ]
;       ai        aj funct               r               k
         1         2     1        0.140798   353189.382373    ;  uncertainty r = 0.000061, k = 5.547663
         1         3     1        0.138617   375996.549219    ;  uncertainty r = 0.000072, k = 4.954077
         1        23     1        0.108708   337330.658691    ;  uncertainty r = 0.000020, k = 2.572796
         2         4     1        0.142684   381056.165625    ;  uncertainty r = 0.000154, k = 29.138490
         2         5     1        0.138730   302918.535547    ;  uncertainty r = 0.000131, k = 28.365238
         3         6     1        0.140474   364342.229687    ;  uncertainty r = 0.000123, k = 6.794256
         3        24     1        0.108699   333820.251025    ;  uncertainty r = 0.000011, k = 1.394236
         4         7     1        0.140719   348227.649707    ;  uncertainty r = 0.000109, k = 15.747144
         4         8     1        0.146992   252922.289258    ;  uncertainty r = 0.000140, k = 15.010148
         5        11     1        0.129883   471497.370703    ;  uncertainty r = 0.000053, k = 10.745734
         6         7     1        0.138519   352897.186768    ;  uncertainty r = 0.000118, k = 8.385331
         6        25     1        0.108719   336445.440332    ;  uncertainty r = 0.000022, k = 1.520418
         7        22     1        0.134478   336959.374658    ;  uncertainty r = 0.000126, k = 12.152731
         8         9     1        0.140959   446316.963672    ;  uncertainty r = 0.000140, k = 8.418904
         8        10     1        0.123360   837405.229492    ;  uncertainty r = 0.000151, k = 19.631692
         9        11     1        0.138741   301518.489063    ;  uncertainty r = 0.000081, k = 18.414455
         9        26     1        0.102046   453472.206348    ;  uncertainty r = 0.000020, k = 4.304456
        11        12     1        0.147341   266941.958008    ;  uncertainty r = 0.000109, k = 11.708942
        12        13     1        0.139881   350469.118408    ;  uncertainty r = 0.000059, k = 3.608169
        12        17     1        0.139881   350469.118408    ;  uncertainty r = 0.000059, k = 3.608169
        13        14     1        0.139215   359042.692139    ;  uncertainty r = 0.000045, k = 3.009361
        13        27     1        0.108751   333157.971631    ;  uncertainty r = 0.000045, k = 1.128363
        14        15     1        0.139630   349504.479639    ;  uncertainty r = 0.000022, k = 3.365375
        14        28     1        0.108801   333642.308447    ;  uncertainty r = 0.000019, k = 1.144891
        15        16     1        0.139630   349504.479639    ;  uncertainty r = 0.000022, k = 3.365375
        15        18     1        0.152147   213548.803735    ;  uncertainty r = 0.000097, k = 3.797993
        16        17     1        0.139215   359042.692139    ;  uncertainty r = 0.000045, k = 3.009361
        16        29     1        0.108801   333642.308447    ;  uncertainty r = 0.000019, k = 1.144913
        17        30     1        0.108751   333157.997168    ;  uncertainty r = 0.000045, k = 1.128360
        18        19     1        0.144782   263188.513672    ;  uncertainty r = 0.000100, k = 11.942343
        18        20     1        0.153487   207492.767627    ;  uncertainty r = 0.000036, k = 5.323961
        18        21     1        0.153487   207492.767627    ;  uncertainty r = 0.000036, k = 5.323961
        19        31     1        0.097230   467409.339160    ;  uncertainty r = 0.000030, k = 3.616173
        20        32     1        0.109572   309908.578662    ;  uncertainty r = 0.000020, k = 1.196954
        20        33     1        0.109572   309908.578662    ;  uncertainty r = 0.000020, k = 1.196954
        20        34     1        0.109572   309908.578662    ;  uncertainty r = 0.000020, k = 1.196954
        21        35     1        0.109572   309908.578662    ;  uncertainty r = 0.000020, k = 1.196957
        21        36     1        0.109572   309908.578662    ;  uncertainty r = 0.000020, k = 1.196957
        21        37     1        0.109572   309908.578662    ;  uncertainty r = 0.000020, k = 1.196957

[ angles ]
;       ai        aj        ak funct           theta             cth
         1         2         4     1      120.907639      394.698051    ;  uncertainty theta = 0.006239, k = 0.270313
         1         2         5     1      119.748367      515.014706    ;  uncertainty theta = 0.004965, k = 0.099937
         1         3         6     1      120.781052      533.552253    ;  uncertainty theta = 0.001562, k = 0.063386
         1         3        24     1      119.646133      284.203448    ;  uncertainty theta = 0.001463, k = 0.057631
         2         1         3     1      117.738014      541.517213    ;  uncertainty theta = 0.002396, k = 0.115380
         2         1        23     1      120.003708      276.720756    ;  uncertainty theta = 0.003522, k = 0.137706
         2         4         7     1      120.358444      457.007417    ;  uncertainty theta = 0.007446, k = 0.160448
         2         4         8     1      118.937576      499.407542    ;  uncertainty theta = 0.004263, k = 0.281232
         2         5        11     1      115.215515      414.418254    ;  uncertainty theta = 0.003602, k = 0.409412
         3         1        23     1      121.916580      285.383901    ;  uncertainty theta = 0.001996, k = 0.020329
         3         6         7     1      119.643982      495.571357    ;  uncertainty theta = 0.002826, k = 0.146358
         3         6        25     1      121.907570      282.730052    ;  uncertainty theta = 0.001225, k = 0.101889
         4         2         5     1      123.627296      563.986805    ;  uncertainty theta = 0.008541, k = 0.137913
         4         7         6     1      124.748520      370.405206    ;  uncertainty theta = 0.005167, k = 0.547451
         4         7        22     1      116.852310      486.533263    ;  uncertainty theta = 0.007234, k = 0.227125
         4         8         9     1      109.468796      379.848126    ;  uncertainty theta = 0.006070, k = 0.257786
         4         8        10     1      126.230484      489.452091    ;  uncertainty theta = 0.005912, k = 0.121124
         5        11         9     1      123.486122      684.131244    ;  uncertainty theta = 0.005949, k = 0.154103
         5        11        12     1      122.650124      446.578572    ;  uncertainty theta = 0.004169, k = 0.164740
         6         3        24     1      119.392967      281.541555    ;  uncertainty theta = 0.001566, k = 0.054856
         6         7        22     1      118.654701      517.568959    ;  uncertainty theta = 0.004586, k = 0.164693
         7         4         8     1      119.313156      423.952151    ;  uncertainty theta = 0.002519, k = 0.290952
         7         6        25     1      119.647644      280.284140    ;  uncertainty theta = 0.002324, k = 0.147512
         8         9        11     1      121.688950      490.889383    ;  uncertainty theta = 0.002463, k = 0.220581
         8         9        26     1      115.116577      353.519175    ;  uncertainty theta = 0.006364, k = 0.122388
         9         8        10     1      124.788818      835.204952    ;  uncertainty theta = 0.001667, k = 0.141510
         9        11        12     1      116.770203      514.244762    ;  uncertainty theta = 0.005165, k = 0.221536
        11         9        26     1      116.941605      330.480425    ;  uncertainty theta = 0.006600, k = 0.221478
        11        12        13     1      117.981766      401.223070    ;  uncertainty theta = 0.002686, k = 0.115669
        11        12        17     1      117.981766      401.223070    ;  uncertainty theta = 0.002686, k = 0.115669
        12        13        14     1      121.936867      513.032419    ;  uncertainty theta = 0.001595, k = 0.037410
        12        13        27     1      118.373268      267.332069    ;  uncertainty theta = 0.002929, k = 0.046096
        12        17        16     1      121.936867      513.032419    ;  uncertainty theta = 0.001595, k = 0.037410
        12        17        30     1      118.373268      267.332037    ;  uncertainty theta = 0.002929, k = 0.046096
        13        12        17     1      120.778748      421.634435    ;  uncertainty theta = 0.002896, k = 0.258077
        13        14        15     1      121.733681      516.745292    ;  uncertainty theta = 0.002295, k = 0.052086
        13        14        28     1      119.605568      285.026126    ;  uncertainty theta = 0.002260, k = 0.028336
        14        13        27     1      120.211563      284.749144    ;  uncertainty theta = 0.002936, k = 0.063323
        14        15        16     1      119.700928      459.849474    ;  uncertainty theta = 0.002192, k = 0.105996
        14        15        18     1      119.835281      368.426622    ;  uncertainty theta = 0.004163, k = 0.173853
        15        14        28     1      118.678185      262.012993    ;  uncertainty theta = 0.001113, k = 0.066500
        15        16        17     1      121.733681      516.745292    ;  uncertainty theta = 0.002295, k = 0.052086
        15        16        29     1      118.678185      262.012993    ;  uncertainty theta = 0.001113, k = 0.066500
        15        18        19     1      109.685776      703.897222    ;  uncertainty theta = 0.001965, k = 0.142449
        15        18        20     1      109.715744      550.550008    ;  uncertainty theta = 0.001726, k = 0.033765
        15        18        21     1      109.715744      550.550008    ;  uncertainty theta = 0.001726, k = 0.033765
        16        15        18     1      119.835281      368.426622    ;  uncertainty theta = 0.004163, k = 0.173853
        16        17        30     1      120.211563      284.749144    ;  uncertainty theta = 0.002936, k = 0.063322
        17        16        29     1      119.605568      285.026158    ;  uncertainty theta = 0.002260, k = 0.028336
        18        19        31     1      107.710533      483.511457    ;  uncertainty theta = 0.002078, k = 0.098569
        18        20        32     1      107.275742      375.507520    ;  uncertainty theta = 0.000927, k = 0.039228
        18        20        33     1      107.275742      375.507520    ;  uncertainty theta = 0.000927, k = 0.039228
        18        20        34     1      107.275742      375.507520    ;  uncertainty theta = 0.000927, k = 0.039228
        18        21        35     1      107.275742      375.507520    ;  uncertainty theta = 0.000927, k = 0.039228
        18        21        36     1      107.275742      375.507520    ;  uncertainty theta = 0.000927, k = 0.039228
        18        21        37     1      107.275742      375.507520    ;  uncertainty theta = 0.000927, k = 0.039228
        19        18        20     1      108.829308      692.110441    ;  uncertainty theta = 0.002464, k = 0.098428
        19        18        21     1      108.829308      692.110441    ;  uncertainty theta = 0.002464, k = 0.098428
        20        18        21     1      110.087318      564.121450    ;  uncertainty theta = 0.001573, k = 0.073265
        32        20        33     1      105.686974      317.730768    ;  uncertainty theta = 0.001105, k = 0.008156
        32        20        34     1      105.686974      317.730768    ;  uncertainty theta = 0.001105, k = 0.008156
        33        20        34     1      105.686974      317.730768    ;  uncertainty theta = 0.001105, k = 0.008156
        35        21        36     1      105.686974      317.730768    ;  uncertainty theta = 0.001105, k = 0.008156
        35        21        37     1      105.686974      317.730768    ;  uncertainty theta = 0.001105, k = 0.008156
        36        21        37     1      105.686974      317.730768    ;  uncertainty theta = 0.001105, k = 0.008156

[ dihedrals ] ; propers for gromacs 4.5 or higher, use funct 9
;       ai        aj        ak        al funct           phase               k        pn
         1         2         4         7     9        0.000000        0.271621         1    ;  uncertainty k = 0.578994
         1         2         4         7     9      180.000000        6.665326         2    ;  uncertainty k = 0.707132
         1         2         4         7     9        0.000000        0.339684         3    ;  uncertainty k = 0.444799
         1         2         4         7     9      180.000000        1.378338         4    ;  uncertainty k = 0.236974
         1         2         4         8     9        0.000000        0.243782         1    ;  uncertainty k = 0.433163
         1         2         4         8     9      180.000000        5.786388         2    ;  uncertainty k = 0.677850
         1         2         4         8     9        0.000000        0.923536         3    ;  uncertainty k = 0.090393
         1         2         4         8     9      180.000000        1.425459         4    ;  uncertainty k = 0.118623
         1         2         5        11     9        0.000000        1.785140         1    ;  uncertainty k = 2.054271
         1         2         5        11     9      180.000000        5.414550         2    ;  uncertainty k = 0.981060
         1         2         5        11     9        0.000000        2.278981         3    ;  uncertainty k = 0.254140
         1         2         5        11     9      180.000000        0.413519         4    ;  uncertainty k = 0.397679
         1         3         6         7     9        0.000000       -0.145471         1    ;  uncertainty k = 0.394626
         1         3         6         7     9      180.000000       11.933659         2    ;  uncertainty k = 0.410877
         1         3         6         7     9        0.000000       -0.828752         3    ;  uncertainty k = 0.494603
         1         3         6         7     9      180.000000        0.871001         4    ;  uncertainty k = 0.141496
         1         3         6        25     9        0.000000        0.192461         1    ;  uncertainty k = 0.544781
         1         3         6        25     9      180.000000        7.048621         2    ;  uncertainty k = 0.519243
         1         3         6        25     9        0.000000        1.534273         3    ;  uncertainty k = 0.297240
         1         3         6        25     9      180.000000        1.705875         4    ;  uncertainty k = 0.092728
         2         1         3         6     9        0.000000       -0.011333         1    ;  uncertainty k = 0.295775
         2         1         3         6     9      180.000000       15.886857         2    ;  uncertainty k = 0.233023
         2         1         3         6     9        0.000000       -0.414396         3    ;  uncertainty k = 0.438991
         2         1         3         6     9      180.000000        0.782614         4    ;  uncertainty k = 0.240108
         2         1         3        24     9        0.000000        0.124485         1    ;  uncertainty k = 0.221578
         2         1         3        24     9      180.000000       10.005232         2    ;  uncertainty k = 0.323879
         2         1         3        24     9        0.000000        1.417351         3    ;  uncertainty k = 0.151826
         2         1         3        24     9      180.000000        1.611865         4    ;  uncertainty k = 0.086623
         2         4         7         6     9        0.000000       -0.001373         1    ;  uncertainty k = 0.281364
         2         4         7         6     9      180.000000        6.487143         2    ;  uncertainty k = 1.074681
         2         4         7         6     9        0.000000        0.121840         3    ;  uncertainty k = 0.364189
         2         4         7         6     9      180.000000        1.240152         4    ;  uncertainty k = 0.243134
         2         4         7        22     9        0.000000       -0.053697         1    ;  uncertainty k = 0.598576
         2         4         7        22     9      180.000000        9.839856         2    ;  uncertainty k = 0.466914
         2         4         7        22     9        0.000000        1.709099         3    ;  uncertainty k = 0.466020
         2         4         7        22     9      180.000000        1.546657         4    ;  uncertainty k = 0.231319
         2         4         8         9     9        0.000000       -0.986040         1    ;  uncertainty k = 1.675127
         2         4         8         9     9      180.000000        2.051182         2    ;  uncertainty k = 0.510642
         2         4         8         9     9        0.000000        0.018015         3    ;  uncertainty k = 0.394180
         2         4         8         9     9      180.000000        0.485294         4    ;  uncertainty k = 0.259626
         2         4         8        10     9        0.000000       -2.195754         1    ;  uncertainty k = 1.223428
         2         4         8        10     9      180.000000        4.751663         2    ;  uncertainty k = 0.463734
         2         4         8        10     9        0.000000        0.291125         3    ;  uncertainty k = 0.381490
         2         4         8        10     9      180.000000       -0.043044         4    ;  uncertainty k = 0.233747
         2         5        11         9     9        0.000000       -0.855859         1    ;  uncertainty k = 0.437925
         2         5        11         9     9      180.000000       23.721575         2    ;  uncertainty k = 0.158816
         2         5        11         9     9        0.000000        1.736212         3    ;  uncertainty k = 0.278845
         2         5        11         9     9      180.000000        1.390832         4    ;  uncertainty k = 0.455906
         2         5        11        12     9        0.000000       -0.600602         1    ;  uncertainty k = 1.019486
         2         5        11        12     9      180.000000       18.992942         2    ;  uncertainty k = 0.567238
         2         5        11        12     9        0.000000        2.784098         3    ;  uncertainty k = 0.498861
         2         5        11        12     9      180.000000        1.328553         4    ;  uncertainty k = 0.338534
         3         1         2         4     9        0.000000        0.290632         1    ;  uncertainty k = 0.204155
         3         1         2         4     9      180.000000        8.751600         2    ;  uncertainty k = 0.410301
         3         1         2         4     9        0.000000       -0.255903         3    ;  uncertainty k = 0.289030
         3         1         2         4     9      180.000000        1.134792         4    ;  uncertainty k = 0.144892
         3         1         2         5     9        0.000000        0.094381         1    ;  uncertainty k = 0.418747
         3         1         2         5     9      180.000000       11.067476         2    ;  uncertainty k = 0.467876
         3         1         2         5     9        0.000000        0.893118         3    ;  uncertainty k = 0.295702
         3         1         2         5     9      180.000000        1.437056         4    ;  uncertainty k = 0.182920
         3         6         7         4     9        0.000000       -0.065501         1    ;  uncertainty k = 0.180267
         3         6         7         4     9      180.000000        8.380609         2    ;  uncertainty k = 0.328675
         3         6         7         4     9        0.000000        0.456564         3    ;  uncertainty k = 0.468848
         3         6         7         4     9      180.000000        1.376150         4    ;  uncertainty k = 0.300212
         3         6         7        22     9        0.000000        0.142521         1    ;  uncertainty k = 0.499858
         3         6         7        22     9      180.000000       14.234380         2    ;  uncertainty k = 0.257846
         3         6         7        22     9        0.000000        1.304887         3    ;  uncertainty k = 0.342133
         3         6         7        22     9      180.000000        1.445155         4    ;  uncertainty k = 0.229146
         4         2         1        23     9        0.000000        0.074330         1    ;  uncertainty k = 0.308692
         4         2         1        23     9      180.000000        5.653674         2    ;  uncertainty k = 0.446051
         4         2         1        23     9        0.000000        1.351758         3    ;  uncertainty k = 0.333374
         4         2         1        23     9      180.000000        1.172032         4    ;  uncertainty k = 0.186301
         4         2         5        11     9        0.000000        1.631847         1    ;  uncertainty k = 2.120535
         4         2         5        11     9      180.000000        3.857621         2    ;  uncertainty k = 1.408529
         4         2         5        11     9        0.000000        1.378890         3    ;  uncertainty k = 0.452318
         4         2         5        11     9      180.000000        0.402402         4    ;  uncertainty k = 0.481708
         4         7         6        25     9        0.000000        0.167086         1    ;  uncertainty k = 0.572836
         4         7         6        25     9      180.000000        5.964323         2    ;  uncertainty k = 0.355909
         4         7         6        25     9        0.000000        1.487722         3    ;  uncertainty k = 0.344887
         4         7         6        25     9      180.000000        1.600063         4    ;  uncertainty k = 0.162162
         4         8         9        11     9        0.000000        0.290809         1    ;  uncertainty k = 1.888364
         4         8         9        11     9      180.000000        3.595432         2    ;  uncertainty k = 1.048202
         4         8         9        11     9        0.000000        0.838779         3    ;  uncertainty k = 0.298651
         4         8         9        11     9      180.000000        0.479627         4    ;  uncertainty k = 0.400424
         4         8         9        26     9        0.000000        2.208266         1    ;  uncertainty k = 2.254918
         4         8         9        26     9      180.000000        4.827127         2    ;  uncertainty k = 1.120033
         4         8         9        26     9        0.000000        1.565303         3    ;  uncertainty k = 0.273476
         4         8         9        26     9      180.000000       -0.112784         4    ;  uncertainty k = 0.115845
         5         2         1        23     9        0.000000       -0.379773         1    ;  uncertainty k = 0.494813
         5         2         1        23     9      180.000000        7.932591         2    ;  uncertainty k = 0.260966
         5         2         1        23     9        0.000000        1.273817         3    ;  uncertainty k = 0.382047
         5         2         1        23     9      180.000000        1.280745         4    ;  uncertainty k = 0.177935
         5         2         4         7     9        0.000000        0.078008         1    ;  uncertainty k = 0.408706
         5         2         4         7     9      180.000000        7.608323         2    ;  uncertainty k = 0.718492
         5         2         4         7     9        0.000000        0.826864         3    ;  uncertainty k = 0.191183
         5         2         4         7     9      180.000000        1.536156         4    ;  uncertainty k = 0.217603
         5         2         4         8     9        0.000000       -0.051404         1    ;  uncertainty k = 0.591192
         5         2         4         8     9      180.000000        6.974017         2    ;  uncertainty k = 0.562586
         5         2         4         8     9        0.000000        1.174698         3    ;  uncertainty k = 0.355724
         5         2         4         8     9      180.000000        1.536440         4    ;  uncertainty k = 0.090712
         5        11         9         8     9        0.000000        0.114782         1    ;  uncertainty k = 1.028445
         5        11         9         8     9      180.000000        7.660191         2    ;  uncertainty k = 0.596780
         5        11         9         8     9        0.000000        0.582319         3    ;  uncertainty k = 0.657163
         5        11         9         8     9      180.000000        0.353098         4    ;  uncertainty k = 0.242255
         5        11         9        26     9        0.000000        5.486044         1    ;  uncertainty k = 1.517641
         5        11         9        26     9      180.000000       11.332094         2    ;  uncertainty k = 0.611776
         5        11         9        26     9        0.000000        1.241411         3    ;  uncertainty k = 0.640881
         5        11         9        26     9      180.000000       -0.316963         4    ;  uncertainty k = 0.167071
         5        11        12        13     9        0.000000        0.902233         1    ;  uncertainty k = 0.723715
         5        11        12        13     9      180.000000        4.018690         2    ;  uncertainty k = 0.283471
         5        11        12        13     9        0.000000        0.570073         3    ;  uncertainty k = 0.157001
         5        11        12        13     9      180.000000       -0.130814         4    ;  uncertainty k = 0.162138
         5        11        12        17     9        0.000000        0.902233         1    ;  uncertainty k = 0.723715
         5        11        12        17     9      180.000000        4.018690         2    ;  uncertainty k = 0.283471
         5        11        12        17     9        0.000000        0.570073         3    ;  uncertainty k = 0.157001
         5        11        12        17     9      180.000000       -0.130814         4    ;  uncertainty k = 0.162138
         6         3         1        23     9        0.000000        0.131903         1    ;  uncertainty k = 0.192008
         6         3         1        23     9      180.000000        9.055752         2    ;  uncertainty k = 0.389663
         6         3         1        23     9        0.000000        1.442909         3    ;  uncertainty k = 0.396658
         6         3         1        23     9      180.000000        1.991570         4    ;  uncertainty k = 0.230398
         6         7         4         8     9        0.000000        0.120604         1    ;  uncertainty k = 0.212762
         6         7         4         8     9      180.000000        5.703210         2    ;  uncertainty k = 0.358383
         6         7         4         8     9        0.000000        1.153085         3    ;  uncertainty k = 0.326121
         6         7         4         8     9      180.000000        1.541352         4    ;  uncertainty k = 0.266971
         7         4         8         9     9        0.000000       -0.354901         1    ;  uncertainty k = 1.200780
         7         4         8         9     9      180.000000        2.364230         2    ;  uncertainty k = 0.681113
         7         4         8         9     9        0.000000        0.414660         3    ;  uncertainty k = 0.439697
         7         4         8         9     9      180.000000        0.492778         4    ;  uncertainty k = 0.257186
         7         4         8        10     9        0.000000       -1.696140         1    ;  uncertainty k = 1.329974
         7         4         8        10     9      180.000000        4.935863         2    ;  uncertainty k = 0.805856
         7         4         8        10     9        0.000000        0.531300         3    ;  uncertainty k = 0.252066
         7         4         8        10     9      180.000000       -0.127345         4    ;  uncertainty k = 0.229969
         7         6         3        24     9        0.000000        0.001202         1    ;  uncertainty k = 0.196311
         7         6         3        24     9      180.000000        6.899863         2    ;  uncertainty k = 0.396047
         7         6         3        24     9        0.000000        1.404191         3    ;  uncertainty k = 0.242456
         7         6         3        24     9      180.000000        1.568325         4    ;  uncertainty k = 0.191220
         8         4         7        22     9        0.000000       -0.138162         1    ;  uncertainty k = 0.306969
         8         4         7        22     9      180.000000        8.814877         2    ;  uncertainty k = 0.577306
         8         4         7        22     9        0.000000        1.729057         3    ;  uncertainty k = 0.334222
         8         4         7        22     9      180.000000        1.478864         4    ;  uncertainty k = 0.161076
         8         9        11        12     9        0.000000        1.107030         1    ;  uncertainty k = 0.855174
         8         9        11        12     9      180.000000        5.521861         2    ;  uncertainty k = 0.846984
         8         9        11        12     9        0.000000        0.513409         3    ;  uncertainty k = 0.190749
         8         9        11        12     9      180.000000       -0.122544         4    ;  uncertainty k = 0.347573
         9        11        12        13     9        0.000000       -0.056622         1    ;  uncertainty k = 0.329455
         9        11        12        13     9      180.000000        4.160733         2    ;  uncertainty k = 0.358590
         9        11        12        13     9        0.000000        0.535427         3    ;  uncertainty k = 0.114724
         9        11        12        13     9      180.000000       -0.131673         4    ;  uncertainty k = 0.038131
         9        11        12        17     9        0.000000       -0.056622         1    ;  uncertainty k = 0.329455
         9        11        12        17     9      180.000000        4.160733         2    ;  uncertainty k = 0.358590
         9        11        12        17     9        0.000000        0.535427         3    ;  uncertainty k = 0.114724
         9        11        12        17     9      180.000000       -0.131673         4    ;  uncertainty k = 0.038131
        10         8         9        11     9        0.000000        0.172736         1    ;  uncertainty k = 1.241832
        10         8         9        11     9      180.000000       11.520082         2    ;  uncertainty k = 0.548534
        10         8         9        11     9        0.000000        1.316087         3    ;  uncertainty k = 0.330060
        10         8         9        11     9      180.000000       -0.533470         4    ;  uncertainty k = 0.382694
        10         8         9        26     9        0.000000        1.732010         1    ;  uncertainty k = 3.042088
        10         8         9        26     9      180.000000        9.268854         2    ;  uncertainty k = 0.715007
        10         8         9        26     9        0.000000        0.730585         3    ;  uncertainty k = 0.478823
        10         8         9        26     9      180.000000       -0.086752         4    ;  uncertainty k = 0.077652
        11        12        13        14     9        0.000000        0.101901         1    ;  uncertainty k = 0.156371
        11        12        13        14     9      180.000000        9.094351         2    ;  uncertainty k = 0.632402
        11        12        13        14     9        0.000000        1.349215         3    ;  uncertainty k = 0.287092
        11        12        13        14     9      180.000000        1.700277         4    ;  uncertainty k = 0.195318
        11        12        13        27     9        0.000000       -0.275866         1    ;  uncertainty k = 0.208465
        11        12        13        27     9      180.000000        7.223174         2    ;  uncertainty k = 0.260369
        11        12        13        27     9        0.000000        0.706164         3    ;  uncertainty k = 0.161256
        11        12        13        27     9      180.000000        1.048776         4    ;  uncertainty k = 0.162566
        11        12        17        16     9        0.000000        0.101901         1    ;  uncertainty k = 0.156371
        11        12        17        16     9      180.000000        9.094351         2    ;  uncertainty k = 0.632402
        11        12        17        16     9        0.000000        1.349215         3    ;  uncertainty k = 0.287092
        11        12        17        16     9      180.000000        1.700277         4    ;  uncertainty k = 0.195318
        11        12        17        30     9        0.000000       -0.275866         1    ;  uncertainty k = 0.208465
        11        12        17        30     9      180.000000        7.223174         2    ;  uncertainty k = 0.260371
        11        12        17        30     9        0.000000        0.706164         3    ;  uncertainty k = 0.161255
        11        12        17        30     9      180.000000        1.048775         4    ;  uncertainty k = 0.162566
        12        11         9        26     9        0.000000        0.935294         1    ;  uncertainty k = 0.183836
        12        11         9        26     9      180.000000        4.764559         2    ;  uncertainty k = 0.912455
        12        11         9        26     9        0.000000        1.372297         3    ;  uncertainty k = 0.242006
        12        11         9        26     9      180.000000       -0.090101         4    ;  uncertainty k = 0.269759
        12        13        14        15     9        0.000000       -0.133648         1    ;  uncertainty k = 0.232408
        12        13        14        15     9      180.000000       12.534119         2    ;  uncertainty k = 0.264132
        12        13        14        15     9        0.000000       -0.659583         3    ;  uncertainty k = 0.473408
        12        13        14        15     9      180.000000        0.896721         4    ;  uncertainty k = 0.301178
        12        13        14        28     9        0.000000        0.104452         1    ;  uncertainty k = 0.123159
        12        13        14        28     9      180.000000        8.153177         2    ;  uncertainty k = 0.285565
        12        13        14        28     9        0.000000        1.386423         3    ;  uncertainty k = 0.199866
        12        13        14        28     9      180.000000        1.841381         4    ;  uncertainty k = 0.178837
        12        17        16        15     9        0.000000       -0.133648         1    ;  uncertainty k = 0.232408
        12        17        16        15     9      180.000000       12.534119         2    ;  uncertainty k = 0.264132
        12        17        16        15     9        0.000000       -0.659583         3    ;  uncertainty k = 0.473408
        12        17        16        15     9      180.000000        0.896721         4    ;  uncertainty k = 0.301178
        12        17        16        29     9        0.000000        0.104451         1    ;  uncertainty k = 0.123158
        12        17        16        29     9      180.000000        8.153176         2    ;  uncertainty k = 0.285563
        12        17        16        29     9        0.000000        1.386423         3    ;  uncertainty k = 0.199867
        12        17        16        29     9      180.000000        1.841381         4    ;  uncertainty k = 0.178837
        13        12        17        16     9        0.000000        0.055276         1    ;  uncertainty k = 0.149139
        13        12        17        16     9      180.000000       10.940930         2    ;  uncertainty k = 0.285081
        13        12        17        16     9        0.000000       -0.595107         3    ;  uncertainty k = 0.165960
        13        12        17        16     9      180.000000        0.949928         4    ;  uncertainty k = 0.261174
        13        12        17        30     9        0.000000        0.065424         1    ;  uncertainty k = 0.154406
        13        12        17        30     9      180.000000        6.880289         2    ;  uncertainty k = 0.569493
        13        12        17        30     9        0.000000        1.307045         3    ;  uncertainty k = 0.238387
        13        12        17        30     9      180.000000        1.580984         4    ;  uncertainty k = 0.264455
        13        14        15        16     9        0.000000       -0.145838         1    ;  uncertainty k = 0.090645
        13        14        15        16     9      180.000000       11.057201         2    ;  uncertainty k = 0.371394
        13        14        15        16     9        0.000000       -0.343350         3    ;  uncertainty k = 0.267016
        13        14        15        16     9      180.000000        0.889288         4    ;  uncertainty k = 0.302073
        13        14        15        18     9        0.000000        0.213012         1    ;  uncertainty k = 0.165870
        13        14        15        18     9      180.000000        8.409903         2    ;  uncertainty k = 0.512358
        13        14        15        18     9        0.000000        1.391291         3    ;  uncertainty k = 0.345930
        13        14        15        18     9      180.000000        1.926967         4    ;  uncertainty k = 0.263557
        14        13        12        17     9        0.000000        0.055276         1    ;  uncertainty k = 0.149139
        14        13        12        17     9      180.000000       10.940930         2    ;  uncertainty k = 0.285081
        14        13        12        17     9        0.000000       -0.595107         3    ;  uncertainty k = 0.165960
        14        13        12        17     9      180.000000        0.949928         4    ;  uncertainty k = 0.261174
        14        15        16        17     9        0.000000       -0.145838         1    ;  uncertainty k = 0.090645
        14        15        16        17     9      180.000000       11.057201         2    ;  uncertainty k = 0.371394
        14        15        16        17     9        0.000000       -0.343350         3    ;  uncertainty k = 0.267016
        14        15        16        17     9      180.000000        0.889288         4    ;  uncertainty k = 0.302073
        14        15        16        29     9        0.000000        0.099411         1    ;  uncertainty k = 0.169149
        14        15        16        29     9      180.000000        7.277332         2    ;  uncertainty k = 0.487638
        14        15        16        29     9        0.000000        1.399667         3    ;  uncertainty k = 0.329314
        14        15        16        29     9      180.000000        1.678522         4    ;  uncertainty k = 0.191976
        14        15        18        19     9        0.000000       -1.219996         1    ;  uncertainty k = 0.274824
        14        15        18        19     9      180.000000        3.868486         2    ;  uncertainty k = 0.116802
        14        15        18        19     9        0.000000        0.651180         3    ;  uncertainty k = 0.135170
        14        15        18        19     9      180.000000        0.512033         4    ;  uncertainty k = 0.043839
        14        15        18        20     9        0.000000       -0.409205         1    ;  uncertainty k = 0.095576
        14        15        18        20     9      180.000000        2.717206         2    ;  uncertainty k = 0.115248
        14        15        18        20     9        0.000000        0.444819         3    ;  uncertainty k = 0.108147
        14        15        18        20     9      180.000000        0.287592         4    ;  uncertainty k = 0.049350
        14        15        18        21     9        0.000000       -0.409205         1    ;  uncertainty k = 0.095576
        14        15        18        21     9      180.000000        2.717206         2    ;  uncertainty k = 0.115248
        14        15        18        21     9        0.000000        0.444819         3    ;  uncertainty k = 0.108147
        14        15        18        21     9      180.000000        0.287592         4    ;  uncertainty k = 0.049350
        15        14        13        27     9        0.000000       -0.030725         1    ;  uncertainty k = 0.185677
        15        14        13        27     9      180.000000        7.531826         2    ;  uncertainty k = 0.200235
        15        14        13        27     9        0.000000        1.277586         3    ;  uncertainty k = 0.254720
        15        14        13        27     9      180.000000        1.862935         4    ;  uncertainty k = 0.207129
        15        16        17        30     9        0.000000       -0.030722         1    ;  uncertainty k = 0.185677
        15        16        17        30     9      180.000000        7.531827         2    ;  uncertainty k = 0.200235
        15        16        17        30     9        0.000000        1.277587         3    ;  uncertainty k = 0.254720
        15        16        17        30     9      180.000000        1.862935         4    ;  uncertainty k = 0.207130
        15        18        19        31     9        0.000000       14.991890         1    ;  uncertainty k = 0.177214
        15        18        19        31     9      180.000000       -3.682074         2    ;  uncertainty k = 0.239405
        15        18        19        31     9        0.000000        0.980423         3    ;  uncertainty k = 0.057177
        15        18        19        31     9      180.000000        0.176294         4    ;  uncertainty k = 0.044986
        15        18        20        32     9        0.000000        0.351770         1    ;  uncertainty k = 0.319275
        15        18        20        32     9      180.000000       -0.223483         2    ;  uncertainty k = 0.173254
        15        18        20        32     9        0.000000        0.715961         3    ;  uncertainty k = 0.098047
        15        18        20        32     9      180.000000       -0.000790         4    ;  uncertainty k = 0.041032
        15        18        20        33     9        0.000000        0.351770         1    ;  uncertainty k = 0.319275
        15        18        20        33     9      180.000000       -0.223483         2    ;  uncertainty k = 0.173254
        15        18        20        33     9        0.000000        0.715961         3    ;  uncertainty k = 0.098047
        15        18        20        33     9      180.000000       -0.000790         4    ;  uncertainty k = 0.041032
        15        18        20        34     9        0.000000        0.351770         1    ;  uncertainty k = 0.319275
        15        18        20        34     9      180.000000       -0.223483         2    ;  uncertainty k = 0.173254
        15        18        20        34     9        0.000000        0.715961         3    ;  uncertainty k = 0.098047
        15        18        20        34     9      180.000000       -0.000790         4    ;  uncertainty k = 0.041032
        15        18        21        35     9        0.000000        0.351770         1    ;  uncertainty k = 0.319275
        15        18        21        35     9      180.000000       -0.223483         2    ;  uncertainty k = 0.173254
        15        18        21        35     9        0.000000        0.715961         3    ;  uncertainty k = 0.098047
        15        18        21        35     9      180.000000       -0.000790         4    ;  uncertainty k = 0.041032
        15        18        21        36     9        0.000000        0.351770         1    ;  uncertainty k = 0.319275
        15        18        21        36     9      180.000000       -0.223483         2    ;  uncertainty k = 0.173254
        15        18        21        36     9        0.000000        0.715961         3    ;  uncertainty k = 0.098047
        15        18        21        36     9      180.000000       -0.000790         4    ;  uncertainty k = 0.041032
        15        18        21        37     9        0.000000        0.351770         1    ;  uncertainty k = 0.319275
        15        18        21        37     9      180.000000       -0.223483         2    ;  uncertainty k = 0.173254
        15        18        21        37     9        0.000000        0.715961         3    ;  uncertainty k = 0.098047
        15        18        21        37     9      180.000000       -0.000790         4    ;  uncertainty k = 0.041032
        16        15        14        28     9        0.000000        0.099411         1    ;  uncertainty k = 0.169149
        16        15        14        28     9      180.000000        7.277331         2    ;  uncertainty k = 0.487638
        16        15        14        28     9        0.000000        1.399666         3    ;  uncertainty k = 0.329314
        16        15        14        28     9      180.000000        1.678522         4    ;  uncertainty k = 0.191976
        16        15        18        19     9        0.000000       -1.219996         1    ;  uncertainty k = 0.274824
        16        15        18        19     9      180.000000        3.868486         2    ;  uncertainty k = 0.116802
        16        15        18        19     9        0.000000        0.651180         3    ;  uncertainty k = 0.135170
        16        15        18        19     9      180.000000        0.512033         4    ;  uncertainty k = 0.043839
        16        15        18        20     9        0.000000       -0.409205         1    ;  uncertainty k = 0.095576
        16        15        18        20     9      180.000000        2.717206         2    ;  uncertainty k = 0.115248
        16        15        18        20     9        0.000000        0.444819         3    ;  uncertainty k = 0.108147
        16        15        18        20     9      180.000000        0.287592         4    ;  uncertainty k = 0.049350
        16        15        18        21     9        0.000000       -0.409205         1    ;  uncertainty k = 0.095576
        16        15        18        21     9      180.000000        2.717206         2    ;  uncertainty k = 0.115248
        16        15        18        21     9        0.000000        0.444819         3    ;  uncertainty k = 0.108147
        16        15        18        21     9      180.000000        0.287592         4    ;  uncertainty k = 0.049350
        17        12        13        27     9        0.000000        0.065425         1    ;  uncertainty k = 0.154407
        17        12        13        27     9      180.000000        6.880288         2    ;  uncertainty k = 0.569492
        17        12        13        27     9        0.000000        1.307045         3    ;  uncertainty k = 0.238388
        17        12        13        27     9      180.000000        1.580984         4    ;  uncertainty k = 0.264455
        17        16        15        18     9        0.000000        0.213012         1    ;  uncertainty k = 0.165870
        17        16        15        18     9      180.000000        8.409903         2    ;  uncertainty k = 0.512358
        17        16        15        18     9        0.000000        1.391291         3    ;  uncertainty k = 0.345930
        17        16        15        18     9      180.000000        1.926967         4    ;  uncertainty k = 0.263557
        18        15        14        28     9        0.000000       -0.074274         1    ;  uncertainty k = 0.468916
        18        15        14        28     9      180.000000        7.722559         2    ;  uncertainty k = 0.204459
        18        15        14        28     9        0.000000        0.599783         3    ;  uncertainty k = 0.298353
        18        15        14        28     9      180.000000        0.966283         4    ;  uncertainty k = 0.105372
        18        15        16        29     9        0.000000       -0.074274         1    ;  uncertainty k = 0.468916
        18        15        16        29     9      180.000000        7.722559         2    ;  uncertainty k = 0.204459
        18        15        16        29     9        0.000000        0.599783         3    ;  uncertainty k = 0.298353
        18        15        16        29     9      180.000000        0.966283         4    ;  uncertainty k = 0.105372
        19        18        20        32     9        0.000000       -1.961844         1    ;  uncertainty k = 0.551181
        19        18        20        32     9      180.000000       -0.960261         2    ;  uncertainty k = 0.282481
        19        18        20        32     9        0.000000        0.831230         3    ;  uncertainty k = 0.087293
        19        18        20        32     9      180.000000       -0.214593         4    ;  uncertainty k = 0.050560
        19        18        20        33     9        0.000000       -1.961844         1    ;  uncertainty k = 0.551181
        19        18        20        33     9      180.000000       -0.960261         2    ;  uncertainty k = 0.282481
        19        18        20        33     9        0.000000        0.831230         3    ;  uncertainty k = 0.087293
        19        18        20        33     9      180.000000       -0.214593         4    ;  uncertainty k = 0.050560
        19        18        20        34     9        0.000000       -1.961844         1    ;  uncertainty k = 0.551181
        19        18        20        34     9      180.000000       -0.960261         2    ;  uncertainty k = 0.282481
        19        18        20        34     9        0.000000        0.831230         3    ;  uncertainty k = 0.087293
        19        18        20        34     9      180.000000       -0.214593         4    ;  uncertainty k = 0.050560
        19        18        21        35     9        0.000000       -1.961844         1    ;  uncertainty k = 0.551181
        19        18        21        35     9      180.000000       -0.960261         2    ;  uncertainty k = 0.282481
        19        18        21        35     9        0.000000        0.831230         3    ;  uncertainty k = 0.087293
        19        18        21        35     9      180.000000       -0.214593         4    ;  uncertainty k = 0.050560
        19        18        21        36     9        0.000000       -1.961844         1    ;  uncertainty k = 0.551181
        19        18        21        36     9      180.000000       -0.960261         2    ;  uncertainty k = 0.282481
        19        18        21        36     9        0.000000        0.831230         3    ;  uncertainty k = 0.087293
        19        18        21        36     9      180.000000       -0.214593         4    ;  uncertainty k = 0.050560
        19        18        21        37     9        0.000000       -1.961844         1    ;  uncertainty k = 0.551181
        19        18        21        37     9      180.000000       -0.960261         2    ;  uncertainty k = 0.282481
        19        18        21        37     9        0.000000        0.831230         3    ;  uncertainty k = 0.087293
        19        18        21        37     9      180.000000       -0.214593         4    ;  uncertainty k = 0.050560
        20        18        19        31     9        0.000000       12.662224         1    ;  uncertainty k = 0.317843
        20        18        19        31     9      180.000000       -1.675061         2    ;  uncertainty k = 0.239562
        20        18        19        31     9        0.000000        1.060161         3    ;  uncertainty k = 0.149525
        20        18        19        31     9      180.000000        0.360746         4    ;  uncertainty k = 0.102772
        20        18        21        35     9        0.000000       -1.125963         1    ;  uncertainty k = 0.230765
        20        18        21        35     9      180.000000       -0.047878         2    ;  uncertainty k = 0.090864
        20        18        21        35     9        0.000000        0.742644         3    ;  uncertainty k = 0.072669
        20        18        21        35     9      180.000000       -0.033077         4    ;  uncertainty k = 0.054936
        20        18        21        36     9        0.000000       -1.125963         1    ;  uncertainty k = 0.230765
        20        18        21        36     9      180.000000       -0.047878         2    ;  uncertainty k = 0.090864
        20        18        21        36     9        0.000000        0.742644         3    ;  uncertainty k = 0.072669
        20        18        21        36     9      180.000000       -0.033077         4    ;  uncertainty k = 0.054936
        20        18        21        37     9        0.000000       -1.125963         1    ;  uncertainty k = 0.230765
        20        18        21        37     9      180.000000       -0.047878         2    ;  uncertainty k = 0.090864
        20        18        21        37     9        0.000000        0.742644         3    ;  uncertainty k = 0.072669
        20        18        21        37     9      180.000000       -0.033077         4    ;  uncertainty k = 0.054936
        21        18        19        31     9        0.000000       12.662224         1    ;  uncertainty k = 0.317843
        21        18        19        31     9      180.000000       -1.675061         2    ;  uncertainty k = 0.239562
        21        18        19        31     9        0.000000        1.060161         3    ;  uncertainty k = 0.149525
        21        18        19        31     9      180.000000        0.360746         4    ;  uncertainty k = 0.102772
        21        18        20        32     9        0.000000       -1.125963         1    ;  uncertainty k = 0.230765
        21        18        20        32     9      180.000000       -0.047878         2    ;  uncertainty k = 0.090864
        21        18        20        32     9        0.000000        0.742644         3    ;  uncertainty k = 0.072669
        21        18        20        32     9      180.000000       -0.033077         4    ;  uncertainty k = 0.054936
        21        18        20        33     9        0.000000       -1.125963         1    ;  uncertainty k = 0.230765
        21        18        20        33     9      180.000000       -0.047878         2    ;  uncertainty k = 0.090864
        21        18        20        33     9        0.000000        0.742644         3    ;  uncertainty k = 0.072669
        21        18        20        33     9      180.000000       -0.033077         4    ;  uncertainty k = 0.054936
        21        18        20        34     9        0.000000       -1.125963         1    ;  uncertainty k = 0.230765
        21        18        20        34     9      180.000000       -0.047878         2    ;  uncertainty k = 0.090864
        21        18        20        34     9        0.000000        0.742644         3    ;  uncertainty k = 0.072669
        21        18        20        34     9      180.000000       -0.033077         4    ;  uncertainty k = 0.054936
        22         7         6        25     9        0.000000       -0.216704         1    ;  uncertainty k = 0.409536
        22         7         6        25     9      180.000000       10.259821         2    ;  uncertainty k = 0.490963
        22         7         6        25     9        0.000000        0.967574         3    ;  uncertainty k = 0.230476
        22         7         6        25     9      180.000000        1.206870         4    ;  uncertainty k = 0.260165
        23         1         3        24     9        0.000000       -0.083831         1    ;  uncertainty k = 0.218844
        23         1         3        24     9      180.000000        8.468850         2    ;  uncertainty k = 0.358010
        23         1         3        24     9        0.000000       -0.200767         3    ;  uncertainty k = 0.290442
        23         1         3        24     9      180.000000        0.245142         4    ;  uncertainty k = 0.201178
        24         3         6        25     9        0.000000        0.058462         1    ;  uncertainty k = 0.307521
        24         3         6        25     9      180.000000        7.444696         2    ;  uncertainty k = 0.505441
        24         3         6        25     9        0.000000       -0.349862         3    ;  uncertainty k = 0.323183
        24         3         6        25     9      180.000000        0.069575         4    ;  uncertainty k = 0.213131
        27        13        14        28     9        0.000000       -0.117735         1    ;  uncertainty k = 0.210280
        27        13        14        28     9      180.000000        8.002242         2    ;  uncertainty k = 0.460743
        27        13        14        28     9        0.000000       -0.392489         3    ;  uncertainty k = 0.200264
        27        13        14        28     9      180.000000        0.296121         4    ;  uncertainty k = 0.231306
        29        16        17        30     9        0.000000       -0.117735         1    ;  uncertainty k = 0.210280
        29        16        17        30     9      180.000000        8.002243         2    ;  uncertainty k = 0.460743
        29        16        17        30     9        0.000000       -0.392489         3    ;  uncertainty k = 0.200264
        29        16        17        30     9      180.000000        0.296121         4    ;  uncertainty k = 0.231306

[ dihedrals ] ; impropers
;       ai        aj        ak        al funct           phase               k        pn
         1         2         3        23     4      180.000000        1.931429         2    ;  uncertainty k = 0.500635
         1         3        23         2     4      180.000000        1.931429         2    ;  uncertainty k = 0.500635
         1        23         2         3     4      180.000000        1.931429         2    ;  uncertainty k = 0.500635
         2         1         4         5     4      180.000000       23.480555         2    ;  uncertainty k = 0.057035
         2         4         5         1     4      180.000000       23.480555         2    ;  uncertainty k = 0.057035
         2         5         1         4     4      180.000000       23.480555         2    ;  uncertainty k = 0.057035
         3         1         6        24     4      180.000000        5.859451         2    ;  uncertainty k = 0.105223
         3         6        24         1     4      180.000000        5.859451         2    ;  uncertainty k = 0.105223
         3        24         1         6     4      180.000000        5.859451         2    ;  uncertainty k = 0.105223
         4         2         7         8     4      180.000000        4.643242         2    ;  uncertainty k = 0.492652
         4         7         8         2     4      180.000000        4.643242         2    ;  uncertainty k = 0.492652
         4         8         2         7     4      180.000000        4.643242         2    ;  uncertainty k = 0.492652
         6         3         7        25     4      180.000000        1.739763         2    ;  uncertainty k = 0.424620
         6         7        25         3     4      180.000000        1.739763         2    ;  uncertainty k = 0.424620
         6        25         3         7     4      180.000000        1.739763         2    ;  uncertainty k = 0.424620
         7         4         6        22     4      180.000000       19.114752         2    ;  uncertainty k = 0.170767
         7         6        22         4     4      180.000000       19.114752         2    ;  uncertainty k = 0.170767
         7        22         4         6     4      180.000000       19.114752         2    ;  uncertainty k = 0.170767
         8         4         9        10     4      180.000000       51.737816         2    ;  uncertainty k = 0.018929
         8         9        10         4     4      180.000000       51.737816         2    ;  uncertainty k = 0.018929
         8        10         4         9     4      180.000000       51.737816         2    ;  uncertainty k = 0.018929
         9         8        11        26     4      180.000000        0.695193         2    ;  uncertainty k = 0.666416
         9        11        26         8     4      180.000000        0.695193         2    ;  uncertainty k = 0.666416
         9        26         8        11     4      180.000000        0.695193         2    ;  uncertainty k = 0.666416
        11         5         9        12     4      180.000000       30.940913         2    ;  uncertainty k = 0.033068
        11         9        12         5     4      180.000000       30.940913         2    ;  uncertainty k = 0.033068
        11        12         5         9     4      180.000000       30.940913         2    ;  uncertainty k = 0.033068
        12        11        13        17     4      180.000000        8.897301         2    ;  uncertainty k = 0.236668
        12        13        17        11     4      180.000000        8.897301         2    ;  uncertainty k = 0.236668
        12        17        11        13     4      180.000000        8.897301         2    ;  uncertainty k = 0.236668
        13        12        14        27     4      180.000000        4.118158         2    ;  uncertainty k = 0.143895
        13        14        27        12     4      180.000000        4.118158         2    ;  uncertainty k = 0.143895
        13        27        12        14     4      180.000000        4.118158         2    ;  uncertainty k = 0.143895
        14        13        15        28     4      180.000000        3.498636         2    ;  uncertainty k = 0.120340
        14        15        28        13     4      180.000000        3.498636         2    ;  uncertainty k = 0.120340
        14        28        13        15     4      180.000000        3.498636         2    ;  uncertainty k = 0.120340
        15        14        16        18     4      180.000000       13.022908         2    ;  uncertainty k = 0.059644
        15        16        18        14     4      180.000000       13.022908         2    ;  uncertainty k = 0.059644
        15        18        14        16     4      180.000000       13.022908         2    ;  uncertainty k = 0.059644
        16        15        17        29     4      180.000000        3.498636         2    ;  uncertainty k = 0.120340
        16        17        29        15     4      180.000000        3.498636         2    ;  uncertainty k = 0.120340
        16        29        15        17     4      180.000000        3.498636         2    ;  uncertainty k = 0.120340
        17        12        16        30     4      180.000000        4.118156         2    ;  uncertainty k = 0.143895
        17        16        30        12     4      180.000000        4.118156         2    ;  uncertainty k = 0.143895
        17        30        12        16     4      180.000000        4.118156         2    ;  uncertainty k = 0.143895

[ pairs ]
;       ai        aj funct
         1         7     1
         1         8     1
         1        11     1
         1        25     1
         2         6     1
         2         9     1
         2        10     1
         2        12     1
         2        22     1
         2        24     1
         3         4     1
         3         5     1
         3        22     1
         4        11     1
         4        23     1
         4        25     1
         4        26     1
         5         7     1
         5         8     1
         5        13     1
         5        17     1
         5        23     1
         5        26     1
         6         8     1
         6        23     1
         7         9     1
         7        10     1
         7        24     1
         8        12     1
         8        22     1
         9        13     1
         9        17     1
        10        11     1
        10        26     1
        11        14     1
        11        16     1
        11        27     1
        11        30     1
        12        15     1
        12        26     1
        12        28     1
        12        29     1
        13        16     1
        13        18     1
        13        30     1
        14        17     1
        14        19     1
        14        20     1
        14        21     1
        14        29     1
        15        27     1
        15        30     1
        15        31     1
        15        32     1
        15        33     1
        15        34     1
        15        35     1
        15        36     1
        15        37     1
        16        19     1
        16        20     1
        16        21     1
        16        28     1
        17        18     1
        17        27     1
        18        28     1
        18        29     1
        19        32     1
        19        33     1
        19        34     1
        19        35     1
        19        36     1
        19        37     1
        20        31     1
        20        35     1
        20        36     1
        20        37     1
        21        31     1
        21        32     1
        21        33     1
        21        34     1
        22        25     1
        23        24     1
        24        25     1
        27        28     1
        29        30     1
