; ITP file created by ByteFF-joint-25, 2026-02-17 09:50:45.150618

[ atomtypes ]
;name           bonded.type        at.num        mass        charge   ptype           sigma         epsilon
 c0bf                                   6      0.0000       0.00000       A     3.31509e-01     4.13389e-01    ;  uncertainty sigma = 0.000003, epsilon = 0.000662
 c1bf                                   6      0.0000       0.00000       A     3.31532e-01     4.13181e-01    ;  uncertainty sigma = 0.000010, epsilon = 0.000993
 c2bf                                   6      0.0000       0.00000       A     3.31523e-01     4.13317e-01    ;  uncertainty sigma = 0.000004, epsilon = 0.000533
 c3bf                                   6      0.0000       0.00000       A     3.31547e-01     4.13871e-01    ;  uncertainty sigma = 0.000010, epsilon = 0.000770
 n4bf                                   7      0.0000       0.00000       A     3.38420e-01     3.93559e-01    ;  uncertainty sigma = 0.000016, epsilon = 0.001456
 c5bf                                   6      0.0000       0.00000       A     3.31508e-01     4.13375e-01    ;  uncertainty sigma = 0.000006, epsilon = 0.000570
 c6bf                                   6      0.0000       0.00000       A     3.31514e-01     4.13380e-01    ;  uncertainty sigma = 0.000006, epsilon = 0.000759
 f7bf                                   9      0.0000       0.00000       A     3.03425e-01     3.47959e-01    ;  uncertainty sigma = 0.000016, epsilon = 0.000686
 c8bf                                   6      0.0000       0.00000       A     3.31538e-01     4.13505e-01    ;  uncertainty sigma = 0.000008, epsilon = 0.001165
 n9bf                                   7      0.0000       0.00000       A     3.26867e-01     4.92512e-01    ;  uncertainty sigma = 0.000088, epsilon = 0.003430
 o10bf                                  8      0.0000       0.00000       A     3.04814e-01     6.11899e-01    ;  uncertainty sigma = 0.000014, epsilon = 0.001624
 c11bf                                  6      0.0000       0.00000       A     3.31512e-01     4.12851e-01    ;  uncertainty sigma = 0.000012, epsilon = 0.001342
 c12bf                                  6      0.0000       0.00000       A     3.31501e-01     4.12880e-01    ;  uncertainty sigma = 0.000017, epsilon = 0.001089
 c13bf                                  6      0.0000       0.00000       A     3.31519e-01     4.13337e-01    ;  uncertainty sigma = 0.000004, epsilon = 0.000604
 c14bf                                  6      0.0000       0.00000       A     3.31522e-01     4.13196e-01    ;  uncertainty sigma = 0.000004, epsilon = 0.000447
 c15bf                                  6      0.0000       0.00000       A     3.31544e-01     4.13202e-01    ;  uncertainty sigma = 0.000004, epsilon = 0.001200
 c16bf                                  6      0.0000       0.00000       A     3.31522e-01     4.13196e-01    ;  uncertainty sigma = 0.000004, epsilon = 0.000447
 c17bf                                  6      0.0000       0.00000       A     3.31519e-01     4.13337e-01    ;  uncertainty sigma = 0.000004, epsilon = 0.000604
 c18bf                                  6      0.0000       0.00000       A     3.39755e-01     4.50272e-01    ;  uncertainty sigma = 0.000025, epsilon = 0.001042
 o19bf                                  8      0.0000       0.00000       A     3.24292e-01     3.89709e-01    ;  uncertainty sigma = 0.000031, epsilon = 0.001714
 c20bf                                  6      0.0000       0.00000       A     3.39763e-01     4.50805e-01    ;  uncertainty sigma = 0.000004, epsilon = 0.000470
 c21bf                                  6      0.0000       0.00000       A     3.39763e-01     4.50805e-01    ;  uncertainty sigma = 0.000004, epsilon = 0.000470
 h22bf                                  1      0.0000       0.00000       A     2.62558e-01     6.69933e-02    ;  uncertainty sigma = 0.000012, epsilon = 0.000629
 h23bf                                  1      0.0000       0.00000       A     2.62557e-01     6.70626e-02    ;  uncertainty sigma = 0.000009, epsilon = 0.000557
 h24bf                                  1      0.0000       0.00000       A     2.62584e-01     6.68454e-02    ;  uncertainty sigma = 0.000019, epsilon = 0.000520
 h25bf                                  1      0.0000       0.00000       A     1.10651e-01     4.13762e-02    ;  uncertainty sigma = 0.000058, epsilon = 0.001253
 h26bf                                  1      0.0000       0.00000       A     2.62567e-01     6.70632e-02    ;  uncertainty sigma = 0.000011, epsilon = 0.000557
 h27bf                                  1      0.0000       0.00000       A     2.62556e-01     6.70460e-02    ;  uncertainty sigma = 0.000009, epsilon = 0.000514
 h28bf                                  1      0.0000       0.00000       A     2.62556e-01     6.70460e-02    ;  uncertainty sigma = 0.000009, epsilon = 0.000514
 h29bf                                  1      0.0000       0.00000       A     2.62567e-01     6.70633e-02    ;  uncertainty sigma = 0.000011, epsilon = 0.000557
 h30bf                                  1      0.0000       0.00000       A     5.37866e-02     1.91555e-02    ;  uncertainty sigma = 0.000161, epsilon = 0.001189
 h31bf                                  1      0.0000       0.00000       A     2.60031e-01     8.67183e-02    ;  uncertainty sigma = 0.000009, epsilon = 0.000447
 h32bf                                  1      0.0000       0.00000       A     2.60031e-01     8.67183e-02    ;  uncertainty sigma = 0.000009, epsilon = 0.000447
 h33bf                                  1      0.0000       0.00000       A     2.60031e-01     8.67183e-02    ;  uncertainty sigma = 0.000009, epsilon = 0.000447
 h34bf                                  1      0.0000       0.00000       A     2.60031e-01     8.67183e-02    ;  uncertainty sigma = 0.000009, epsilon = 0.000447
 h35bf                                  1      0.0000       0.00000       A     2.60031e-01     8.67183e-02    ;  uncertainty sigma = 0.000009, epsilon = 0.000447
 h36bf                                  1      0.0000       0.00000       A     2.60031e-01     8.67183e-02    ;  uncertainty sigma = 0.000009, epsilon = 0.000447

[ moleculetype ]
;name             nrexcl
 MOL                   3

[ atoms ]
;       nr            type      resi   res      atom      cgnr      charge          mass ; qtot
         1            c0bf         1   UNL        c0         1    -0.10135       12.0110 ; qtot   -0.101
         2            c1bf         1   UNL        c1         2     0.17920       12.0110 ; qtot    0.078
         3            c2bf         1   UNL        c2         3    -0.12598       12.0110 ; qtot   -0.048
         4            c3bf         1   UNL        c3         4    -0.18212       12.0110 ; qtot   -0.230
         5            n4bf         1   UNL        n4         5    -0.62332       14.0070 ; qtot   -0.854
         6            c5bf         1   UNL        c5         6     0.10691       12.0110 ; qtot   -0.747
         7            c6bf         1   UNL        c6         7    -0.09763       12.0110 ; qtot   -0.844
         8            f7bf         1   UNL        f7         8    -0.13638       18.9980 ; qtot   -0.981
         9            c8bf         1   UNL        c8         9     0.71928       12.0110 ; qtot   -0.261
        10            n9bf         1   UNL        n9        10    -0.50680       14.0070 ; qtot   -0.768
        11           o10bf         1   UNL       o10        11    -0.60449       15.9990 ; qtot   -1.373
        12           c11bf         1   UNL       c11        12     0.56635       12.0110 ; qtot   -0.806
        13           c12bf         1   UNL       c12        13    -0.15129       12.0110 ; qtot   -0.958
        14           c13bf         1   UNL       c13        14    -0.08668       12.0110 ; qtot   -1.044
        15           c14bf         1   UNL       c14        15    -0.12388       12.0110 ; qtot   -1.168
        16           c15bf         1   UNL       c15        16    -0.08876       12.0110 ; qtot   -1.257
        17           c16bf         1   UNL       c16        17    -0.12388       12.0110 ; qtot   -1.381
        18           c17bf         1   UNL       c17        18    -0.08668       12.0110 ; qtot   -1.468
        19           c18bf         1   UNL       c18        19     0.20190       12.0110 ; qtot   -1.266
        20           o19bf         1   UNL       o19        20    -0.60342       15.9990 ; qtot   -1.869
        21           c20bf         1   UNL       c20        21    -0.10277       12.0110 ; qtot   -1.972
        22           c21bf         1   UNL       c21        22    -0.10277       12.0110 ; qtot   -2.075
        23           h22bf         1   UNL       h22        23     0.15981        1.0080 ; qtot   -1.915
        24           h23bf         1   UNL       h23        24     0.15611        1.0080 ; qtot   -1.759
        25           h24bf         1   UNL       h24        25     0.17554        1.0080 ; qtot   -1.583
        26           h25bf         1   UNL       h25        26     0.33625        1.0080 ; qtot   -1.247
        27           h26bf         1   UNL       h26        27     0.14623        1.0080 ; qtot   -1.101
        28           h27bf         1   UNL       h27        28     0.14030        1.0080 ; qtot   -0.960
        29           h28bf         1   UNL       h28        29     0.14030        1.0080 ; qtot   -0.820
        30           h29bf         1   UNL       h29        30     0.14623        1.0080 ; qtot   -0.674
        31           h30bf         1   UNL       h30        31     0.40249        1.0080 ; qtot   -0.271
        32           h31bf         1   UNL       h31        32     0.04522        1.0080 ; qtot   -0.226
        33           h32bf         1   UNL       h32        33     0.04522        1.0080 ; qtot   -0.181
        34           h33bf         1   UNL       h33        34     0.04522        1.0080 ; qtot   -0.136
        35           h34bf         1   UNL       h34        35     0.04522        1.0080 ; qtot   -0.090
        36           h35bf         1   UNL       h35        36     0.04522        1.0080 ; qtot   -0.045
        37           h36bf         1   UNL       h36        37     0.04520        1.0080 ; qtot    0.000

[ bonds ]
;       ai        aj funct               r               k
         1         2     1        0.140964   350832.205029    ;  uncertainty r = 0.000032, k = 4.629232
         1         3     1        0.138302   386095.505566    ;  uncertainty r = 0.000059, k = 4.599888
         1        23     1        0.108708   336704.616455    ;  uncertainty r = 0.000019, k = 1.942434
         2         4     1        0.141709   385237.969434    ;  uncertainty r = 0.000054, k = 10.311958
         2         5     1        0.138675   292907.452393    ;  uncertainty r = 0.000100, k = 22.573795
         3         6     1        0.140315   344554.851563    ;  uncertainty r = 0.000060, k = 7.146609
         3        24     1        0.108763   336320.308496    ;  uncertainty r = 0.000023, k = 0.938600
         4         7     1        0.139898   369180.720264    ;  uncertainty r = 0.000058, k = 4.441355
         4         9     1        0.146536   264613.892969    ;  uncertainty r = 0.000056, k = 18.208748
         5        12     1        0.129809   466468.756348    ;  uncertainty r = 0.000049, k = 7.919414
         6         7     1        0.138124   355371.196387    ;  uncertainty r = 0.000071, k = 8.089235
         6         8     1        0.135438   338566.118506    ;  uncertainty r = 0.000088, k = 4.182305
         7        25     1        0.108596   333125.437354    ;  uncertainty r = 0.000025, k = 2.230261
         9        10     1        0.140241   444690.658398    ;  uncertainty r = 0.000073, k = 13.079046
         9        11     1        0.123441   857064.411328    ;  uncertainty r = 0.000099, k = 12.610759
        10        12     1        0.139072   297625.382275    ;  uncertainty r = 0.000069, k = 20.066683
        10        26     1        0.102058   454589.659180    ;  uncertainty r = 0.000027, k = 4.102090
        12        13     1        0.147341   266941.958008    ;  uncertainty r = 0.000109, k = 11.708942
        13        14     1        0.139881   350469.118408    ;  uncertainty r = 0.000059, k = 3.608169
        13        18     1        0.139881   350469.118408    ;  uncertainty r = 0.000059, k = 3.608169
        14        15     1        0.139215   359042.692139    ;  uncertainty r = 0.000045, k = 3.009361
        14        27     1        0.108751   333157.971631    ;  uncertainty r = 0.000045, k = 1.128363
        15        16     1        0.139630   349504.479639    ;  uncertainty r = 0.000022, k = 3.365375
        15        28     1        0.108801   333642.308447    ;  uncertainty r = 0.000019, k = 1.144891
        16        17     1        0.139630   349504.479639    ;  uncertainty r = 0.000022, k = 3.365375
        16        19     1        0.152147   213548.803735    ;  uncertainty r = 0.000097, k = 3.797993
        17        18     1        0.139215   359042.692139    ;  uncertainty r = 0.000045, k = 3.009361
        17        29     1        0.108801   333642.308447    ;  uncertainty r = 0.000019, k = 1.144913
        18        30     1        0.108751   333157.997168    ;  uncertainty r = 0.000045, k = 1.128360
        19        20     1        0.144782   263188.539209    ;  uncertainty r = 0.000100, k = 11.942337
        19        21     1        0.153487   207492.767627    ;  uncertainty r = 0.000036, k = 5.323961
        19        22     1        0.153487   207492.767627    ;  uncertainty r = 0.000036, k = 5.323961
        20        31     1        0.097230   467409.339160    ;  uncertainty r = 0.000030, k = 3.616158
        21        32     1        0.109572   309908.578662    ;  uncertainty r = 0.000020, k = 1.196954
        21        33     1        0.109572   309908.578662    ;  uncertainty r = 0.000020, k = 1.196954
        21        34     1        0.109572   309908.578662    ;  uncertainty r = 0.000020, k = 1.196954
        22        35     1        0.109572   309908.578662    ;  uncertainty r = 0.000020, k = 1.196957
        22        36     1        0.109572   309908.578662    ;  uncertainty r = 0.000020, k = 1.196957
        22        37     1        0.109572   309908.578662    ;  uncertainty r = 0.000020, k = 1.196957

[ angles ]
;       ai        aj        ak funct           theta             cth
         1         2         4     1      119.134995      405.934571    ;  uncertainty theta = 0.003584, k = 0.232361
         1         2         5     1      119.959961      511.287405    ;  uncertainty theta = 0.010093, k = 0.072566
         1         3         6     1      119.123047      505.026663    ;  uncertainty theta = 0.003003, k = 0.103093
         1         3        24     1      120.849144      280.086036    ;  uncertainty theta = 0.001540, k = 0.061482
         2         1         3     1      119.036095      531.350028    ;  uncertainty theta = 0.002742, k = 0.145844
         2         1        23     1      120.508751      271.483126    ;  uncertainty theta = 0.003274, k = 0.096144
         2         4         7     1      121.777733      434.510277    ;  uncertainty theta = 0.001655, k = 0.211458
         2         4         9     1      117.297508      491.962516    ;  uncertainty theta = 0.006380, k = 0.238428
         2         5        12     1      115.240494      416.803867    ;  uncertainty theta = 0.006032, k = 0.412033
         3         1        23     1      121.081863      277.905199    ;  uncertainty theta = 0.001912, k = 0.023135
         3         6         7     1      124.230835      391.108491    ;  uncertainty theta = 0.005452, k = 0.270460
         3         6         8     1      118.443443      514.743533    ;  uncertainty theta = 0.002026, k = 0.040363
         4         2         5     1      123.497696      569.871194    ;  uncertainty theta = 0.006306, k = 0.143327
         4         7         6     1      118.287453      472.119161    ;  uncertainty theta = 0.002924, k = 0.132691
         4         7        25     1      120.828979      247.606536    ;  uncertainty theta = 0.006275, k = 0.079914
         4         9        10     1      108.865517      389.724125    ;  uncertainty theta = 0.007726, k = 0.270666
         4         9        11     1      128.088593      510.903263    ;  uncertainty theta = 0.002915, k = 0.145050
         5        12        10     1      123.678001      679.251166    ;  uncertainty theta = 0.005921, k = 0.135841
         5        12        13     1      122.676720      446.759790    ;  uncertainty theta = 0.003665, k = 0.151797
         6         3        24     1      120.507347      283.187997    ;  uncertainty theta = 0.002009, k = 0.088221
         6         7        25     1      121.686180      281.539576    ;  uncertainty theta = 0.002737, k = 0.087293
         7         4         9     1      117.958511      397.006702    ;  uncertainty theta = 0.003688, k = 0.159108
         7         6         8     1      118.829163      496.180609    ;  uncertainty theta = 0.001386, k = 0.097184
         9        10        12     1      121.146103      496.022693    ;  uncertainty theta = 0.003149, k = 0.185690
         9        10        26     1      115.307518      352.933705    ;  uncertainty theta = 0.006787, k = 0.132391
        10         9        11     1      124.920670      821.839978    ;  uncertainty theta = 0.002935, k = 0.080730
        10        12        13     1      116.651688      515.746791    ;  uncertainty theta = 0.005062, k = 0.242782
        12        10        26     1      116.804947      331.084697    ;  uncertainty theta = 0.006464, k = 0.239703
        12        13        14     1      117.981766      401.223070    ;  uncertainty theta = 0.002686, k = 0.115669
        12        13        18     1      117.981766      401.223070    ;  uncertainty theta = 0.002686, k = 0.115669
        13        14        15     1      121.936867      513.032419    ;  uncertainty theta = 0.001595, k = 0.037410
        13        14        27     1      118.373268      267.332069    ;  uncertainty theta = 0.002929, k = 0.046096
        13        18        17     1      121.936867      513.032419    ;  uncertainty theta = 0.001595, k = 0.037410
        13        18        30     1      118.373268      267.332037    ;  uncertainty theta = 0.002929, k = 0.046096
        14        13        18     1      120.778748      421.634435    ;  uncertainty theta = 0.002896, k = 0.258077
        14        15        16     1      121.733681      516.745292    ;  uncertainty theta = 0.002295, k = 0.052086
        14        15        28     1      119.605568      285.026126    ;  uncertainty theta = 0.002260, k = 0.028336
        15        14        27     1      120.211563      284.749144    ;  uncertainty theta = 0.002936, k = 0.063323
        15        16        17     1      119.700928      459.849474    ;  uncertainty theta = 0.002192, k = 0.105996
        15        16        19     1      119.835281      368.426622    ;  uncertainty theta = 0.004163, k = 0.173853
        16        15        28     1      118.678185      262.012993    ;  uncertainty theta = 0.001113, k = 0.066500
        16        17        18     1      121.733681      516.745292    ;  uncertainty theta = 0.002295, k = 0.052086
        16        17        29     1      118.678185      262.012993    ;  uncertainty theta = 0.001113, k = 0.066500
        16        19        20     1      109.685776      703.897222    ;  uncertainty theta = 0.001965, k = 0.142449
        16        19        21     1      109.715744      550.550008    ;  uncertainty theta = 0.001726, k = 0.033765
        16        19        22     1      109.715744      550.550008    ;  uncertainty theta = 0.001726, k = 0.033765
        17        16        19     1      119.835281      368.426622    ;  uncertainty theta = 0.004163, k = 0.173853
        17        18        30     1      120.211563      284.749144    ;  uncertainty theta = 0.002936, k = 0.063322
        18        17        29     1      119.605568      285.026158    ;  uncertainty theta = 0.002260, k = 0.028336
        19        20        31     1      107.710533      483.511393    ;  uncertainty theta = 0.002078, k = 0.098569
        19        21        32     1      107.275742      375.507520    ;  uncertainty theta = 0.000927, k = 0.039228
        19        21        33     1      107.275742      375.507520    ;  uncertainty theta = 0.000927, k = 0.039228
        19        21        34     1      107.275742      375.507520    ;  uncertainty theta = 0.000927, k = 0.039228
        19        22        35     1      107.275742      375.507520    ;  uncertainty theta = 0.000927, k = 0.039228
        19        22        36     1      107.275742      375.507520    ;  uncertainty theta = 0.000927, k = 0.039228
        19        22        37     1      107.275742      375.507520    ;  uncertainty theta = 0.000927, k = 0.039228
        20        19        21     1      108.829308      692.110441    ;  uncertainty theta = 0.002464, k = 0.098427
        20        19        22     1      108.829308      692.110441    ;  uncertainty theta = 0.002464, k = 0.098427
        21        19        22     1      110.087318      564.121450    ;  uncertainty theta = 0.001573, k = 0.073265
        32        21        33     1      105.686974      317.730768    ;  uncertainty theta = 0.001105, k = 0.008156
        32        21        34     1      105.686974      317.730768    ;  uncertainty theta = 0.001105, k = 0.008156
        33        21        34     1      105.686974      317.730768    ;  uncertainty theta = 0.001105, k = 0.008156
        35        22        36     1      105.686974      317.730768    ;  uncertainty theta = 0.001105, k = 0.008156
        35        22        37     1      105.686974      317.730768    ;  uncertainty theta = 0.001105, k = 0.008156
        36        22        37     1      105.686974      317.730768    ;  uncertainty theta = 0.001105, k = 0.008156

[ dihedrals ] ; propers for gromacs 4.5 or higher, use funct 9
;       ai        aj        ak        al funct           phase               k        pn
         1         2         4         7     9        0.000000       -0.184790         1    ;  uncertainty k = 0.321486
         1         2         4         7     9      180.000000        7.012765         2    ;  uncertainty k = 0.723269
         1         2         4         7     9        0.000000        0.265657         3    ;  uncertainty k = 0.306559
         1         2         4         7     9      180.000000        1.386198         4    ;  uncertainty k = 0.296939
         1         2         4         9     9        0.000000        0.070955         1    ;  uncertainty k = 0.503067
         1         2         4         9     9      180.000000        6.603892         2    ;  uncertainty k = 0.839765
         1         2         4         9     9        0.000000        0.947610         3    ;  uncertainty k = 0.295938
         1         2         4         9     9      180.000000        1.416061         4    ;  uncertainty k = 0.193480
         1         2         5        12     9        0.000000        1.403110         1    ;  uncertainty k = 1.780173
         1         2         5        12     9      180.000000        5.574977         2    ;  uncertainty k = 0.974761
         1         2         5        12     9        0.000000        2.281849         3    ;  uncertainty k = 0.367388
         1         2         5        12     9      180.000000        0.378300         4    ;  uncertainty k = 0.419358
         1         3         6         7     9        0.000000       -0.037320         1    ;  uncertainty k = 0.446590
         1         3         6         7     9      180.000000        7.190768         2    ;  uncertainty k = 0.575230
         1         3         6         7     9        0.000000        0.100290         3    ;  uncertainty k = 0.435788
         1         3         6         7     9      180.000000        1.245216         4    ;  uncertainty k = 0.285117
         1         3         6         8     9        0.000000       -0.122892         1    ;  uncertainty k = 0.197615
         1         3         6         8     9      180.000000       10.863912         2    ;  uncertainty k = 0.566594
         1         3         6         8     9        0.000000        1.520436         3    ;  uncertainty k = 0.425418
         1         3         6         8     9      180.000000        1.527117         4    ;  uncertainty k = 0.291310
         2         1         3         6     9        0.000000       -0.057073         1    ;  uncertainty k = 0.150985
         2         1         3         6     9      180.000000       15.642469         2    ;  uncertainty k = 0.154884
         2         1         3         6     9        0.000000       -0.221494         3    ;  uncertainty k = 0.546048
         2         1         3         6     9      180.000000        0.972330         4    ;  uncertainty k = 0.230431
         2         1         3        24     9        0.000000        0.150631         1    ;  uncertainty k = 0.194735
         2         1         3        24     9      180.000000        9.803223         2    ;  uncertainty k = 0.267504
         2         1         3        24     9        0.000000        1.485879         3    ;  uncertainty k = 0.156851
         2         1         3        24     9      180.000000        1.684062         4    ;  uncertainty k = 0.083206
         2         4         7         6     9        0.000000        0.050628         1    ;  uncertainty k = 0.400123
         2         4         7         6     9      180.000000       11.708080         2    ;  uncertainty k = 0.364861
         2         4         7         6     9        0.000000       -0.278443         3    ;  uncertainty k = 0.242420
         2         4         7         6     9      180.000000        1.120413         4    ;  uncertainty k = 0.208216
         2         4         7        25     9        0.000000        0.041981         1    ;  uncertainty k = 0.435749
         2         4         7        25     9      180.000000        7.322408         2    ;  uncertainty k = 0.745969
         2         4         7        25     9        0.000000        1.367994         3    ;  uncertainty k = 0.302457
         2         4         7        25     9      180.000000        1.425752         4    ;  uncertainty k = 0.115038
         2         4         9        10     9        0.000000       -1.193949         1    ;  uncertainty k = 0.844290
         2         4         9        10     9      180.000000        2.489746         2    ;  uncertainty k = 0.691617
         2         4         9        10     9        0.000000       -0.230394         3    ;  uncertainty k = 0.457346
         2         4         9        10     9      180.000000        0.546888         4    ;  uncertainty k = 0.237414
         2         4         9        11     9        0.000000       -2.356332         1    ;  uncertainty k = 0.972286
         2         4         9        11     9      180.000000        4.954601         2    ;  uncertainty k = 0.587205
         2         4         9        11     9        0.000000        0.258129         3    ;  uncertainty k = 0.265379
         2         4         9        11     9      180.000000       -0.085012         4    ;  uncertainty k = 0.204923
         2         5        12        10     9        0.000000       -0.806560         1    ;  uncertainty k = 0.443205
         2         5        12        10     9      180.000000       23.923140         2    ;  uncertainty k = 0.167277
         2         5        12        10     9        0.000000        1.746404         3    ;  uncertainty k = 0.254558
         2         5        12        10     9      180.000000        1.448584         4    ;  uncertainty k = 0.448997
         2         5        12        13     9        0.000000       -0.591543         1    ;  uncertainty k = 0.847502
         2         5        12        13     9      180.000000       19.152900         2    ;  uncertainty k = 0.448467
         2         5        12        13     9        0.000000        2.703670         3    ;  uncertainty k = 0.469541
         2         5        12        13     9      180.000000        1.363775         4    ;  uncertainty k = 0.339349
         3         1         2         4     9        0.000000        0.299010         1    ;  uncertainty k = 0.441394
         3         1         2         4     9      180.000000        8.793316         2    ;  uncertainty k = 0.480346
         3         1         2         4     9        0.000000       -0.398610         3    ;  uncertainty k = 0.171035
         3         1         2         4     9      180.000000        1.079569         4    ;  uncertainty k = 0.206112
         3         1         2         5     9        0.000000        0.123441         1    ;  uncertainty k = 0.423850
         3         1         2         5     9      180.000000       10.614146         2    ;  uncertainty k = 0.337062
         3         1         2         5     9        0.000000        0.825517         3    ;  uncertainty k = 0.234227
         3         1         2         5     9      180.000000        1.460557         4    ;  uncertainty k = 0.150431
         3         6         7         4     9        0.000000        0.014580         1    ;  uncertainty k = 0.406168
         3         6         7         4     9      180.000000        8.580803         2    ;  uncertainty k = 0.496282
         3         6         7         4     9        0.000000        0.411247         3    ;  uncertainty k = 0.429260
         3         6         7         4     9      180.000000        1.349937         4    ;  uncertainty k = 0.402939
         3         6         7        25     9        0.000000        0.166988         1    ;  uncertainty k = 0.092153
         3         6         7        25     9      180.000000        6.142410         2    ;  uncertainty k = 0.526407
         3         6         7        25     9        0.000000        1.428280         3    ;  uncertainty k = 0.294529
         3         6         7        25     9      180.000000        1.629598         4    ;  uncertainty k = 0.083727
         4         2         1        23     9        0.000000       -0.086631         1    ;  uncertainty k = 0.278042
         4         2         1        23     9      180.000000        5.469934         2    ;  uncertainty k = 0.424640
         4         2         1        23     9        0.000000        1.374953         3    ;  uncertainty k = 0.418873
         4         2         1        23     9      180.000000        1.196756         4    ;  uncertainty k = 0.132430
         4         2         5        12     9        0.000000        1.795741         1    ;  uncertainty k = 2.236194
         4         2         5        12     9      180.000000        3.972890         2    ;  uncertainty k = 1.621073
         4         2         5        12     9        0.000000        1.402420         3    ;  uncertainty k = 0.568804
         4         2         5        12     9      180.000000        0.447823         4    ;  uncertainty k = 0.482506
         4         7         6         8     9        0.000000        0.052940         1    ;  uncertainty k = 0.279630
         4         7         6         8     9      180.000000       14.300887         2    ;  uncertainty k = 0.204150
         4         7         6         8     9        0.000000        1.453226         3    ;  uncertainty k = 0.306010
         4         7         6         8     9      180.000000        1.325492         4    ;  uncertainty k = 0.084421
         4         9        10        12     9        0.000000        0.299155         1    ;  uncertainty k = 1.495458
         4         9        10        12     9      180.000000        4.160269         2    ;  uncertainty k = 1.161050
         4         9        10        12     9        0.000000        0.720046         3    ;  uncertainty k = 0.199570
         4         9        10        12     9      180.000000        0.476898         4    ;  uncertainty k = 0.377921
         4         9        10        26     9        0.000000        2.496625         1    ;  uncertainty k = 2.318088
         4         9        10        26     9      180.000000        5.316572         2    ;  uncertainty k = 0.889294
         4         9        10        26     9        0.000000        1.796287         3    ;  uncertainty k = 0.190470
         4         9        10        26     9      180.000000       -0.030160         4    ;  uncertainty k = 0.088266
         5         2         1        23     9        0.000000       -0.532603         1    ;  uncertainty k = 0.678534
         5         2         1        23     9      180.000000        7.650949         2    ;  uncertainty k = 0.346839
         5         2         1        23     9        0.000000        1.209871         3    ;  uncertainty k = 0.365775
         5         2         1        23     9      180.000000        1.221245         4    ;  uncertainty k = 0.215969
         5         2         4         7     9        0.000000        0.049402         1    ;  uncertainty k = 0.402186
         5         2         4         7     9      180.000000        8.514216         2    ;  uncertainty k = 0.717814
         5         2         4         7     9        0.000000        0.658246         3    ;  uncertainty k = 0.224700
         5         2         4         7     9      180.000000        1.431737         4    ;  uncertainty k = 0.311120
         5         2         4         9     9        0.000000       -0.183103         1    ;  uncertainty k = 0.431012
         5         2         4         9     9      180.000000        7.575105         2    ;  uncertainty k = 0.899866
         5         2         4         9     9        0.000000        0.995014         3    ;  uncertainty k = 0.432246
         5         2         4         9     9      180.000000        1.496214         4    ;  uncertainty k = 0.209473
         5        12        10         9     9        0.000000        0.194990         1    ;  uncertainty k = 0.883244
         5        12        10         9     9      180.000000        7.090508         2    ;  uncertainty k = 0.650035
         5        12        10         9     9        0.000000        0.606196         3    ;  uncertainty k = 0.671787
         5        12        10         9     9      180.000000        0.383228         4    ;  uncertainty k = 0.217670
         5        12        10        26     9        0.000000        5.758950         1    ;  uncertainty k = 1.531635
         5        12        10        26     9      180.000000       10.846313         2    ;  uncertainty k = 0.608795
         5        12        10        26     9        0.000000        1.244464         3    ;  uncertainty k = 0.560006
         5        12        10        26     9      180.000000       -0.235958         4    ;  uncertainty k = 0.089809
         5        12        13        14     9        0.000000        0.839159         1    ;  uncertainty k = 0.666875
         5        12        13        14     9      180.000000        3.960686         2    ;  uncertainty k = 0.292698
         5        12        13        14     9        0.000000        0.569337         3    ;  uncertainty k = 0.172719
         5        12        13        14     9      180.000000       -0.123687         4    ;  uncertainty k = 0.155165
         5        12        13        18     9        0.000000        0.839159         1    ;  uncertainty k = 0.666875
         5        12        13        18     9      180.000000        3.960686         2    ;  uncertainty k = 0.292698
         5        12        13        18     9        0.000000        0.569337         3    ;  uncertainty k = 0.172719
         5        12        13        18     9      180.000000       -0.123687         4    ;  uncertainty k = 0.155165
         6         3         1        23     9        0.000000       -0.011413         1    ;  uncertainty k = 0.293284
         6         3         1        23     9      180.000000        9.463462         2    ;  uncertainty k = 0.336797
         6         3         1        23     9        0.000000        1.362115         3    ;  uncertainty k = 0.433380
         6         3         1        23     9      180.000000        1.933407         4    ;  uncertainty k = 0.228212
         6         7         4         9     9        0.000000        0.264940         1    ;  uncertainty k = 0.246431
         6         7         4         9     9      180.000000        9.013462         2    ;  uncertainty k = 0.640345
         6         7         4         9     9        0.000000        1.402405         3    ;  uncertainty k = 0.236211
         6         7         4         9     9      180.000000        1.807428         4    ;  uncertainty k = 0.213904
         7         4         9        10     9        0.000000        0.354863         1    ;  uncertainty k = 0.703754
         7         4         9        10     9      180.000000        2.980996         2    ;  uncertainty k = 0.626009
         7         4         9        10     9        0.000000        0.683030         3    ;  uncertainty k = 0.504923
         7         4         9        10     9      180.000000        0.519281         4    ;  uncertainty k = 0.265179
         7         4         9        11     9        0.000000       -1.911914         1    ;  uncertainty k = 0.521653
         7         4         9        11     9      180.000000        5.458000         2    ;  uncertainty k = 0.685108
         7         4         9        11     9        0.000000        0.514570         3    ;  uncertainty k = 0.325112
         7         4         9        11     9      180.000000       -0.138469         4    ;  uncertainty k = 0.135496
         7         6         3        24     9        0.000000       -0.021607         1    ;  uncertainty k = 0.306379
         7         6         3        24     9      180.000000        5.222009         2    ;  uncertainty k = 0.775374
         7         6         3        24     9        0.000000        1.141407         3    ;  uncertainty k = 0.190575
         7         6         3        24     9      180.000000        1.375914         4    ;  uncertainty k = 0.167968
         8         6         3        24     9        0.000000       -0.164895         1    ;  uncertainty k = 0.458057
         8         6         3        24     9      180.000000        8.717670         2    ;  uncertainty k = 0.312534
         8         6         3        24     9        0.000000        0.777601         3    ;  uncertainty k = 0.256890
         8         6         3        24     9      180.000000        0.897535         4    ;  uncertainty k = 0.157117
         8         6         7        25     9        0.000000       -0.388026         1    ;  uncertainty k = 0.271818
         8         6         7        25     9      180.000000        9.843060         2    ;  uncertainty k = 0.427436
         8         6         7        25     9        0.000000        0.955047         3    ;  uncertainty k = 0.236450
         8         6         7        25     9      180.000000        1.015023         4    ;  uncertainty k = 0.197015
         9         4         7        25     9        0.000000       -0.388183         1    ;  uncertainty k = 0.709543
         9         4         7        25     9      180.000000        7.471749         2    ;  uncertainty k = 0.400570
         9         4         7        25     9        0.000000        0.936545         3    ;  uncertainty k = 0.220276
         9         4         7        25     9      180.000000        1.188458         4    ;  uncertainty k = 0.138463
         9        10        12        13     9        0.000000        1.136732         1    ;  uncertainty k = 0.845638
         9        10        12        13     9      180.000000        5.378643         2    ;  uncertainty k = 0.753050
         9        10        12        13     9        0.000000        0.529824         3    ;  uncertainty k = 0.332522
         9        10        12        13     9      180.000000       -0.081540         4    ;  uncertainty k = 0.312631
        10        12        13        14     9        0.000000       -0.008824         1    ;  uncertainty k = 0.287080
        10        12        13        14     9      180.000000        4.137706         2    ;  uncertainty k = 0.387657
        10        12        13        14     9        0.000000        0.542374         3    ;  uncertainty k = 0.125060
        10        12        13        14     9      180.000000       -0.117511         4    ;  uncertainty k = 0.038868
        10        12        13        18     9        0.000000       -0.008824         1    ;  uncertainty k = 0.287080
        10        12        13        18     9      180.000000        4.137706         2    ;  uncertainty k = 0.387657
        10        12        13        18     9        0.000000        0.542374         3    ;  uncertainty k = 0.125060
        10        12        13        18     9      180.000000       -0.117511         4    ;  uncertainty k = 0.038868
        11         9        10        12     9        0.000000        0.129290         1    ;  uncertainty k = 1.265351
        11         9        10        12     9      180.000000       11.179130         2    ;  uncertainty k = 0.473645
        11         9        10        12     9        0.000000        1.319941         3    ;  uncertainty k = 0.341337
        11         9        10        12     9      180.000000       -0.489621         4    ;  uncertainty k = 0.399230
        11         9        10        26     9        0.000000        1.499196         1    ;  uncertainty k = 2.518562
        11         9        10        26     9      180.000000        9.178552         2    ;  uncertainty k = 0.611521
        11         9        10        26     9        0.000000        0.741428         3    ;  uncertainty k = 0.511189
        11         9        10        26     9      180.000000       -0.114754         4    ;  uncertainty k = 0.058823
        12        13        14        15     9        0.000000        0.101901         1    ;  uncertainty k = 0.156371
        12        13        14        15     9      180.000000        9.094351         2    ;  uncertainty k = 0.632402
        12        13        14        15     9        0.000000        1.349215         3    ;  uncertainty k = 0.287092
        12        13        14        15     9      180.000000        1.700277         4    ;  uncertainty k = 0.195318
        12        13        14        27     9        0.000000       -0.275866         1    ;  uncertainty k = 0.208465
        12        13        14        27     9      180.000000        7.223174         2    ;  uncertainty k = 0.260369
        12        13        14        27     9        0.000000        0.706164         3    ;  uncertainty k = 0.161256
        12        13        14        27     9      180.000000        1.048776         4    ;  uncertainty k = 0.162566
        12        13        18        17     9        0.000000        0.101901         1    ;  uncertainty k = 0.156371
        12        13        18        17     9      180.000000        9.094351         2    ;  uncertainty k = 0.632402
        12        13        18        17     9        0.000000        1.349215         3    ;  uncertainty k = 0.287092
        12        13        18        17     9      180.000000        1.700277         4    ;  uncertainty k = 0.195318
        12        13        18        30     9        0.000000       -0.275866         1    ;  uncertainty k = 0.208465
        12        13        18        30     9      180.000000        7.223174         2    ;  uncertainty k = 0.260371
        12        13        18        30     9        0.000000        0.706164         3    ;  uncertainty k = 0.161255
        12        13        18        30     9      180.000000        1.048775         4    ;  uncertainty k = 0.162566
        13        12        10        26     9        0.000000        0.911623         1    ;  uncertainty k = 0.129052
        13        12        10        26     9      180.000000        4.671520         2    ;  uncertainty k = 0.900674
        13        12        10        26     9        0.000000        1.367313         3    ;  uncertainty k = 0.257053
        13        12        10        26     9      180.000000       -0.076850         4    ;  uncertainty k = 0.266316
        13        14        15        16     9        0.000000       -0.133648         1    ;  uncertainty k = 0.232408
        13        14        15        16     9      180.000000       12.534119         2    ;  uncertainty k = 0.264132
        13        14        15        16     9        0.000000       -0.659583         3    ;  uncertainty k = 0.473408
        13        14        15        16     9      180.000000        0.896721         4    ;  uncertainty k = 0.301178
        13        14        15        28     9        0.000000        0.104452         1    ;  uncertainty k = 0.123159
        13        14        15        28     9      180.000000        8.153177         2    ;  uncertainty k = 0.285565
        13        14        15        28     9        0.000000        1.386423         3    ;  uncertainty k = 0.199866
        13        14        15        28     9      180.000000        1.841381         4    ;  uncertainty k = 0.178837
        13        18        17        16     9        0.000000       -0.133648         1    ;  uncertainty k = 0.232408
        13        18        17        16     9      180.000000       12.534119         2    ;  uncertainty k = 0.264132
        13        18        17        16     9        0.000000       -0.659583         3    ;  uncertainty k = 0.473408
        13        18        17        16     9      180.000000        0.896721         4    ;  uncertainty k = 0.301178
        13        18        17        29     9        0.000000        0.104451         1    ;  uncertainty k = 0.123158
        13        18        17        29     9      180.000000        8.153176         2    ;  uncertainty k = 0.285563
        13        18        17        29     9        0.000000        1.386423         3    ;  uncertainty k = 0.199867
        13        18        17        29     9      180.000000        1.841381         4    ;  uncertainty k = 0.178837
        14        13        18        17     9        0.000000        0.055276         1    ;  uncertainty k = 0.149139
        14        13        18        17     9      180.000000       10.940930         2    ;  uncertainty k = 0.285081
        14        13        18        17     9        0.000000       -0.595107         3    ;  uncertainty k = 0.165960
        14        13        18        17     9      180.000000        0.949928         4    ;  uncertainty k = 0.261174
        14        13        18        30     9        0.000000        0.065424         1    ;  uncertainty k = 0.154406
        14        13        18        30     9      180.000000        6.880289         2    ;  uncertainty k = 0.569493
        14        13        18        30     9        0.000000        1.307045         3    ;  uncertainty k = 0.238387
        14        13        18        30     9      180.000000        1.580984         4    ;  uncertainty k = 0.264455
        14        15        16        17     9        0.000000       -0.145838         1    ;  uncertainty k = 0.090645
        14        15        16        17     9      180.000000       11.057201         2    ;  uncertainty k = 0.371394
        14        15        16        17     9        0.000000       -0.343350         3    ;  uncertainty k = 0.267016
        14        15        16        17     9      180.000000        0.889288         4    ;  uncertainty k = 0.302073
        14        15        16        19     9        0.000000        0.213012         1    ;  uncertainty k = 0.165870
        14        15        16        19     9      180.000000        8.409903         2    ;  uncertainty k = 0.512358
        14        15        16        19     9        0.000000        1.391291         3    ;  uncertainty k = 0.345930
        14        15        16        19     9      180.000000        1.926967         4    ;  uncertainty k = 0.263557
        15        14        13        18     9        0.000000        0.055276         1    ;  uncertainty k = 0.149139
        15        14        13        18     9      180.000000       10.940930         2    ;  uncertainty k = 0.285081
        15        14        13        18     9        0.000000       -0.595107         3    ;  uncertainty k = 0.165960
        15        14        13        18     9      180.000000        0.949928         4    ;  uncertainty k = 0.261174
        15        16        17        18     9        0.000000       -0.145838         1    ;  uncertainty k = 0.090645
        15        16        17        18     9      180.000000       11.057201         2    ;  uncertainty k = 0.371394
        15        16        17        18     9        0.000000       -0.343350         3    ;  uncertainty k = 0.267016
        15        16        17        18     9      180.000000        0.889288         4    ;  uncertainty k = 0.302073
        15        16        17        29     9        0.000000        0.099411         1    ;  uncertainty k = 0.169149
        15        16        17        29     9      180.000000        7.277332         2    ;  uncertainty k = 0.487638
        15        16        17        29     9        0.000000        1.399667         3    ;  uncertainty k = 0.329314
        15        16        17        29     9      180.000000        1.678522         4    ;  uncertainty k = 0.191976
        15        16        19        20     9        0.000000       -1.219996         1    ;  uncertainty k = 0.274824
        15        16        19        20     9      180.000000        3.868488         2    ;  uncertainty k = 0.116802
        15        16        19        20     9        0.000000        0.651180         3    ;  uncertainty k = 0.135170
        15        16        19        20     9      180.000000        0.512033         4    ;  uncertainty k = 0.043839
        15        16        19        21     9        0.000000       -0.409205         1    ;  uncertainty k = 0.095576
        15        16        19        21     9      180.000000        2.717206         2    ;  uncertainty k = 0.115248
        15        16        19        21     9        0.000000        0.444819         3    ;  uncertainty k = 0.108147
        15        16        19        21     9      180.000000        0.287592         4    ;  uncertainty k = 0.049350
        15        16        19        22     9        0.000000       -0.409205         1    ;  uncertainty k = 0.095576
        15        16        19        22     9      180.000000        2.717206         2    ;  uncertainty k = 0.115248
        15        16        19        22     9        0.000000        0.444819         3    ;  uncertainty k = 0.108147
        15        16        19        22     9      180.000000        0.287592         4    ;  uncertainty k = 0.049350
        16        15        14        27     9        0.000000       -0.030725         1    ;  uncertainty k = 0.185677
        16        15        14        27     9      180.000000        7.531826         2    ;  uncertainty k = 0.200235
        16        15        14        27     9        0.000000        1.277586         3    ;  uncertainty k = 0.254720
        16        15        14        27     9      180.000000        1.862935         4    ;  uncertainty k = 0.207129
        16        17        18        30     9        0.000000       -0.030722         1    ;  uncertainty k = 0.185677
        16        17        18        30     9      180.000000        7.531827         2    ;  uncertainty k = 0.200235
        16        17        18        30     9        0.000000        1.277587         3    ;  uncertainty k = 0.254720
        16        17        18        30     9      180.000000        1.862935         4    ;  uncertainty k = 0.207130
        16        19        20        31     9        0.000000       14.991889         1    ;  uncertainty k = 0.177215
        16        19        20        31     9      180.000000       -3.682075         2    ;  uncertainty k = 0.239401
        16        19        20        31     9        0.000000        0.980422         3    ;  uncertainty k = 0.057176
        16        19        20        31     9      180.000000        0.176294         4    ;  uncertainty k = 0.044986
        16        19        21        32     9        0.000000        0.351770         1    ;  uncertainty k = 0.319275
        16        19        21        32     9      180.000000       -0.223483         2    ;  uncertainty k = 0.173254
        16        19        21        32     9        0.000000        0.715961         3    ;  uncertainty k = 0.098047
        16        19        21        32     9      180.000000       -0.000790         4    ;  uncertainty k = 0.041032
        16        19        21        33     9        0.000000        0.351770         1    ;  uncertainty k = 0.319275
        16        19        21        33     9      180.000000       -0.223483         2    ;  uncertainty k = 0.173254
        16        19        21        33     9        0.000000        0.715961         3    ;  uncertainty k = 0.098047
        16        19        21        33     9      180.000000       -0.000790         4    ;  uncertainty k = 0.041032
        16        19        21        34     9        0.000000        0.351770         1    ;  uncertainty k = 0.319275
        16        19        21        34     9      180.000000       -0.223483         2    ;  uncertainty k = 0.173254
        16        19        21        34     9        0.000000        0.715961         3    ;  uncertainty k = 0.098047
        16        19        21        34     9      180.000000       -0.000790         4    ;  uncertainty k = 0.041032
        16        19        22        35     9        0.000000        0.351770         1    ;  uncertainty k = 0.319275
        16        19        22        35     9      180.000000       -0.223483         2    ;  uncertainty k = 0.173254
        16        19        22        35     9        0.000000        0.715961         3    ;  uncertainty k = 0.098047
        16        19        22        35     9      180.000000       -0.000790         4    ;  uncertainty k = 0.041032
        16        19        22        36     9        0.000000        0.351770         1    ;  uncertainty k = 0.319275
        16        19        22        36     9      180.000000       -0.223483         2    ;  uncertainty k = 0.173254
        16        19        22        36     9        0.000000        0.715961         3    ;  uncertainty k = 0.098047
        16        19        22        36     9      180.000000       -0.000790         4    ;  uncertainty k = 0.041032
        16        19        22        37     9        0.000000        0.351770         1    ;  uncertainty k = 0.319275
        16        19        22        37     9      180.000000       -0.223483         2    ;  uncertainty k = 0.173254
        16        19        22        37     9        0.000000        0.715961         3    ;  uncertainty k = 0.098047
        16        19        22        37     9      180.000000       -0.000790         4    ;  uncertainty k = 0.041032
        17        16        15        28     9        0.000000        0.099411         1    ;  uncertainty k = 0.169149
        17        16        15        28     9      180.000000        7.277331         2    ;  uncertainty k = 0.487638
        17        16        15        28     9        0.000000        1.399666         3    ;  uncertainty k = 0.329314
        17        16        15        28     9      180.000000        1.678522         4    ;  uncertainty k = 0.191976
        17        16        19        20     9        0.000000       -1.219996         1    ;  uncertainty k = 0.274824
        17        16        19        20     9      180.000000        3.868488         2    ;  uncertainty k = 0.116802
        17        16        19        20     9        0.000000        0.651180         3    ;  uncertainty k = 0.135170
        17        16        19        20     9      180.000000        0.512033         4    ;  uncertainty k = 0.043839
        17        16        19        21     9        0.000000       -0.409205         1    ;  uncertainty k = 0.095576
        17        16        19        21     9      180.000000        2.717206         2    ;  uncertainty k = 0.115248
        17        16        19        21     9        0.000000        0.444819         3    ;  uncertainty k = 0.108147
        17        16        19        21     9      180.000000        0.287592         4    ;  uncertainty k = 0.049350
        17        16        19        22     9        0.000000       -0.409205         1    ;  uncertainty k = 0.095576
        17        16        19        22     9      180.000000        2.717206         2    ;  uncertainty k = 0.115248
        17        16        19        22     9        0.000000        0.444819         3    ;  uncertainty k = 0.108147
        17        16        19        22     9      180.000000        0.287592         4    ;  uncertainty k = 0.049350
        18        13        14        27     9        0.000000        0.065425         1    ;  uncertainty k = 0.154407
        18        13        14        27     9      180.000000        6.880288         2    ;  uncertainty k = 0.569492
        18        13        14        27     9        0.000000        1.307045         3    ;  uncertainty k = 0.238388
        18        13        14        27     9      180.000000        1.580984         4    ;  uncertainty k = 0.264455
        18        17        16        19     9        0.000000        0.213012         1    ;  uncertainty k = 0.165870
        18        17        16        19     9      180.000000        8.409903         2    ;  uncertainty k = 0.512358
        18        17        16        19     9        0.000000        1.391291         3    ;  uncertainty k = 0.345930
        18        17        16        19     9      180.000000        1.926967         4    ;  uncertainty k = 0.263557
        19        16        15        28     9        0.000000       -0.074274         1    ;  uncertainty k = 0.468916
        19        16        15        28     9      180.000000        7.722559         2    ;  uncertainty k = 0.204459
        19        16        15        28     9        0.000000        0.599783         3    ;  uncertainty k = 0.298353
        19        16        15        28     9      180.000000        0.966283         4    ;  uncertainty k = 0.105372
        19        16        17        29     9        0.000000       -0.074274         1    ;  uncertainty k = 0.468916
        19        16        17        29     9      180.000000        7.722559         2    ;  uncertainty k = 0.204459
        19        16        17        29     9        0.000000        0.599783         3    ;  uncertainty k = 0.298353
        19        16        17        29     9      180.000000        0.966283         4    ;  uncertainty k = 0.105372
        20        19        21        32     9        0.000000       -1.961844         1    ;  uncertainty k = 0.551179
        20        19        21        32     9      180.000000       -0.960260         2    ;  uncertainty k = 0.282480
        20        19        21        32     9        0.000000        0.831229         3    ;  uncertainty k = 0.087293
        20        19        21        32     9      180.000000       -0.214593         4    ;  uncertainty k = 0.050561
        20        19        21        33     9        0.000000       -1.961844         1    ;  uncertainty k = 0.551179
        20        19        21        33     9      180.000000       -0.960260         2    ;  uncertainty k = 0.282480
        20        19        21        33     9        0.000000        0.831229         3    ;  uncertainty k = 0.087293
        20        19        21        33     9      180.000000       -0.214593         4    ;  uncertainty k = 0.050561
        20        19        21        34     9        0.000000       -1.961844         1    ;  uncertainty k = 0.551179
        20        19        21        34     9      180.000000       -0.960260         2    ;  uncertainty k = 0.282480
        20        19        21        34     9        0.000000        0.831229         3    ;  uncertainty k = 0.087293
        20        19        21        34     9      180.000000       -0.214593         4    ;  uncertainty k = 0.050561
        20        19        22        35     9        0.000000       -1.961844         1    ;  uncertainty k = 0.551179
        20        19        22        35     9      180.000000       -0.960260         2    ;  uncertainty k = 0.282480
        20        19        22        35     9        0.000000        0.831229         3    ;  uncertainty k = 0.087293
        20        19        22        35     9      180.000000       -0.214593         4    ;  uncertainty k = 0.050561
        20        19        22        36     9        0.000000       -1.961844         1    ;  uncertainty k = 0.551179
        20        19        22        36     9      180.000000       -0.960260         2    ;  uncertainty k = 0.282480
        20        19        22        36     9        0.000000        0.831229         3    ;  uncertainty k = 0.087293
        20        19        22        36     9      180.000000       -0.214593         4    ;  uncertainty k = 0.050561
        20        19        22        37     9        0.000000       -1.961844         1    ;  uncertainty k = 0.551179
        20        19        22        37     9      180.000000       -0.960260         2    ;  uncertainty k = 0.282480
        20        19        22        37     9        0.000000        0.831229         3    ;  uncertainty k = 0.087293
        20        19        22        37     9      180.000000       -0.214593         4    ;  uncertainty k = 0.050561
        21        19        20        31     9        0.000000       12.662224         1    ;  uncertainty k = 0.317843
        21        19        20        31     9      180.000000       -1.675062         2    ;  uncertainty k = 0.239562
        21        19        20        31     9        0.000000        1.060161         3    ;  uncertainty k = 0.149524
        21        19        20        31     9      180.000000        0.360746         4    ;  uncertainty k = 0.102772
        21        19        22        35     9        0.000000       -1.125963         1    ;  uncertainty k = 0.230765
        21        19        22        35     9      180.000000       -0.047878         2    ;  uncertainty k = 0.090864
        21        19        22        35     9        0.000000        0.742644         3    ;  uncertainty k = 0.072669
        21        19        22        35     9      180.000000       -0.033077         4    ;  uncertainty k = 0.054936
        21        19        22        36     9        0.000000       -1.125963         1    ;  uncertainty k = 0.230765
        21        19        22        36     9      180.000000       -0.047878         2    ;  uncertainty k = 0.090864
        21        19        22        36     9        0.000000        0.742644         3    ;  uncertainty k = 0.072669
        21        19        22        36     9      180.000000       -0.033077         4    ;  uncertainty k = 0.054936
        21        19        22        37     9        0.000000       -1.125963         1    ;  uncertainty k = 0.230765
        21        19        22        37     9      180.000000       -0.047878         2    ;  uncertainty k = 0.090864
        21        19        22        37     9        0.000000        0.742644         3    ;  uncertainty k = 0.072669
        21        19        22        37     9      180.000000       -0.033077         4    ;  uncertainty k = 0.054936
        22        19        20        31     9        0.000000       12.662225         1    ;  uncertainty k = 0.317843
        22        19        20        31     9      180.000000       -1.675062         2    ;  uncertainty k = 0.239562
        22        19        20        31     9        0.000000        1.060161         3    ;  uncertainty k = 0.149524
        22        19        20        31     9      180.000000        0.360746         4    ;  uncertainty k = 0.102772
        22        19        21        32     9        0.000000       -1.125963         1    ;  uncertainty k = 0.230765
        22        19        21        32     9      180.000000       -0.047878         2    ;  uncertainty k = 0.090864
        22        19        21        32     9        0.000000        0.742644         3    ;  uncertainty k = 0.072669
        22        19        21        32     9      180.000000       -0.033077         4    ;  uncertainty k = 0.054936
        22        19        21        33     9        0.000000       -1.125963         1    ;  uncertainty k = 0.230765
        22        19        21        33     9      180.000000       -0.047878         2    ;  uncertainty k = 0.090864
        22        19        21        33     9        0.000000        0.742644         3    ;  uncertainty k = 0.072669
        22        19        21        33     9      180.000000       -0.033077         4    ;  uncertainty k = 0.054936
        22        19        21        34     9        0.000000       -1.125963         1    ;  uncertainty k = 0.230765
        22        19        21        34     9      180.000000       -0.047878         2    ;  uncertainty k = 0.090864
        22        19        21        34     9        0.000000        0.742644         3    ;  uncertainty k = 0.072669
        22        19        21        34     9      180.000000       -0.033077         4    ;  uncertainty k = 0.054936
        23         1         3        24     9        0.000000       -0.169010         1    ;  uncertainty k = 0.251725
        23         1         3        24     9      180.000000        8.399340         2    ;  uncertainty k = 0.338025
        23         1         3        24     9        0.000000       -0.223565         3    ;  uncertainty k = 0.293096
        23         1         3        24     9      180.000000        0.239211         4    ;  uncertainty k = 0.177227
        27        14        15        28     9        0.000000       -0.117735         1    ;  uncertainty k = 0.210280
        27        14        15        28     9      180.000000        8.002242         2    ;  uncertainty k = 0.460743
        27        14        15        28     9        0.000000       -0.392489         3    ;  uncertainty k = 0.200264
        27        14        15        28     9      180.000000        0.296121         4    ;  uncertainty k = 0.231306
        29        17        18        30     9        0.000000       -0.117735         1    ;  uncertainty k = 0.210280
        29        17        18        30     9      180.000000        8.002243         2    ;  uncertainty k = 0.460743
        29        17        18        30     9        0.000000       -0.392489         3    ;  uncertainty k = 0.200264
        29        17        18        30     9      180.000000        0.296121         4    ;  uncertainty k = 0.231306

[ dihedrals ] ; impropers
;       ai        aj        ak        al funct           phase               k        pn
         1         2         3        23     4      180.000000        3.056718         2    ;  uncertainty k = 0.286146
         1         3        23         2     4      180.000000        3.056718         2    ;  uncertainty k = 0.286146
         1        23         2         3     4      180.000000        3.056718         2    ;  uncertainty k = 0.286146
         2         1         4         5     4      180.000000       21.108004         2    ;  uncertainty k = 0.036468
         2         4         5         1     4      180.000000       21.108004         2    ;  uncertainty k = 0.036468
         2         5         1         4     4      180.000000       21.108004         2    ;  uncertainty k = 0.036468
         3         1         6        24     4      180.000000        3.605828         2    ;  uncertainty k = 0.146573
         3         6        24         1     4      180.000000        3.605828         2    ;  uncertainty k = 0.146573
         3        24         1         6     4      180.000000        3.605828         2    ;  uncertainty k = 0.146573
         4         2         7         9     4      180.000000        5.434744         2    ;  uncertainty k = 0.365734
         4         7         9         2     4      180.000000        5.434744         2    ;  uncertainty k = 0.365734
         4         9         2         7     4      180.000000        5.434744         2    ;  uncertainty k = 0.365734
         6         3         7         8     4      180.000000       16.721150         2    ;  uncertainty k = 0.059128
         6         7         8         3     4      180.000000       16.721150         2    ;  uncertainty k = 0.059128
         6         8         3         7     4      180.000000       16.721150         2    ;  uncertainty k = 0.059128
         7         4         6        25     4      180.000000        3.847247         2    ;  uncertainty k = 0.056780
         7         6        25         4     4      180.000000        3.847247         2    ;  uncertainty k = 0.056780
         7        25         4         6     4      180.000000        3.847247         2    ;  uncertainty k = 0.056780
         9         4        10        11     4      180.000000       50.258053         2    ;  uncertainty k = 0.010206
         9        10        11         4     4      180.000000       50.258053         2    ;  uncertainty k = 0.010206
         9        11         4        10     4      180.000000       50.258053         2    ;  uncertainty k = 0.010206
        10         9        12        26     4      180.000000        0.721308         2    ;  uncertainty k = 0.517020
        10        12        26         9     4      180.000000        0.721308         2    ;  uncertainty k = 0.517020
        10        26         9        12     4      180.000000        0.721308         2    ;  uncertainty k = 0.517020
        12         5        10        13     4      180.000000       30.410736         2    ;  uncertainty k = 0.037194
        12        10        13         5     4      180.000000       30.410736         2    ;  uncertainty k = 0.037194
        12        13         5        10     4      180.000000       30.410736         2    ;  uncertainty k = 0.037194
        13        12        14        18     4      180.000000        8.897301         2    ;  uncertainty k = 0.236668
        13        14        18        12     4      180.000000        8.897301         2    ;  uncertainty k = 0.236668
        13        18        12        14     4      180.000000        8.897301         2    ;  uncertainty k = 0.236668
        14        13        15        27     4      180.000000        4.118158         2    ;  uncertainty k = 0.143895
        14        15        27        13     4      180.000000        4.118158         2    ;  uncertainty k = 0.143895
        14        27        13        15     4      180.000000        4.118158         2    ;  uncertainty k = 0.143895
        15        14        16        28     4      180.000000        3.498636         2    ;  uncertainty k = 0.120340
        15        16        28        14     4      180.000000        3.498636         2    ;  uncertainty k = 0.120340
        15        28        14        16     4      180.000000        3.498636         2    ;  uncertainty k = 0.120340
        16        15        17        19     4      180.000000       13.022908         2    ;  uncertainty k = 0.059644
        16        17        19        15     4      180.000000       13.022908         2    ;  uncertainty k = 0.059644
        16        19        15        17     4      180.000000       13.022908         2    ;  uncertainty k = 0.059644
        17        16        18        29     4      180.000000        3.498636         2    ;  uncertainty k = 0.120340
        17        18        29        16     4      180.000000        3.498636         2    ;  uncertainty k = 0.120340
        17        29        16        18     4      180.000000        3.498636         2    ;  uncertainty k = 0.120340
        18        13        17        30     4      180.000000        4.118156         2    ;  uncertainty k = 0.143895
        18        17        30        13     4      180.000000        4.118156         2    ;  uncertainty k = 0.143895
        18        30        13        17     4      180.000000        4.118156         2    ;  uncertainty k = 0.143895

[ pairs ]
;       ai        aj funct
         1         7     1
         1         8     1
         1         9     1
         1        12     1
         2         6     1
         2        10     1
         2        11     1
         2        13     1
         2        24     1
         2        25     1
         3         4     1
         3         5     1
         3        25     1
         4         8     1
         4        12     1
         4        23     1
         4        26     1
         5         7     1
         5         9     1
         5        14     1
         5        18     1
         5        23     1
         5        26     1
         6         9     1
         6        23     1
         7        10     1
         7        11     1
         7        24     1
         8        24     1
         8        25     1
         9        13     1
         9        25     1
        10        14     1
        10        18     1
        11        12     1
        11        26     1
        12        15     1
        12        17     1
        12        27     1
        12        30     1
        13        16     1
        13        26     1
        13        28     1
        13        29     1
        14        17     1
        14        19     1
        14        30     1
        15        18     1
        15        20     1
        15        21     1
        15        22     1
        15        29     1
        16        27     1
        16        30     1
        16        31     1
        16        32     1
        16        33     1
        16        34     1
        16        35     1
        16        36     1
        16        37     1
        17        20     1
        17        21     1
        17        22     1
        17        28     1
        18        19     1
        18        27     1
        19        28     1
        19        29     1
        20        32     1
        20        33     1
        20        34     1
        20        35     1
        20        36     1
        20        37     1
        21        31     1
        21        35     1
        21        36     1
        21        37     1
        22        31     1
        22        32     1
        22        33     1
        22        34     1
        23        24     1
        27        28     1
        29        30     1
