; ITP file created by ByteFF-joint-25, 2026-02-17 09:49:11.852377

[ atomtypes ]
;name           bonded.type        at.num        mass        charge   ptype           sigma         epsilon
 c0bf                                   6      0.0000       0.00000       A     3.31510e-01     4.13423e-01    ;  uncertainty sigma = 0.000005, epsilon = 0.000612
 c1bf                                   6      0.0000       0.00000       A     3.31532e-01     4.13133e-01    ;  uncertainty sigma = 0.000011, epsilon = 0.000889
 c2bf                                   6      0.0000       0.00000       A     3.31524e-01     4.13404e-01    ;  uncertainty sigma = 0.000004, epsilon = 0.000537
 c3bf                                   6      0.0000       0.00000       A     3.31544e-01     4.13687e-01    ;  uncertainty sigma = 0.000009, epsilon = 0.000796
 n4bf                                   7      0.0000       0.00000       A     3.38420e-01     3.93559e-01    ;  uncertainty sigma = 0.000016, epsilon = 0.001456
 c5bf                                   6      0.0000       0.00000       A     3.31532e-01     4.13212e-01    ;  uncertainty sigma = 0.000002, epsilon = 0.000424
 c6bf                                   6      0.0000       0.00000       A     3.31514e-01     4.13259e-01    ;  uncertainty sigma = 0.000005, epsilon = 0.000550
 c7bf                                   6      0.0000       0.00000       A     3.31539e-01     4.13478e-01    ;  uncertainty sigma = 0.000007, epsilon = 0.001120
 n8bf                                   7      0.0000       0.00000       A     3.26867e-01     4.92512e-01    ;  uncertainty sigma = 0.000088, epsilon = 0.003430
 o9bf                                   8      0.0000       0.00000       A     3.04814e-01     6.11899e-01    ;  uncertainty sigma = 0.000014, epsilon = 0.001624
 c10bf                                  6      0.0000       0.00000       A     3.31512e-01     4.12851e-01    ;  uncertainty sigma = 0.000012, epsilon = 0.001342
 c11bf                                  6      0.0000       0.00000       A     3.31501e-01     4.12880e-01    ;  uncertainty sigma = 0.000017, epsilon = 0.001089
 c12bf                                  6      0.0000       0.00000       A     3.31519e-01     4.13337e-01    ;  uncertainty sigma = 0.000004, epsilon = 0.000604
 c13bf                                  6      0.0000       0.00000       A     3.31522e-01     4.13196e-01    ;  uncertainty sigma = 0.000004, epsilon = 0.000447
 c14bf                                  6      0.0000       0.00000       A     3.31544e-01     4.13202e-01    ;  uncertainty sigma = 0.000004, epsilon = 0.001200
 c15bf                                  6      0.0000       0.00000       A     3.31522e-01     4.13196e-01    ;  uncertainty sigma = 0.000004, epsilon = 0.000447
 c16bf                                  6      0.0000       0.00000       A     3.31519e-01     4.13337e-01    ;  uncertainty sigma = 0.000004, epsilon = 0.000604
 c17bf                                  6      0.0000       0.00000       A     3.39755e-01     4.50272e-01    ;  uncertainty sigma = 0.000025, epsilon = 0.001042
 o18bf                                  8      0.0000       0.00000       A     3.24292e-01     3.89709e-01    ;  uncertainty sigma = 0.000031, epsilon = 0.001714
 cl19bf                                17      0.0000       0.00000       A     3.46607e-01     1.10412e+00    ;  uncertainty sigma = 0.000014, epsilon = 0.000714
 c20bf                                  6      0.0000       0.00000       A     3.39763e-01     4.50805e-01    ;  uncertainty sigma = 0.000004, epsilon = 0.000470
 c21bf                                  6      0.0000       0.00000       A     3.39763e-01     4.50805e-01    ;  uncertainty sigma = 0.000004, epsilon = 0.000470
 h22bf                                  1      0.0000       0.00000       A     2.62558e-01     6.69658e-02    ;  uncertainty sigma = 0.000013, epsilon = 0.000593
 h23bf                                  1      0.0000       0.00000       A     2.62554e-01     6.70236e-02    ;  uncertainty sigma = 0.000011, epsilon = 0.000687
 h24bf                                  1      0.0000       0.00000       A     2.62591e-01     6.68201e-02    ;  uncertainty sigma = 0.000018, epsilon = 0.000572
 h25bf                                  1      0.0000       0.00000       A     1.10651e-01     4.13762e-02    ;  uncertainty sigma = 0.000058, epsilon = 0.001253
 h26bf                                  1      0.0000       0.00000       A     2.62567e-01     6.70632e-02    ;  uncertainty sigma = 0.000011, epsilon = 0.000557
 h27bf                                  1      0.0000       0.00000       A     2.62556e-01     6.70460e-02    ;  uncertainty sigma = 0.000009, epsilon = 0.000514
 h28bf                                  1      0.0000       0.00000       A     2.62556e-01     6.70460e-02    ;  uncertainty sigma = 0.000009, epsilon = 0.000514
 h29bf                                  1      0.0000       0.00000       A     2.62567e-01     6.70633e-02    ;  uncertainty sigma = 0.000011, epsilon = 0.000557
 h30bf                                  1      0.0000       0.00000       A     5.37866e-02     1.91555e-02    ;  uncertainty sigma = 0.000161, epsilon = 0.001189
 h31bf                                  1      0.0000       0.00000       A     2.60031e-01     8.67183e-02    ;  uncertainty sigma = 0.000009, epsilon = 0.000447
 h32bf                                  1      0.0000       0.00000       A     2.60031e-01     8.67183e-02    ;  uncertainty sigma = 0.000009, epsilon = 0.000447
 h33bf                                  1      0.0000       0.00000       A     2.60031e-01     8.67183e-02    ;  uncertainty sigma = 0.000009, epsilon = 0.000447
 h34bf                                  1      0.0000       0.00000       A     2.60031e-01     8.67183e-02    ;  uncertainty sigma = 0.000009, epsilon = 0.000447
 h35bf                                  1      0.0000       0.00000       A     2.60031e-01     8.67183e-02    ;  uncertainty sigma = 0.000009, epsilon = 0.000447
 h36bf                                  1      0.0000       0.00000       A     2.60031e-01     8.67183e-02    ;  uncertainty sigma = 0.000009, epsilon = 0.000447

[ moleculetype ]
;name             nrexcl
 MOL                   3

[ atoms ]
;       nr            type      resi   res      atom      cgnr      charge          mass ; qtot
         1            c0bf         1   UNL        c0         1    -0.11952       12.0110 ; qtot   -0.120
         2            c1bf         1   UNL        c1         2     0.19431       12.0110 ; qtot    0.075
         3            c2bf         1   UNL        c2         3    -0.08193       12.0110 ; qtot   -0.007
         4            c3bf         1   UNL        c3         4    -0.20167       12.0110 ; qtot   -0.209
         5            n4bf         1   UNL        n4         5    -0.62411       14.0070 ; qtot   -0.833
         6            c5bf         1   UNL        c5         6     0.00704       12.0110 ; qtot   -0.826
         7            c6bf         1   UNL        c6         7    -0.04864       12.0110 ; qtot   -0.875
         8            c7bf         1   UNL        c7         8     0.72000       12.0110 ; qtot   -0.155
         9            n8bf         1   UNL        n8         9    -0.50720       14.0070 ; qtot   -0.662
        10            o9bf         1   UNL        o9        10    -0.60216       15.9990 ; qtot   -1.264
        11           c10bf         1   UNL       c10        11     0.56635       12.0110 ; qtot   -0.698
        12           c11bf         1   UNL       c11        12    -0.15129       12.0110 ; qtot   -0.849
        13           c12bf         1   UNL       c12        13    -0.08668       12.0110 ; qtot   -0.936
        14           c13bf         1   UNL       c13        14    -0.12388       12.0110 ; qtot   -1.059
        15           c14bf         1   UNL       c14        15    -0.08876       12.0110 ; qtot   -1.148
        16           c15bf         1   UNL       c15        16    -0.12388       12.0110 ; qtot   -1.272
        17           c16bf         1   UNL       c16        17    -0.08668       12.0110 ; qtot   -1.359
        18           c17bf         1   UNL       c17        18     0.20190       12.0110 ; qtot   -1.157
        19           o18bf         1   UNL       o18        19    -0.60342       15.9990 ; qtot   -1.760
        20          cl19bf         1   UNL      cl19        20    -0.10362       35.4530 ; qtot   -1.864
        21           c20bf         1   UNL       c20        21    -0.10277       12.0110 ; qtot   -1.967
        22           c21bf         1   UNL       c21        22    -0.10277       12.0110 ; qtot   -2.069
        23           h22bf         1   UNL       h22        23     0.15894        1.0080 ; qtot   -1.910
        24           h23bf         1   UNL       h23        24     0.15369        1.0080 ; qtot   -1.757
        25           h24bf         1   UNL       h24        25     0.17364        1.0080 ; qtot   -1.583
        26           h25bf         1   UNL       h25        26     0.33625        1.0080 ; qtot   -1.247
        27           h26bf         1   UNL       h26        27     0.14623        1.0080 ; qtot   -1.101
        28           h27bf         1   UNL       h27        28     0.14030        1.0080 ; qtot   -0.960
        29           h28bf         1   UNL       h28        29     0.14030        1.0080 ; qtot   -0.820
        30           h29bf         1   UNL       h29        30     0.14623        1.0080 ; qtot   -0.674
        31           h30bf         1   UNL       h30        31     0.40249        1.0080 ; qtot   -0.271
        32           h31bf         1   UNL       h31        32     0.04522        1.0080 ; qtot   -0.226
        33           h32bf         1   UNL       h32        33     0.04522        1.0080 ; qtot   -0.181
        34           h33bf         1   UNL       h33        34     0.04522        1.0080 ; qtot   -0.136
        35           h34bf         1   UNL       h34        35     0.04522        1.0080 ; qtot   -0.090
        36           h35bf         1   UNL       h35        36     0.04522        1.0080 ; qtot   -0.045
        37           h36bf         1   UNL       h36        37     0.04521        1.0080 ; qtot   -0.000

[ bonds ]
;       ai        aj funct               r               k
         1         2     1        0.141003   352377.659814    ;  uncertainty r = 0.000031, k = 4.100723
         1         3     1        0.138331   381035.735938    ;  uncertainty r = 0.000037, k = 2.520762
         1        23     1        0.108717   337073.168018    ;  uncertainty r = 0.000020, k = 1.992252
         2         4     1        0.141739   389114.936768    ;  uncertainty r = 0.000050, k = 7.793144
         2         5     1        0.138631   293467.557812    ;  uncertainty r = 0.000110, k = 19.100053
         3         6     1        0.140840   346460.073145    ;  uncertainty r = 0.000072, k = 8.945721
         3        24     1        0.108689   335100.043262    ;  uncertainty r = 0.000017, k = 0.765044
         4         7     1        0.139896   367445.345996    ;  uncertainty r = 0.000040, k = 6.157561
         4         8     1        0.146606   267860.783203    ;  uncertainty r = 0.000071, k = 17.414307
         5        11     1        0.129809   466468.756348    ;  uncertainty r = 0.000049, k = 7.919414
         6         7     1        0.138632   352639.951465    ;  uncertainty r = 0.000045, k = 9.847025
         6        20     1        0.175485   198040.564111    ;  uncertainty r = 0.000090, k = 6.769239
         7        25     1        0.108541   331944.882324    ;  uncertainty r = 0.000012, k = 1.320880
         8         9     1        0.140274   442952.296289    ;  uncertainty r = 0.000070, k = 13.410834
         8        10     1        0.123393   857058.078125    ;  uncertainty r = 0.000099, k = 12.733078
         9        11     1        0.139072   297625.382275    ;  uncertainty r = 0.000069, k = 20.066683
         9        26     1        0.102058   454589.659180    ;  uncertainty r = 0.000027, k = 4.102090
        11        12     1        0.147341   266941.958008    ;  uncertainty r = 0.000109, k = 11.708942
        12        13     1        0.139881   350469.118408    ;  uncertainty r = 0.000059, k = 3.608169
        12        17     1        0.139881   350469.118408    ;  uncertainty r = 0.000059, k = 3.608169
        13        14     1        0.139215   359042.692139    ;  uncertainty r = 0.000045, k = 3.009361
        13        27     1        0.108751   333157.971631    ;  uncertainty r = 0.000045, k = 1.128363
        14        15     1        0.139630   349504.479639    ;  uncertainty r = 0.000022, k = 3.365375
        14        28     1        0.108801   333642.308447    ;  uncertainty r = 0.000019, k = 1.144891
        15        16     1        0.139630   349504.479639    ;  uncertainty r = 0.000022, k = 3.365375
        15        18     1        0.152147   213548.803735    ;  uncertainty r = 0.000097, k = 3.797993
        16        17     1        0.139215   359042.692139    ;  uncertainty r = 0.000045, k = 3.009361
        16        29     1        0.108801   333642.308447    ;  uncertainty r = 0.000019, k = 1.144913
        17        30     1        0.108751   333157.997168    ;  uncertainty r = 0.000045, k = 1.128360
        18        19     1        0.144782   263188.513672    ;  uncertainty r = 0.000100, k = 11.942343
        18        21     1        0.153487   207492.767627    ;  uncertainty r = 0.000036, k = 5.323961
        18        22     1        0.153487   207492.767627    ;  uncertainty r = 0.000036, k = 5.323961
        19        31     1        0.097230   467409.339160    ;  uncertainty r = 0.000030, k = 3.616173
        21        32     1        0.109572   309908.578662    ;  uncertainty r = 0.000020, k = 1.196954
        21        33     1        0.109572   309908.578662    ;  uncertainty r = 0.000020, k = 1.196954
        21        34     1        0.109572   309908.578662    ;  uncertainty r = 0.000020, k = 1.196954
        22        35     1        0.109572   309908.578662    ;  uncertainty r = 0.000020, k = 1.196957
        22        36     1        0.109572   309908.578662    ;  uncertainty r = 0.000020, k = 1.196957
        22        37     1        0.109572   309908.578662    ;  uncertainty r = 0.000020, k = 1.196957

[ angles ]
;       ai        aj        ak funct           theta             cth
         1         2         4     1      118.958298      408.714956    ;  uncertainty theta = 0.003445, k = 0.255301
         1         2         5     1      120.073631      513.424510    ;  uncertainty theta = 0.010000, k = 0.066387
         1         3         6     1      119.823959      516.913390    ;  uncertainty theta = 0.001845, k = 0.121058
         1         3        24     1      120.195602      281.745756    ;  uncertainty theta = 0.001139, k = 0.063849
         2         1         3     1      119.020226      531.697109    ;  uncertainty theta = 0.002566, k = 0.137843
         2         1        23     1      120.531326      272.309316    ;  uncertainty theta = 0.003350, k = 0.118994
         2         4         7     1      121.611130      436.620025    ;  uncertainty theta = 0.003367, k = 0.176023
         2         4         8     1      117.424583      495.412580    ;  uncertainty theta = 0.005787, k = 0.265765
         2         5        11     1      115.119766      418.930118    ;  uncertainty theta = 0.005838, k = 0.414649
         3         1        23     1      121.094238      279.308367    ;  uncertainty theta = 0.001964, k = 0.030362
         3         6         7     1      122.771561      400.181060    ;  uncertainty theta = 0.001922, k = 0.211814
         3         6        20     1      119.846329      452.228179    ;  uncertainty theta = 0.001373, k = 0.074415
         4         2         5     1      123.487221      570.890252    ;  uncertainty theta = 0.006351, k = 0.144502
         4         7         6     1      119.321396      478.452300    ;  uncertainty theta = 0.002458, k = 0.178455
         4         7        25     1      120.016678      248.666022    ;  uncertainty theta = 0.004569, k = 0.118009
         4         8         9     1      108.852562      391.138785    ;  uncertainty theta = 0.007450, k = 0.267002
         4         8        10     1      128.115463      509.865562    ;  uncertainty theta = 0.002518, k = 0.126661
         5        11         9     1      123.678001      679.251166    ;  uncertainty theta = 0.005921, k = 0.135841
         5        11        12     1      122.676720      446.759790    ;  uncertainty theta = 0.003665, k = 0.151797
         6         3        24     1      120.609276      285.263302    ;  uncertainty theta = 0.001595, k = 0.049071
         6         7        25     1      121.893600      280.315774    ;  uncertainty theta = 0.002063, k = 0.089171
         7         4         8     1      118.036819      398.616721    ;  uncertainty theta = 0.002781, k = 0.119526
         7         6        20     1      120.169693      431.844426    ;  uncertainty theta = 0.001605, k = 0.120300
         8         9        11     1      121.115135      496.120979    ;  uncertainty theta = 0.003151, k = 0.180480
         8         9        26     1      115.325302      353.038982    ;  uncertainty theta = 0.006711, k = 0.132674
         9         8        10     1      124.921463      821.620998    ;  uncertainty theta = 0.002826, k = 0.081114
         9        11        12     1      116.651688      515.746791    ;  uncertainty theta = 0.005062, k = 0.242782
        11         9        26     1      116.804947      331.084697    ;  uncertainty theta = 0.006464, k = 0.239703
        11        12        13     1      117.981766      401.223070    ;  uncertainty theta = 0.002686, k = 0.115669
        11        12        17     1      117.981766      401.223070    ;  uncertainty theta = 0.002686, k = 0.115669
        12        13        14     1      121.936867      513.032419    ;  uncertainty theta = 0.001595, k = 0.037410
        12        13        27     1      118.373268      267.332069    ;  uncertainty theta = 0.002929, k = 0.046096
        12        17        16     1      121.936867      513.032419    ;  uncertainty theta = 0.001595, k = 0.037410
        12        17        30     1      118.373268      267.332037    ;  uncertainty theta = 0.002929, k = 0.046096
        13        12        17     1      120.778748      421.634435    ;  uncertainty theta = 0.002896, k = 0.258077
        13        14        15     1      121.733681      516.745292    ;  uncertainty theta = 0.002295, k = 0.052086
        13        14        28     1      119.605568      285.026126    ;  uncertainty theta = 0.002260, k = 0.028336
        14        13        27     1      120.211563      284.749144    ;  uncertainty theta = 0.002936, k = 0.063323
        14        15        16     1      119.700928      459.849474    ;  uncertainty theta = 0.002192, k = 0.105996
        14        15        18     1      119.835281      368.426622    ;  uncertainty theta = 0.004163, k = 0.173853
        15        14        28     1      118.678185      262.012993    ;  uncertainty theta = 0.001113, k = 0.066500
        15        16        17     1      121.733681      516.745292    ;  uncertainty theta = 0.002295, k = 0.052086
        15        16        29     1      118.678185      262.012993    ;  uncertainty theta = 0.001113, k = 0.066500
        15        18        19     1      109.685776      703.897222    ;  uncertainty theta = 0.001965, k = 0.142449
        15        18        21     1      109.715744      550.550008    ;  uncertainty theta = 0.001726, k = 0.033765
        15        18        22     1      109.715744      550.550008    ;  uncertainty theta = 0.001726, k = 0.033765
        16        15        18     1      119.835281      368.426622    ;  uncertainty theta = 0.004163, k = 0.173853
        16        17        30     1      120.211563      284.749144    ;  uncertainty theta = 0.002936, k = 0.063322
        17        16        29     1      119.605568      285.026158    ;  uncertainty theta = 0.002260, k = 0.028336
        18        19        31     1      107.710533      483.511457    ;  uncertainty theta = 0.002078, k = 0.098569
        18        21        32     1      107.275742      375.507520    ;  uncertainty theta = 0.000927, k = 0.039228
        18        21        33     1      107.275742      375.507520    ;  uncertainty theta = 0.000927, k = 0.039228
        18        21        34     1      107.275742      375.507520    ;  uncertainty theta = 0.000927, k = 0.039228
        18        22        35     1      107.275742      375.507520    ;  uncertainty theta = 0.000927, k = 0.039228
        18        22        36     1      107.275742      375.507520    ;  uncertainty theta = 0.000927, k = 0.039228
        18        22        37     1      107.275742      375.507520    ;  uncertainty theta = 0.000927, k = 0.039228
        19        18        21     1      108.829308      692.110441    ;  uncertainty theta = 0.002464, k = 0.098428
        19        18        22     1      108.829308      692.110441    ;  uncertainty theta = 0.002464, k = 0.098428
        21        18        22     1      110.087318      564.121450    ;  uncertainty theta = 0.001573, k = 0.073265
        32        21        33     1      105.686974      317.730768    ;  uncertainty theta = 0.001105, k = 0.008156
        32        21        34     1      105.686974      317.730768    ;  uncertainty theta = 0.001105, k = 0.008156
        33        21        34     1      105.686974      317.730768    ;  uncertainty theta = 0.001105, k = 0.008156
        35        22        36     1      105.686974      317.730768    ;  uncertainty theta = 0.001105, k = 0.008156
        35        22        37     1      105.686974      317.730768    ;  uncertainty theta = 0.001105, k = 0.008156
        36        22        37     1      105.686974      317.730768    ;  uncertainty theta = 0.001105, k = 0.008156

[ dihedrals ] ; propers for gromacs 4.5 or higher, use funct 9
;       ai        aj        ak        al funct           phase               k        pn
         1         2         4         7     9        0.000000       -0.086836         1    ;  uncertainty k = 0.405166
         1         2         4         7     9      180.000000        6.917772         2    ;  uncertainty k = 0.671722
         1         2         4         7     9        0.000000        0.277631         3    ;  uncertainty k = 0.347469
         1         2         4         7     9      180.000000        1.380295         4    ;  uncertainty k = 0.280597
         1         2         4         8     9        0.000000        0.074223         1    ;  uncertainty k = 0.476409
         1         2         4         8     9      180.000000        6.538359         2    ;  uncertainty k = 0.844925
         1         2         4         8     9        0.000000        0.916195         3    ;  uncertainty k = 0.256596
         1         2         4         8     9      180.000000        1.418426         4    ;  uncertainty k = 0.185797
         1         2         5        11     9        0.000000        1.407035         1    ;  uncertainty k = 1.737799
         1         2         5        11     9      180.000000        5.579767         2    ;  uncertainty k = 1.018665
         1         2         5        11     9        0.000000        2.277901         3    ;  uncertainty k = 0.342654
         1         2         5        11     9      180.000000        0.378456         4    ;  uncertainty k = 0.408379
         1         3         6         7     9        0.000000       -0.043527         1    ;  uncertainty k = 0.225003
         1         3         6         7     9      180.000000        7.944724         2    ;  uncertainty k = 0.438129
         1         3         6         7     9        0.000000       -0.036854         3    ;  uncertainty k = 0.440524
         1         3         6         7     9      180.000000        1.183834         4    ;  uncertainty k = 0.315612
         1         3         6        20     9        0.000000        0.070677         1    ;  uncertainty k = 0.079482
         1         3         6        20     9      180.000000        8.242332         2    ;  uncertainty k = 0.636287
         1         3         6        20     9        0.000000        1.492527         3    ;  uncertainty k = 0.494416
         1         3         6        20     9      180.000000        1.564191         4    ;  uncertainty k = 0.232281
         2         1         3         6     9        0.000000        0.050040         1    ;  uncertainty k = 0.141258
         2         1         3         6     9      180.000000       15.706142         2    ;  uncertainty k = 0.106448
         2         1         3         6     9        0.000000       -0.276304         3    ;  uncertainty k = 0.536730
         2         1         3         6     9      180.000000        0.958964         4    ;  uncertainty k = 0.260240
         2         1         3        24     9        0.000000        0.110054         1    ;  uncertainty k = 0.192611
         2         1         3        24     9      180.000000       10.001837         2    ;  uncertainty k = 0.329682
         2         1         3        24     9        0.000000        1.426775         3    ;  uncertainty k = 0.163253
         2         1         3        24     9      180.000000        1.667765         4    ;  uncertainty k = 0.105635
         2         4         7         6     9        0.000000        0.054460         1    ;  uncertainty k = 0.277723
         2         4         7         6     9      180.000000       11.551865         2    ;  uncertainty k = 0.367011
         2         4         7         6     9        0.000000       -0.279125         3    ;  uncertainty k = 0.162520
         2         4         7         6     9      180.000000        1.142028         4    ;  uncertainty k = 0.161898
         2         4         7        25     9        0.000000        0.017776         1    ;  uncertainty k = 0.404234
         2         4         7        25     9      180.000000        7.496823         2    ;  uncertainty k = 0.676105
         2         4         7        25     9        0.000000        1.305741         3    ;  uncertainty k = 0.308374
         2         4         7        25     9      180.000000        1.419595         4    ;  uncertainty k = 0.107683
         2         4         8         9     9        0.000000       -1.225096         1    ;  uncertainty k = 0.851753
         2         4         8         9     9      180.000000        2.419847         2    ;  uncertainty k = 0.688290
         2         4         8         9     9        0.000000       -0.208316         3    ;  uncertainty k = 0.467259
         2         4         8         9     9      180.000000        0.555074         4    ;  uncertainty k = 0.239087
         2         4         8        10     9        0.000000       -2.278207         1    ;  uncertainty k = 0.922880
         2         4         8        10     9      180.000000        4.994867         2    ;  uncertainty k = 0.549706
         2         4         8        10     9        0.000000        0.257116         3    ;  uncertainty k = 0.268183
         2         4         8        10     9      180.000000       -0.093273         4    ;  uncertainty k = 0.217791
         2         5        11         9     9        0.000000       -0.790330         1    ;  uncertainty k = 0.453538
         2         5        11         9     9      180.000000       23.843580         2    ;  uncertainty k = 0.172041
         2         5        11         9     9        0.000000        1.732607         3    ;  uncertainty k = 0.268001
         2         5        11         9     9      180.000000        1.447519         4    ;  uncertainty k = 0.451384
         2         5        11        12     9        0.000000       -0.609730         1    ;  uncertainty k = 0.858763
         2         5        11        12     9      180.000000       19.074800         2    ;  uncertainty k = 0.455722
         2         5        11        12     9        0.000000        2.698700         3    ;  uncertainty k = 0.474784
         2         5        11        12     9      180.000000        1.375705         4    ;  uncertainty k = 0.349148
         3         1         2         4     9        0.000000        0.218884         1    ;  uncertainty k = 0.397844
         3         1         2         4     9      180.000000        8.520362         2    ;  uncertainty k = 0.444041
         3         1         2         4     9        0.000000       -0.330001         3    ;  uncertainty k = 0.184070
         3         1         2         4     9      180.000000        1.091192         4    ;  uncertainty k = 0.193159
         3         1         2         5     9        0.000000        0.123333         1    ;  uncertainty k = 0.527371
         3         1         2         5     9      180.000000       10.435052         2    ;  uncertainty k = 0.282391
         3         1         2         5     9        0.000000        0.825698         3    ;  uncertainty k = 0.237995
         3         1         2         5     9      180.000000        1.457869         4    ;  uncertainty k = 0.131974
         3         6         7         4     9        0.000000       -0.103684         1    ;  uncertainty k = 0.498664
         3         6         7         4     9      180.000000        9.500421         2    ;  uncertainty k = 0.531706
         3         6         7         4     9        0.000000        0.278755         3    ;  uncertainty k = 0.503289
         3         6         7         4     9      180.000000        1.285542         4    ;  uncertainty k = 0.464719
         3         6         7        25     9        0.000000        0.093561         1    ;  uncertainty k = 0.204155
         3         6         7        25     9      180.000000        6.633888         2    ;  uncertainty k = 0.399445
         3         6         7        25     9        0.000000        1.495714         3    ;  uncertainty k = 0.307828
         3         6         7        25     9      180.000000        1.638150         4    ;  uncertainty k = 0.056819
         4         2         1        23     9        0.000000       -0.086083         1    ;  uncertainty k = 0.280790
         4         2         1        23     9      180.000000        5.486333         2    ;  uncertainty k = 0.456076
         4         2         1        23     9        0.000000        1.373381         3    ;  uncertainty k = 0.394697
         4         2         1        23     9      180.000000        1.199944         4    ;  uncertainty k = 0.101162
         4         2         5        11     9        0.000000        1.703739         1    ;  uncertainty k = 2.238567
         4         2         5        11     9      180.000000        3.923678         2    ;  uncertainty k = 1.603297
         4         2         5        11     9        0.000000        1.386158         3    ;  uncertainty k = 0.617757
         4         2         5        11     9      180.000000        0.455582         4    ;  uncertainty k = 0.475533
         4         7         6        20     9        0.000000       -0.211749         1    ;  uncertainty k = 0.259821
         4         7         6        20     9      180.000000       10.333742         2    ;  uncertainty k = 0.259246
         4         7         6        20     9        0.000000        1.500001         3    ;  uncertainty k = 0.263324
         4         7         6        20     9      180.000000        1.585227         4    ;  uncertainty k = 0.184456
         4         8         9        11     9        0.000000        0.208576         1    ;  uncertainty k = 1.613489
         4         8         9        11     9      180.000000        4.155333         2    ;  uncertainty k = 1.142717
         4         8         9        11     9        0.000000        0.710670         3    ;  uncertainty k = 0.194725
         4         8         9        11     9      180.000000        0.479802         4    ;  uncertainty k = 0.376532
         4         8         9        26     9        0.000000        2.394500         1    ;  uncertainty k = 2.251570
         4         8         9        26     9      180.000000        5.345240         2    ;  uncertainty k = 0.836422
         4         8         9        26     9        0.000000        1.773807         3    ;  uncertainty k = 0.167052
         4         8         9        26     9      180.000000       -0.039638         4    ;  uncertainty k = 0.081043
         5         2         1        23     9        0.000000       -0.516914         1    ;  uncertainty k = 0.708514
         5         2         1        23     9      180.000000        7.649245         2    ;  uncertainty k = 0.337441
         5         2         1        23     9        0.000000        1.208640         3    ;  uncertainty k = 0.373591
         5         2         1        23     9      180.000000        1.215800         4    ;  uncertainty k = 0.219449
         5         2         4         7     9        0.000000        0.042809         1    ;  uncertainty k = 0.406437
         5         2         4         7     9      180.000000        8.270674         2    ;  uncertainty k = 0.625736
         5         2         4         7     9        0.000000        0.645189         3    ;  uncertainty k = 0.261294
         5         2         4         7     9      180.000000        1.429591         4    ;  uncertainty k = 0.261067
         5         2         4         8     9        0.000000       -0.200220         1    ;  uncertainty k = 0.419914
         5         2         4         8     9      180.000000        7.514480         2    ;  uncertainty k = 0.842555
         5         2         4         8     9        0.000000        0.993903         3    ;  uncertainty k = 0.433567
         5         2         4         8     9      180.000000        1.499091         4    ;  uncertainty k = 0.182577
         5        11         9         8     9        0.000000        0.202432         1    ;  uncertainty k = 0.923120
         5        11         9         8     9      180.000000        7.101990         2    ;  uncertainty k = 0.649173
         5        11         9         8     9        0.000000        0.611471         3    ;  uncertainty k = 0.680313
         5        11         9         8     9      180.000000        0.382025         4    ;  uncertainty k = 0.221200
         5        11         9        26     9        0.000000        5.758950         1    ;  uncertainty k = 1.531635
         5        11         9        26     9      180.000000       10.846313         2    ;  uncertainty k = 0.608795
         5        11         9        26     9        0.000000        1.244464         3    ;  uncertainty k = 0.560006
         5        11         9        26     9      180.000000       -0.235958         4    ;  uncertainty k = 0.089809
         5        11        12        13     9        0.000000        0.839159         1    ;  uncertainty k = 0.666875
         5        11        12        13     9      180.000000        3.960686         2    ;  uncertainty k = 0.292698
         5        11        12        13     9        0.000000        0.569337         3    ;  uncertainty k = 0.172719
         5        11        12        13     9      180.000000       -0.123687         4    ;  uncertainty k = 0.155165
         5        11        12        17     9        0.000000        0.839159         1    ;  uncertainty k = 0.666875
         5        11        12        17     9      180.000000        3.960686         2    ;  uncertainty k = 0.292698
         5        11        12        17     9        0.000000        0.569337         3    ;  uncertainty k = 0.172719
         5        11        12        17     9      180.000000       -0.123687         4    ;  uncertainty k = 0.155165
         6         3         1        23     9        0.000000        0.024507         1    ;  uncertainty k = 0.182924
         6         3         1        23     9      180.000000        9.382645         2    ;  uncertainty k = 0.307394
         6         3         1        23     9        0.000000        1.474886         3    ;  uncertainty k = 0.324248
         6         3         1        23     9      180.000000        2.029935         4    ;  uncertainty k = 0.305106
         6         7         4         8     9        0.000000        0.341870         1    ;  uncertainty k = 0.205929
         6         7         4         8     9      180.000000        9.029573         2    ;  uncertainty k = 0.807279
         6         7         4         8     9        0.000000        1.414750         3    ;  uncertainty k = 0.312467
         6         7         4         8     9      180.000000        1.838673         4    ;  uncertainty k = 0.241652
         7         4         8         9     9        0.000000        0.105417         1    ;  uncertainty k = 0.610803
         7         4         8         9     9      180.000000        2.953908         2    ;  uncertainty k = 0.596303
         7         4         8         9     9        0.000000        0.696302         3    ;  uncertainty k = 0.507225
         7         4         8         9     9      180.000000        0.522417         4    ;  uncertainty k = 0.247935
         7         4         8        10     9        0.000000       -1.780214         1    ;  uncertainty k = 0.708469
         7         4         8        10     9      180.000000        5.332987         2    ;  uncertainty k = 0.654633
         7         4         8        10     9        0.000000        0.550092         3    ;  uncertainty k = 0.334426
         7         4         8        10     9      180.000000       -0.148713         4    ;  uncertainty k = 0.129011
         7         6         3        24     9        0.000000       -0.121438         1    ;  uncertainty k = 0.312480
         7         6         3        24     9      180.000000        5.596931         2    ;  uncertainty k = 0.562558
         7         6         3        24     9        0.000000        1.298242         3    ;  uncertainty k = 0.212652
         7         6         3        24     9      180.000000        1.407690         4    ;  uncertainty k = 0.150578
         8         4         7        25     9        0.000000       -0.420799         1    ;  uncertainty k = 0.675338
         8         4         7        25     9      180.000000        7.793565         2    ;  uncertainty k = 0.386451
         8         4         7        25     9        0.000000        0.970019         3    ;  uncertainty k = 0.212878
         8         4         7        25     9      180.000000        1.227284         4    ;  uncertainty k = 0.126711
         8         9        11        12     9        0.000000        1.142234         1    ;  uncertainty k = 0.844967
         8         9        11        12     9      180.000000        5.382453         2    ;  uncertainty k = 0.769207
         8         9        11        12     9        0.000000        0.523160         3    ;  uncertainty k = 0.322115
         8         9        11        12     9      180.000000       -0.084156         4    ;  uncertainty k = 0.315032
         9        11        12        13     9        0.000000       -0.008824         1    ;  uncertainty k = 0.287080
         9        11        12        13     9      180.000000        4.137706         2    ;  uncertainty k = 0.387657
         9        11        12        13     9        0.000000        0.542374         3    ;  uncertainty k = 0.125060
         9        11        12        13     9      180.000000       -0.117511         4    ;  uncertainty k = 0.038868
         9        11        12        17     9        0.000000       -0.008824         1    ;  uncertainty k = 0.287080
         9        11        12        17     9      180.000000        4.137706         2    ;  uncertainty k = 0.387657
         9        11        12        17     9        0.000000        0.542374         3    ;  uncertainty k = 0.125060
         9        11        12        17     9      180.000000       -0.117511         4    ;  uncertainty k = 0.038868
        10         8         9        11     9        0.000000        0.115733         1    ;  uncertainty k = 1.312981
        10         8         9        11     9      180.000000       11.172484         2    ;  uncertainty k = 0.466313
        10         8         9        11     9        0.000000        1.323724         3    ;  uncertainty k = 0.336565
        10         8         9        11     9      180.000000       -0.493029         4    ;  uncertainty k = 0.405458
        10         8         9        26     9        0.000000        1.503059         1    ;  uncertainty k = 2.527225
        10         8         9        26     9      180.000000        9.172990         2    ;  uncertainty k = 0.611780
        10         8         9        26     9        0.000000        0.740137         3    ;  uncertainty k = 0.512283
        10         8         9        26     9      180.000000       -0.112860         4    ;  uncertainty k = 0.062143
        11        12        13        14     9        0.000000        0.101901         1    ;  uncertainty k = 0.156371
        11        12        13        14     9      180.000000        9.094351         2    ;  uncertainty k = 0.632402
        11        12        13        14     9        0.000000        1.349215         3    ;  uncertainty k = 0.287092
        11        12        13        14     9      180.000000        1.700277         4    ;  uncertainty k = 0.195318
        11        12        13        27     9        0.000000       -0.275866         1    ;  uncertainty k = 0.208465
        11        12        13        27     9      180.000000        7.223174         2    ;  uncertainty k = 0.260369
        11        12        13        27     9        0.000000        0.706164         3    ;  uncertainty k = 0.161256
        11        12        13        27     9      180.000000        1.048776         4    ;  uncertainty k = 0.162566
        11        12        17        16     9        0.000000        0.101901         1    ;  uncertainty k = 0.156371
        11        12        17        16     9      180.000000        9.094351         2    ;  uncertainty k = 0.632402
        11        12        17        16     9        0.000000        1.349215         3    ;  uncertainty k = 0.287092
        11        12        17        16     9      180.000000        1.700277         4    ;  uncertainty k = 0.195318
        11        12        17        30     9        0.000000       -0.275866         1    ;  uncertainty k = 0.208465
        11        12        17        30     9      180.000000        7.223174         2    ;  uncertainty k = 0.260371
        11        12        17        30     9        0.000000        0.706164         3    ;  uncertainty k = 0.161255
        11        12        17        30     9      180.000000        1.048775         4    ;  uncertainty k = 0.162566
        12        11         9        26     9        0.000000        0.911623         1    ;  uncertainty k = 0.129052
        12        11         9        26     9      180.000000        4.671520         2    ;  uncertainty k = 0.900674
        12        11         9        26     9        0.000000        1.367313         3    ;  uncertainty k = 0.257053
        12        11         9        26     9      180.000000       -0.076850         4    ;  uncertainty k = 0.266316
        12        13        14        15     9        0.000000       -0.133648         1    ;  uncertainty k = 0.232408
        12        13        14        15     9      180.000000       12.534119         2    ;  uncertainty k = 0.264132
        12        13        14        15     9        0.000000       -0.659583         3    ;  uncertainty k = 0.473408
        12        13        14        15     9      180.000000        0.896721         4    ;  uncertainty k = 0.301178
        12        13        14        28     9        0.000000        0.104452         1    ;  uncertainty k = 0.123159
        12        13        14        28     9      180.000000        8.153177         2    ;  uncertainty k = 0.285565
        12        13        14        28     9        0.000000        1.386423         3    ;  uncertainty k = 0.199866
        12        13        14        28     9      180.000000        1.841381         4    ;  uncertainty k = 0.178837
        12        17        16        15     9        0.000000       -0.133648         1    ;  uncertainty k = 0.232408
        12        17        16        15     9      180.000000       12.534119         2    ;  uncertainty k = 0.264132
        12        17        16        15     9        0.000000       -0.659583         3    ;  uncertainty k = 0.473408
        12        17        16        15     9      180.000000        0.896721         4    ;  uncertainty k = 0.301178
        12        17        16        29     9        0.000000        0.104451         1    ;  uncertainty k = 0.123158
        12        17        16        29     9      180.000000        8.153176         2    ;  uncertainty k = 0.285563
        12        17        16        29     9        0.000000        1.386423         3    ;  uncertainty k = 0.199867
        12        17        16        29     9      180.000000        1.841381         4    ;  uncertainty k = 0.178837
        13        12        17        16     9        0.000000        0.055276         1    ;  uncertainty k = 0.149139
        13        12        17        16     9      180.000000       10.940930         2    ;  uncertainty k = 0.285081
        13        12        17        16     9        0.000000       -0.595107         3    ;  uncertainty k = 0.165960
        13        12        17        16     9      180.000000        0.949928         4    ;  uncertainty k = 0.261174
        13        12        17        30     9        0.000000        0.065424         1    ;  uncertainty k = 0.154406
        13        12        17        30     9      180.000000        6.880289         2    ;  uncertainty k = 0.569493
        13        12        17        30     9        0.000000        1.307045         3    ;  uncertainty k = 0.238387
        13        12        17        30     9      180.000000        1.580984         4    ;  uncertainty k = 0.264455
        13        14        15        16     9        0.000000       -0.145838         1    ;  uncertainty k = 0.090645
        13        14        15        16     9      180.000000       11.057201         2    ;  uncertainty k = 0.371394
        13        14        15        16     9        0.000000       -0.343350         3    ;  uncertainty k = 0.267016
        13        14        15        16     9      180.000000        0.889288         4    ;  uncertainty k = 0.302073
        13        14        15        18     9        0.000000        0.213012         1    ;  uncertainty k = 0.165870
        13        14        15        18     9      180.000000        8.409903         2    ;  uncertainty k = 0.512358
        13        14        15        18     9        0.000000        1.391291         3    ;  uncertainty k = 0.345930
        13        14        15        18     9      180.000000        1.926967         4    ;  uncertainty k = 0.263557
        14        13        12        17     9        0.000000        0.055276         1    ;  uncertainty k = 0.149139
        14        13        12        17     9      180.000000       10.940930         2    ;  uncertainty k = 0.285081
        14        13        12        17     9        0.000000       -0.595107         3    ;  uncertainty k = 0.165960
        14        13        12        17     9      180.000000        0.949928         4    ;  uncertainty k = 0.261174
        14        15        16        17     9        0.000000       -0.145838         1    ;  uncertainty k = 0.090645
        14        15        16        17     9      180.000000       11.057201         2    ;  uncertainty k = 0.371394
        14        15        16        17     9        0.000000       -0.343350         3    ;  uncertainty k = 0.267016
        14        15        16        17     9      180.000000        0.889288         4    ;  uncertainty k = 0.302073
        14        15        16        29     9        0.000000        0.099411         1    ;  uncertainty k = 0.169149
        14        15        16        29     9      180.000000        7.277332         2    ;  uncertainty k = 0.487638
        14        15        16        29     9        0.000000        1.399667         3    ;  uncertainty k = 0.329314
        14        15        16        29     9      180.000000        1.678522         4    ;  uncertainty k = 0.191976
        14        15        18        19     9        0.000000       -1.219996         1    ;  uncertainty k = 0.274824
        14        15        18        19     9      180.000000        3.868486         2    ;  uncertainty k = 0.116802
        14        15        18        19     9        0.000000        0.651180         3    ;  uncertainty k = 0.135170
        14        15        18        19     9      180.000000        0.512033         4    ;  uncertainty k = 0.043839
        14        15        18        21     9        0.000000       -0.409205         1    ;  uncertainty k = 0.095576
        14        15        18        21     9      180.000000        2.717206         2    ;  uncertainty k = 0.115248
        14        15        18        21     9        0.000000        0.444819         3    ;  uncertainty k = 0.108147
        14        15        18        21     9      180.000000        0.287592         4    ;  uncertainty k = 0.049350
        14        15        18        22     9        0.000000       -0.409205         1    ;  uncertainty k = 0.095576
        14        15        18        22     9      180.000000        2.717206         2    ;  uncertainty k = 0.115248
        14        15        18        22     9        0.000000        0.444819         3    ;  uncertainty k = 0.108147
        14        15        18        22     9      180.000000        0.287592         4    ;  uncertainty k = 0.049350
        15        14        13        27     9        0.000000       -0.030725         1    ;  uncertainty k = 0.185677
        15        14        13        27     9      180.000000        7.531826         2    ;  uncertainty k = 0.200235
        15        14        13        27     9        0.000000        1.277586         3    ;  uncertainty k = 0.254720
        15        14        13        27     9      180.000000        1.862935         4    ;  uncertainty k = 0.207129
        15        16        17        30     9        0.000000       -0.030722         1    ;  uncertainty k = 0.185677
        15        16        17        30     9      180.000000        7.531827         2    ;  uncertainty k = 0.200235
        15        16        17        30     9        0.000000        1.277587         3    ;  uncertainty k = 0.254720
        15        16        17        30     9      180.000000        1.862935         4    ;  uncertainty k = 0.207130
        15        18        19        31     9        0.000000       14.991890         1    ;  uncertainty k = 0.177214
        15        18        19        31     9      180.000000       -3.682074         2    ;  uncertainty k = 0.239405
        15        18        19        31     9        0.000000        0.980423         3    ;  uncertainty k = 0.057177
        15        18        19        31     9      180.000000        0.176294         4    ;  uncertainty k = 0.044986
        15        18        21        32     9        0.000000        0.351770         1    ;  uncertainty k = 0.319275
        15        18        21        32     9      180.000000       -0.223483         2    ;  uncertainty k = 0.173254
        15        18        21        32     9        0.000000        0.715961         3    ;  uncertainty k = 0.098047
        15        18        21        32     9      180.000000       -0.000790         4    ;  uncertainty k = 0.041032
        15        18        21        33     9        0.000000        0.351770         1    ;  uncertainty k = 0.319275
        15        18        21        33     9      180.000000       -0.223483         2    ;  uncertainty k = 0.173254
        15        18        21        33     9        0.000000        0.715961         3    ;  uncertainty k = 0.098047
        15        18        21        33     9      180.000000       -0.000790         4    ;  uncertainty k = 0.041032
        15        18        21        34     9        0.000000        0.351770         1    ;  uncertainty k = 0.319275
        15        18        21        34     9      180.000000       -0.223483         2    ;  uncertainty k = 0.173254
        15        18        21        34     9        0.000000        0.715961         3    ;  uncertainty k = 0.098047
        15        18        21        34     9      180.000000       -0.000790         4    ;  uncertainty k = 0.041032
        15        18        22        35     9        0.000000        0.351770         1    ;  uncertainty k = 0.319275
        15        18        22        35     9      180.000000       -0.223483         2    ;  uncertainty k = 0.173254
        15        18        22        35     9        0.000000        0.715961         3    ;  uncertainty k = 0.098047
        15        18        22        35     9      180.000000       -0.000790         4    ;  uncertainty k = 0.041032
        15        18        22        36     9        0.000000        0.351770         1    ;  uncertainty k = 0.319275
        15        18        22        36     9      180.000000       -0.223483         2    ;  uncertainty k = 0.173254
        15        18        22        36     9        0.000000        0.715961         3    ;  uncertainty k = 0.098047
        15        18        22        36     9      180.000000       -0.000790         4    ;  uncertainty k = 0.041032
        15        18        22        37     9        0.000000        0.351770         1    ;  uncertainty k = 0.319275
        15        18        22        37     9      180.000000       -0.223483         2    ;  uncertainty k = 0.173254
        15        18        22        37     9        0.000000        0.715961         3    ;  uncertainty k = 0.098047
        15        18        22        37     9      180.000000       -0.000790         4    ;  uncertainty k = 0.041032
        16        15        14        28     9        0.000000        0.099411         1    ;  uncertainty k = 0.169149
        16        15        14        28     9      180.000000        7.277331         2    ;  uncertainty k = 0.487638
        16        15        14        28     9        0.000000        1.399666         3    ;  uncertainty k = 0.329314
        16        15        14        28     9      180.000000        1.678522         4    ;  uncertainty k = 0.191976
        16        15        18        19     9        0.000000       -1.219996         1    ;  uncertainty k = 0.274824
        16        15        18        19     9      180.000000        3.868486         2    ;  uncertainty k = 0.116802
        16        15        18        19     9        0.000000        0.651180         3    ;  uncertainty k = 0.135170
        16        15        18        19     9      180.000000        0.512033         4    ;  uncertainty k = 0.043839
        16        15        18        21     9        0.000000       -0.409205         1    ;  uncertainty k = 0.095576
        16        15        18        21     9      180.000000        2.717206         2    ;  uncertainty k = 0.115248
        16        15        18        21     9        0.000000        0.444819         3    ;  uncertainty k = 0.108147
        16        15        18        21     9      180.000000        0.287592         4    ;  uncertainty k = 0.049350
        16        15        18        22     9        0.000000       -0.409205         1    ;  uncertainty k = 0.095576
        16        15        18        22     9      180.000000        2.717206         2    ;  uncertainty k = 0.115248
        16        15        18        22     9        0.000000        0.444819         3    ;  uncertainty k = 0.108147
        16        15        18        22     9      180.000000        0.287592         4    ;  uncertainty k = 0.049350
        17        12        13        27     9        0.000000        0.065425         1    ;  uncertainty k = 0.154407
        17        12        13        27     9      180.000000        6.880288         2    ;  uncertainty k = 0.569492
        17        12        13        27     9        0.000000        1.307045         3    ;  uncertainty k = 0.238388
        17        12        13        27     9      180.000000        1.580984         4    ;  uncertainty k = 0.264455
        17        16        15        18     9        0.000000        0.213012         1    ;  uncertainty k = 0.165870
        17        16        15        18     9      180.000000        8.409903         2    ;  uncertainty k = 0.512358
        17        16        15        18     9        0.000000        1.391291         3    ;  uncertainty k = 0.345930
        17        16        15        18     9      180.000000        1.926967         4    ;  uncertainty k = 0.263557
        18        15        14        28     9        0.000000       -0.074274         1    ;  uncertainty k = 0.468916
        18        15        14        28     9      180.000000        7.722559         2    ;  uncertainty k = 0.204459
        18        15        14        28     9        0.000000        0.599783         3    ;  uncertainty k = 0.298353
        18        15        14        28     9      180.000000        0.966283         4    ;  uncertainty k = 0.105372
        18        15        16        29     9        0.000000       -0.074274         1    ;  uncertainty k = 0.468916
        18        15        16        29     9      180.000000        7.722559         2    ;  uncertainty k = 0.204459
        18        15        16        29     9        0.000000        0.599783         3    ;  uncertainty k = 0.298353
        18        15        16        29     9      180.000000        0.966283         4    ;  uncertainty k = 0.105372
        19        18        21        32     9        0.000000       -1.961844         1    ;  uncertainty k = 0.551181
        19        18        21        32     9      180.000000       -0.960261         2    ;  uncertainty k = 0.282481
        19        18        21        32     9        0.000000        0.831230         3    ;  uncertainty k = 0.087293
        19        18        21        32     9      180.000000       -0.214593         4    ;  uncertainty k = 0.050560
        19        18        21        33     9        0.000000       -1.961844         1    ;  uncertainty k = 0.551181
        19        18        21        33     9      180.000000       -0.960261         2    ;  uncertainty k = 0.282481
        19        18        21        33     9        0.000000        0.831230         3    ;  uncertainty k = 0.087293
        19        18        21        33     9      180.000000       -0.214593         4    ;  uncertainty k = 0.050560
        19        18        21        34     9        0.000000       -1.961844         1    ;  uncertainty k = 0.551181
        19        18        21        34     9      180.000000       -0.960261         2    ;  uncertainty k = 0.282481
        19        18        21        34     9        0.000000        0.831230         3    ;  uncertainty k = 0.087293
        19        18        21        34     9      180.000000       -0.214593         4    ;  uncertainty k = 0.050560
        19        18        22        35     9        0.000000       -1.961844         1    ;  uncertainty k = 0.551181
        19        18        22        35     9      180.000000       -0.960261         2    ;  uncertainty k = 0.282481
        19        18        22        35     9        0.000000        0.831230         3    ;  uncertainty k = 0.087293
        19        18        22        35     9      180.000000       -0.214593         4    ;  uncertainty k = 0.050560
        19        18        22        36     9        0.000000       -1.961844         1    ;  uncertainty k = 0.551181
        19        18        22        36     9      180.000000       -0.960261         2    ;  uncertainty k = 0.282481
        19        18        22        36     9        0.000000        0.831230         3    ;  uncertainty k = 0.087293
        19        18        22        36     9      180.000000       -0.214593         4    ;  uncertainty k = 0.050560
        19        18        22        37     9        0.000000       -1.961844         1    ;  uncertainty k = 0.551181
        19        18        22        37     9      180.000000       -0.960261         2    ;  uncertainty k = 0.282481
        19        18        22        37     9        0.000000        0.831230         3    ;  uncertainty k = 0.087293
        19        18        22        37     9      180.000000       -0.214593         4    ;  uncertainty k = 0.050560
        20         6         3        24     9        0.000000       -0.003133         1    ;  uncertainty k = 0.281214
        20         6         3        24     9      180.000000        7.070448         2    ;  uncertainty k = 0.192388
        20         6         3        24     9        0.000000        0.625621         3    ;  uncertainty k = 0.282674
        20         6         3        24     9      180.000000        0.909711         4    ;  uncertainty k = 0.156881
        20         6         7        25     9        0.000000       -0.226784         1    ;  uncertainty k = 0.448338
        20         6         7        25     9      180.000000        7.960785         2    ;  uncertainty k = 0.304493
        20         6         7        25     9        0.000000        0.759431         3    ;  uncertainty k = 0.238165
        20         6         7        25     9      180.000000        1.040082         4    ;  uncertainty k = 0.185282
        21        18        19        31     9        0.000000       12.662224         1    ;  uncertainty k = 0.317843
        21        18        19        31     9      180.000000       -1.675061         2    ;  uncertainty k = 0.239562
        21        18        19        31     9        0.000000        1.060161         3    ;  uncertainty k = 0.149525
        21        18        19        31     9      180.000000        0.360746         4    ;  uncertainty k = 0.102772
        21        18        22        35     9        0.000000       -1.125963         1    ;  uncertainty k = 0.230765
        21        18        22        35     9      180.000000       -0.047878         2    ;  uncertainty k = 0.090864
        21        18        22        35     9        0.000000        0.742644         3    ;  uncertainty k = 0.072669
        21        18        22        35     9      180.000000       -0.033077         4    ;  uncertainty k = 0.054936
        21        18        22        36     9        0.000000       -1.125963         1    ;  uncertainty k = 0.230765
        21        18        22        36     9      180.000000       -0.047878         2    ;  uncertainty k = 0.090864
        21        18        22        36     9        0.000000        0.742644         3    ;  uncertainty k = 0.072669
        21        18        22        36     9      180.000000       -0.033077         4    ;  uncertainty k = 0.054936
        21        18        22        37     9        0.000000       -1.125963         1    ;  uncertainty k = 0.230765
        21        18        22        37     9      180.000000       -0.047878         2    ;  uncertainty k = 0.090864
        21        18        22        37     9        0.000000        0.742644         3    ;  uncertainty k = 0.072669
        21        18        22        37     9      180.000000       -0.033077         4    ;  uncertainty k = 0.054936
        22        18        19        31     9        0.000000       12.662224         1    ;  uncertainty k = 0.317843
        22        18        19        31     9      180.000000       -1.675061         2    ;  uncertainty k = 0.239562
        22        18        19        31     9        0.000000        1.060161         3    ;  uncertainty k = 0.149525
        22        18        19        31     9      180.000000        0.360746         4    ;  uncertainty k = 0.102772
        22        18        21        32     9        0.000000       -1.125963         1    ;  uncertainty k = 0.230765
        22        18        21        32     9      180.000000       -0.047878         2    ;  uncertainty k = 0.090864
        22        18        21        32     9        0.000000        0.742644         3    ;  uncertainty k = 0.072669
        22        18        21        32     9      180.000000       -0.033077         4    ;  uncertainty k = 0.054936
        22        18        21        33     9        0.000000       -1.125963         1    ;  uncertainty k = 0.230765
        22        18        21        33     9      180.000000       -0.047878         2    ;  uncertainty k = 0.090864
        22        18        21        33     9        0.000000        0.742644         3    ;  uncertainty k = 0.072669
        22        18        21        33     9      180.000000       -0.033077         4    ;  uncertainty k = 0.054936
        22        18        21        34     9        0.000000       -1.125963         1    ;  uncertainty k = 0.230765
        22        18        21        34     9      180.000000       -0.047878         2    ;  uncertainty k = 0.090864
        22        18        21        34     9        0.000000        0.742644         3    ;  uncertainty k = 0.072669
        22        18        21        34     9      180.000000       -0.033077         4    ;  uncertainty k = 0.054936
        23         1         3        24     9        0.000000       -0.208997         1    ;  uncertainty k = 0.240182
        23         1         3        24     9      180.000000        8.551786         2    ;  uncertainty k = 0.422100
        23         1         3        24     9        0.000000       -0.222797         3    ;  uncertainty k = 0.249040
        23         1         3        24     9      180.000000        0.253904         4    ;  uncertainty k = 0.207223
        27        13        14        28     9        0.000000       -0.117735         1    ;  uncertainty k = 0.210280
        27        13        14        28     9      180.000000        8.002242         2    ;  uncertainty k = 0.460743
        27        13        14        28     9        0.000000       -0.392489         3    ;  uncertainty k = 0.200264
        27        13        14        28     9      180.000000        0.296121         4    ;  uncertainty k = 0.231306
        29        16        17        30     9        0.000000       -0.117735         1    ;  uncertainty k = 0.210280
        29        16        17        30     9      180.000000        8.002243         2    ;  uncertainty k = 0.460743
        29        16        17        30     9        0.000000       -0.392489         3    ;  uncertainty k = 0.200264
        29        16        17        30     9      180.000000        0.296121         4    ;  uncertainty k = 0.231306

[ dihedrals ] ; impropers
;       ai        aj        ak        al funct           phase               k        pn
         1         2         3        23     4      180.000000        2.827461         2    ;  uncertainty k = 0.312042
         1         3        23         2     4      180.000000        2.827461         2    ;  uncertainty k = 0.312042
         1        23         2         3     4      180.000000        2.827461         2    ;  uncertainty k = 0.312042
         2         1         4         5     4      180.000000       21.863522         2    ;  uncertainty k = 0.044347
         2         4         5         1     4      180.000000       21.863522         2    ;  uncertainty k = 0.044347
         2         5         1         4     4      180.000000       21.863522         2    ;  uncertainty k = 0.044347
         3         1         6        24     4      180.000000        4.962319         2    ;  uncertainty k = 0.100584
         3         6        24         1     4      180.000000        4.962319         2    ;  uncertainty k = 0.100584
         3        24         1         6     4      180.000000        4.962319         2    ;  uncertainty k = 0.100584
         4         2         7         8     4      180.000000        5.135328         2    ;  uncertainty k = 0.360837
         4         7         8         2     4      180.000000        5.135328         2    ;  uncertainty k = 0.360837
         4         8         2         7     4      180.000000        5.135328         2    ;  uncertainty k = 0.360837
         6         3         7        20     4      180.000000       13.453234         2    ;  uncertainty k = 0.052671
         6         7        20         3     4      180.000000       13.453234         2    ;  uncertainty k = 0.052671
         6        20         3         7     4      180.000000       13.453234         2    ;  uncertainty k = 0.052671
         7         4         6        25     4      180.000000        5.374764         2    ;  uncertainty k = 0.083340
         7         6        25         4     4      180.000000        5.374764         2    ;  uncertainty k = 0.083340
         7        25         4         6     4      180.000000        5.374764         2    ;  uncertainty k = 0.083340
         8         4         9        10     4      180.000000       50.428843         2    ;  uncertainty k = 0.009085
         8         9        10         4     4      180.000000       50.428843         2    ;  uncertainty k = 0.009085
         8        10         4         9     4      180.000000       50.428843         2    ;  uncertainty k = 0.009085
         9         8        11        26     4      180.000000        0.713574         2    ;  uncertainty k = 0.498432
         9        11        26         8     4      180.000000        0.713574         2    ;  uncertainty k = 0.498432
         9        26         8        11     4      180.000000        0.713574         2    ;  uncertainty k = 0.498432
        11         5         9        12     4      180.000000       30.410736         2    ;  uncertainty k = 0.037194
        11         9        12         5     4      180.000000       30.410736         2    ;  uncertainty k = 0.037194
        11        12         5         9     4      180.000000       30.410736         2    ;  uncertainty k = 0.037194
        12        11        13        17     4      180.000000        8.897301         2    ;  uncertainty k = 0.236668
        12        13        17        11     4      180.000000        8.897301         2    ;  uncertainty k = 0.236668
        12        17        11        13     4      180.000000        8.897301         2    ;  uncertainty k = 0.236668
        13        12        14        27     4      180.000000        4.118158         2    ;  uncertainty k = 0.143895
        13        14        27        12     4      180.000000        4.118158         2    ;  uncertainty k = 0.143895
        13        27        12        14     4      180.000000        4.118158         2    ;  uncertainty k = 0.143895
        14        13        15        28     4      180.000000        3.498636         2    ;  uncertainty k = 0.120340
        14        15        28        13     4      180.000000        3.498636         2    ;  uncertainty k = 0.120340
        14        28        13        15     4      180.000000        3.498636         2    ;  uncertainty k = 0.120340
        15        14        16        18     4      180.000000       13.022908         2    ;  uncertainty k = 0.059644
        15        16        18        14     4      180.000000       13.022908         2    ;  uncertainty k = 0.059644
        15        18        14        16     4      180.000000       13.022908         2    ;  uncertainty k = 0.059644
        16        15        17        29     4      180.000000        3.498636         2    ;  uncertainty k = 0.120340
        16        17        29        15     4      180.000000        3.498636         2    ;  uncertainty k = 0.120340
        16        29        15        17     4      180.000000        3.498636         2    ;  uncertainty k = 0.120340
        17        12        16        30     4      180.000000        4.118156         2    ;  uncertainty k = 0.143895
        17        16        30        12     4      180.000000        4.118156         2    ;  uncertainty k = 0.143895
        17        30        12        16     4      180.000000        4.118156         2    ;  uncertainty k = 0.143895

[ pairs ]
;       ai        aj funct
         1         7     1
         1         8     1
         1        11     1
         1        20     1
         2         6     1
         2         9     1
         2        10     1
         2        12     1
         2        24     1
         2        25     1
         3         4     1
         3         5     1
         3        25     1
         4        11     1
         4        20     1
         4        23     1
         4        26     1
         5         7     1
         5         8     1
         5        13     1
         5        17     1
         5        23     1
         5        26     1
         6         8     1
         6        23     1
         7         9     1
         7        10     1
         7        24     1
         8        12     1
         8        25     1
         9        13     1
         9        17     1
        10        11     1
        10        26     1
        11        14     1
        11        16     1
        11        27     1
        11        30     1
        12        15     1
        12        26     1
        12        28     1
        12        29     1
        13        16     1
        13        18     1
        13        30     1
        14        17     1
        14        19     1
        14        21     1
        14        22     1
        14        29     1
        15        27     1
        15        30     1
        15        31     1
        15        32     1
        15        33     1
        15        34     1
        15        35     1
        15        36     1
        15        37     1
        16        19     1
        16        21     1
        16        22     1
        16        28     1
        17        18     1
        17        27     1
        18        28     1
        18        29     1
        19        32     1
        19        33     1
        19        34     1
        19        35     1
        19        36     1
        19        37     1
        20        24     1
        20        25     1
        21        31     1
        21        35     1
        21        36     1
        21        37     1
        22        31     1
        22        32     1
        22        33     1
        22        34     1
        23        24     1
        27        28     1
        29        30     1
