; ITP file created by ByteFF-joint-25, 2026-02-17 09:52:12.243183

[ atomtypes ]
;name           bonded.type        at.num        mass        charge   ptype           sigma         epsilon
 c0bf                                   6      0.0000       0.00000       A     3.31545e-01     4.12883e-01    ;  uncertainty sigma = 0.000011, epsilon = 0.001332
 c1bf                                   6      0.0000       0.00000       A     3.31530e-01     4.12588e-01    ;  uncertainty sigma = 0.000012, epsilon = 0.000756
 c2bf                                   6      0.0000       0.00000       A     3.31515e-01     4.13384e-01    ;  uncertainty sigma = 0.000004, epsilon = 0.000649
 c3bf                                   6      0.0000       0.00000       A     3.31549e-01     4.13998e-01    ;  uncertainty sigma = 0.000017, epsilon = 0.000756
 n4bf                                   7      0.0000       0.00000       A     3.38442e-01     3.94072e-01    ;  uncertainty sigma = 0.000023, epsilon = 0.001715
 c5bf                                   6      0.0000       0.00000       A     3.31520e-01     4.13285e-01    ;  uncertainty sigma = 0.000004, epsilon = 0.000722
 c6bf                                   6      0.0000       0.00000       A     3.31503e-01     4.13333e-01    ;  uncertainty sigma = 0.000006, epsilon = 0.000790
 c7bf                                   6      0.0000       0.00000       A     3.31537e-01     4.13477e-01    ;  uncertainty sigma = 0.000008, epsilon = 0.001163
 n8bf                                   7      0.0000       0.00000       A     3.26867e-01     4.92512e-01    ;  uncertainty sigma = 0.000088, epsilon = 0.003430
 o9bf                                   8      0.0000       0.00000       A     3.04814e-01     6.11899e-01    ;  uncertainty sigma = 0.000014, epsilon = 0.001624
 c10bf                                  6      0.0000       0.00000       A     3.31510e-01     4.13013e-01    ;  uncertainty sigma = 0.000015, epsilon = 0.001151
 c11bf                                  6      0.0000       0.00000       A     3.31501e-01     4.12880e-01    ;  uncertainty sigma = 0.000017, epsilon = 0.001089
 c12bf                                  6      0.0000       0.00000       A     3.31519e-01     4.13337e-01    ;  uncertainty sigma = 0.000004, epsilon = 0.000604
 c13bf                                  6      0.0000       0.00000       A     3.31522e-01     4.13196e-01    ;  uncertainty sigma = 0.000004, epsilon = 0.000447
 c14bf                                  6      0.0000       0.00000       A     3.31544e-01     4.13202e-01    ;  uncertainty sigma = 0.000004, epsilon = 0.001200
 c15bf                                  6      0.0000       0.00000       A     3.31522e-01     4.13196e-01    ;  uncertainty sigma = 0.000004, epsilon = 0.000447
 c16bf                                  6      0.0000       0.00000       A     3.31519e-01     4.13337e-01    ;  uncertainty sigma = 0.000004, epsilon = 0.000604
 c17bf                                  6      0.0000       0.00000       A     3.39755e-01     4.50272e-01    ;  uncertainty sigma = 0.000025, epsilon = 0.001042
 o18bf                                  8      0.0000       0.00000       A     3.24292e-01     3.89709e-01    ;  uncertainty sigma = 0.000031, epsilon = 0.001714
 c19bf                                  6      0.0000       0.00000       A     3.39763e-01     4.50805e-01    ;  uncertainty sigma = 0.000004, epsilon = 0.000470
 c20bf                                  6      0.0000       0.00000       A     3.39763e-01     4.50805e-01    ;  uncertainty sigma = 0.000004, epsilon = 0.000470
 f21bf                                  9      0.0000       0.00000       A     3.03383e-01     3.48288e-01    ;  uncertainty sigma = 0.000018, epsilon = 0.000839
 h22bf                                  1      0.0000       0.00000       A     2.62561e-01     6.69200e-02    ;  uncertainty sigma = 0.000009, epsilon = 0.000461
 h23bf                                  1      0.0000       0.00000       A     2.62580e-01     6.69437e-02    ;  uncertainty sigma = 0.000007, epsilon = 0.000518
 h24bf                                  1      0.0000       0.00000       A     2.62560e-01     6.69779e-02    ;  uncertainty sigma = 0.000012, epsilon = 0.000618
 h25bf                                  1      0.0000       0.00000       A     1.10651e-01     4.13762e-02    ;  uncertainty sigma = 0.000058, epsilon = 0.001253
 h26bf                                  1      0.0000       0.00000       A     2.62567e-01     6.70632e-02    ;  uncertainty sigma = 0.000011, epsilon = 0.000557
 h27bf                                  1      0.0000       0.00000       A     2.62556e-01     6.70460e-02    ;  uncertainty sigma = 0.000009, epsilon = 0.000514
 h28bf                                  1      0.0000       0.00000       A     2.62556e-01     6.70460e-02    ;  uncertainty sigma = 0.000009, epsilon = 0.000514
 h29bf                                  1      0.0000       0.00000       A     2.62567e-01     6.70633e-02    ;  uncertainty sigma = 0.000011, epsilon = 0.000557
 h30bf                                  1      0.0000       0.00000       A     5.37866e-02     1.91555e-02    ;  uncertainty sigma = 0.000161, epsilon = 0.001189
 h31bf                                  1      0.0000       0.00000       A     2.60031e-01     8.67183e-02    ;  uncertainty sigma = 0.000009, epsilon = 0.000447
 h32bf                                  1      0.0000       0.00000       A     2.60031e-01     8.67183e-02    ;  uncertainty sigma = 0.000009, epsilon = 0.000447
 h33bf                                  1      0.0000       0.00000       A     2.60031e-01     8.67183e-02    ;  uncertainty sigma = 0.000009, epsilon = 0.000447
 h34bf                                  1      0.0000       0.00000       A     2.60031e-01     8.67183e-02    ;  uncertainty sigma = 0.000009, epsilon = 0.000447
 h35bf                                  1      0.0000       0.00000       A     2.60031e-01     8.67183e-02    ;  uncertainty sigma = 0.000009, epsilon = 0.000447
 h36bf                                  1      0.0000       0.00000       A     2.60031e-01     8.67183e-02    ;  uncertainty sigma = 0.000009, epsilon = 0.000447

[ moleculetype ]
;name             nrexcl
 MOL                   3

[ atoms ]
;       nr            type      resi   res      atom      cgnr      charge          mass ; qtot
         1            c0bf         1   UNL        c0         1     0.13284       12.0110 ; qtot    0.133
         2            c1bf         1   UNL        c1         2     0.15822       12.0110 ; qtot    0.291
         3            c2bf         1   UNL        c2         3    -0.13662       12.0110 ; qtot    0.154
         4            c3bf         1   UNL        c3         4    -0.18207       12.0110 ; qtot   -0.028
         5            n4bf         1   UNL        n4         5    -0.60464       14.0070 ; qtot   -0.632
         6            c5bf         1   UNL        c5         6    -0.12340       12.0110 ; qtot   -0.756
         7            c6bf         1   UNL        c6         7    -0.07632       12.0110 ; qtot   -0.832
         8            c7bf         1   UNL        c7         8     0.71669       12.0110 ; qtot   -0.115
         9            n8bf         1   UNL        n8         9    -0.50567       14.0070 ; qtot   -0.621
        10            o9bf         1   UNL        o9        10    -0.60184       15.9990 ; qtot   -1.223
        11           c10bf         1   UNL       c10        11     0.56899       12.0110 ; qtot   -0.654
        12           c11bf         1   UNL       c11        12    -0.15331       12.0110 ; qtot   -0.807
        13           c12bf         1   UNL       c12        13    -0.08668       12.0110 ; qtot   -0.894
        14           c13bf         1   UNL       c13        14    -0.12388       12.0110 ; qtot   -1.018
        15           c14bf         1   UNL       c14        15    -0.08876       12.0110 ; qtot   -1.106
        16           c15bf         1   UNL       c15        16    -0.12388       12.0110 ; qtot   -1.230
        17           c16bf         1   UNL       c16        17    -0.08668       12.0110 ; qtot   -1.317
        18           c17bf         1   UNL       c17        18     0.20190       12.0110 ; qtot   -1.115
        19           o18bf         1   UNL       o18        19    -0.60342       15.9990 ; qtot   -1.719
        20           c19bf         1   UNL       c19        20    -0.10277       12.0110 ; qtot   -1.821
        21           c20bf         1   UNL       c20        21    -0.10277       12.0110 ; qtot   -1.924
        22           f21bf         1   UNL       f21        22    -0.12077       18.9980 ; qtot   -2.045
        23           h22bf         1   UNL       h22        23     0.15503        1.0080 ; qtot   -1.890
        24           h23bf         1   UNL       h23        24     0.14564        1.0080 ; qtot   -1.744
        25           h24bf         1   UNL       h24        25     0.16109        1.0080 ; qtot   -1.583
        26           h25bf         1   UNL       h25        26     0.33625        1.0080 ; qtot   -1.247
        27           h26bf         1   UNL       h26        27     0.14623        1.0080 ; qtot   -1.101
        28           h27bf         1   UNL       h27        28     0.14030        1.0080 ; qtot   -0.960
        29           h28bf         1   UNL       h28        29     0.14030        1.0080 ; qtot   -0.820
        30           h29bf         1   UNL       h29        30     0.14623        1.0080 ; qtot   -0.674
        31           h30bf         1   UNL       h30        31     0.40249        1.0080 ; qtot   -0.271
        32           h31bf         1   UNL       h31        32     0.04522        1.0080 ; qtot   -0.226
        33           h32bf         1   UNL       h32        33     0.04522        1.0080 ; qtot   -0.181
        34           h33bf         1   UNL       h33        34     0.04522        1.0080 ; qtot   -0.136
        35           h34bf         1   UNL       h34        35     0.04522        1.0080 ; qtot   -0.090
        36           h35bf         1   UNL       h35        36     0.04522        1.0080 ; qtot   -0.045
        37           h36bf         1   UNL       h36        37     0.04518        1.0080 ; qtot    0.000

[ bonds ]
;       ai        aj funct               r               k
         1         2     1        0.140600   335878.005762    ;  uncertainty r = 0.000075, k = 18.675576
         1         3     1        0.138091   352370.100830    ;  uncertainty r = 0.000102, k = 5.097074
         1        22     1        0.134689   337337.272803    ;  uncertainty r = 0.000092, k = 4.585543
         2         4     1        0.141818   375755.555518    ;  uncertainty r = 0.000052, k = 12.565573
         2         5     1        0.138093   288884.412793    ;  uncertainty r = 0.000036, k = 23.036232
         3         6     1        0.140544   363618.329248    ;  uncertainty r = 0.000099, k = 6.513935
         3        23     1        0.108758   336414.208447    ;  uncertainty r = 0.000016, k = 1.415423
         4         7     1        0.139944   364049.267969    ;  uncertainty r = 0.000087, k = 8.747091
         4         8     1        0.146629   266622.948438    ;  uncertainty r = 0.000049, k = 15.893401
         5        11     1        0.129829   464193.655273    ;  uncertainty r = 0.000067, k = 4.891522
         6         7     1        0.138847   365936.153906    ;  uncertainty r = 0.000043, k = 5.029934
         6        24     1        0.108688   333355.909766    ;  uncertainty r = 0.000017, k = 2.174187
         7        25     1        0.108543   330496.775000    ;  uncertainty r = 0.000011, k = 1.225376
         8         9     1        0.140256   443894.462402    ;  uncertainty r = 0.000070, k = 14.868641
         8        10     1        0.123407   856533.443750    ;  uncertainty r = 0.000107, k = 13.325743
         9        11     1        0.139054   294994.064063    ;  uncertainty r = 0.000114, k = 23.492881
         9        26     1        0.102058   454589.659180    ;  uncertainty r = 0.000027, k = 4.102090
        11        12     1        0.147234   266184.195361    ;  uncertainty r = 0.000089, k = 12.194494
        12        13     1        0.139881   350469.118408    ;  uncertainty r = 0.000059, k = 3.608169
        12        17     1        0.139881   350469.118408    ;  uncertainty r = 0.000059, k = 3.608169
        13        14     1        0.139215   359042.692139    ;  uncertainty r = 0.000045, k = 3.009361
        13        27     1        0.108751   333157.971631    ;  uncertainty r = 0.000045, k = 1.128363
        14        15     1        0.139630   349504.479639    ;  uncertainty r = 0.000022, k = 3.365375
        14        28     1        0.108801   333642.308447    ;  uncertainty r = 0.000019, k = 1.144891
        15        16     1        0.139630   349504.479639    ;  uncertainty r = 0.000022, k = 3.365375
        15        18     1        0.152147   213548.803735    ;  uncertainty r = 0.000097, k = 3.797993
        16        17     1        0.139215   359042.692139    ;  uncertainty r = 0.000045, k = 3.009361
        16        29     1        0.108801   333642.308447    ;  uncertainty r = 0.000019, k = 1.144913
        17        30     1        0.108751   333157.997168    ;  uncertainty r = 0.000045, k = 1.128360
        18        19     1        0.144782   263188.513672    ;  uncertainty r = 0.000100, k = 11.942343
        18        20     1        0.153487   207492.767627    ;  uncertainty r = 0.000036, k = 5.323961
        18        21     1        0.153487   207492.767627    ;  uncertainty r = 0.000036, k = 5.323961
        19        31     1        0.097230   467409.339160    ;  uncertainty r = 0.000030, k = 3.616173
        20        32     1        0.109572   309908.578662    ;  uncertainty r = 0.000020, k = 1.196954
        20        33     1        0.109572   309908.578662    ;  uncertainty r = 0.000020, k = 1.196954
        20        34     1        0.109572   309908.578662    ;  uncertainty r = 0.000020, k = 1.196954
        21        35     1        0.109572   309908.578662    ;  uncertainty r = 0.000020, k = 1.196957
        21        36     1        0.109572   309908.578662    ;  uncertainty r = 0.000020, k = 1.196957
        21        37     1        0.109572   309908.578662    ;  uncertainty r = 0.000020, k = 1.196957

[ angles ]
;       ai        aj        ak funct           theta             cth
         1         2         4     1      117.815575      375.984266    ;  uncertainty theta = 0.006590, k = 0.174118
         1         2         5     1      117.551331      449.108629    ;  uncertainty theta = 0.007520, k = 0.214414
         1         3         6     1      119.838547      499.433940    ;  uncertainty theta = 0.003295, k = 0.092252
         1         3        23     1      119.283615      281.515827    ;  uncertainty theta = 0.003737, k = 0.096616
         2         1         3     1      122.942284      409.475227    ;  uncertainty theta = 0.003277, k = 0.321482
         2         1        22     1      116.688622      450.085871    ;  uncertainty theta = 0.003861, k = 0.305901
         2         4         7     1      123.096924      441.133837    ;  uncertainty theta = 0.002388, k = 0.173192
         2         4         8     1      116.357033      478.619505    ;  uncertainty theta = 0.005643, k = 0.219074
         2         5        11     1      115.312027      416.980711    ;  uncertainty theta = 0.004998, k = 0.430127
         3         1        22     1      119.579491      523.555113    ;  uncertainty theta = 0.003048, k = 0.237124
         3         6         7     1      121.233994      531.257169    ;  uncertainty theta = 0.002463, k = 0.045612
         3         6        24     1      119.841049      282.729478    ;  uncertainty theta = 0.001512, k = 0.037763
         4         2         5     1      124.624916      557.509317    ;  uncertainty theta = 0.005408, k = 0.087487
         4         7         6     1      119.823135      509.349904    ;  uncertainty theta = 0.000482, k = 0.126276
         4         7        25     1      119.157913      249.125180    ;  uncertainty theta = 0.002492, k = 0.174811
         4         8         9     1      109.161209      387.103698    ;  uncertainty theta = 0.007076, k = 0.244983
         4         8        10     1      127.982498      513.560016    ;  uncertainty theta = 0.002877, k = 0.161870
         5        11         9     1      123.779724      676.575196    ;  uncertainty theta = 0.005829, k = 0.165399
         5        11        12     1      122.641235      443.873458    ;  uncertainty theta = 0.003772, k = 0.202728
         6         3        23     1      121.437881      280.533159    ;  uncertainty theta = 0.001908, k = 0.022745
         6         7        25     1      121.249680      278.870693    ;  uncertainty theta = 0.002217, k = 0.053668
         7         4         8     1      118.584610      401.289626    ;  uncertainty theta = 0.002258, k = 0.127081
         7         6        24     1      120.113037      281.062000    ;  uncertainty theta = 0.002077, k = 0.052193
         8         9        11     1      120.928062      496.681200    ;  uncertainty theta = 0.003580, k = 0.163883
         8         9        26     1      115.359238      353.000899    ;  uncertainty theta = 0.007161, k = 0.129709
         9         8        10     1      124.944016      818.223987    ;  uncertainty theta = 0.003092, k = 0.071821
         9        11        12     1      116.766891      516.836459    ;  uncertainty theta = 0.004668, k = 0.265713
        11         9        26     1      116.773087      330.788817    ;  uncertainty theta = 0.006546, k = 0.196820
        11        12        13     1      117.746155      401.386731    ;  uncertainty theta = 0.003212, k = 0.117206
        11        12        17     1      117.746155      401.386731    ;  uncertainty theta = 0.003212, k = 0.117206
        12        13        14     1      121.936867      513.032419    ;  uncertainty theta = 0.001595, k = 0.037410
        12        13        27     1      118.373268      267.332069    ;  uncertainty theta = 0.002929, k = 0.046096
        12        17        16     1      121.936867      513.032419    ;  uncertainty theta = 0.001595, k = 0.037410
        12        17        30     1      118.373268      267.332037    ;  uncertainty theta = 0.002929, k = 0.046096
        13        12        17     1      120.778748      421.634435    ;  uncertainty theta = 0.002896, k = 0.258077
        13        14        15     1      121.733681      516.745292    ;  uncertainty theta = 0.002295, k = 0.052086
        13        14        28     1      119.605568      285.026126    ;  uncertainty theta = 0.002260, k = 0.028336
        14        13        27     1      120.211563      284.749144    ;  uncertainty theta = 0.002936, k = 0.063323
        14        15        16     1      119.700928      459.849474    ;  uncertainty theta = 0.002192, k = 0.105996
        14        15        18     1      119.835281      368.426622    ;  uncertainty theta = 0.004163, k = 0.173853
        15        14        28     1      118.678185      262.012993    ;  uncertainty theta = 0.001113, k = 0.066500
        15        16        17     1      121.733681      516.745292    ;  uncertainty theta = 0.002295, k = 0.052086
        15        16        29     1      118.678185      262.012993    ;  uncertainty theta = 0.001113, k = 0.066500
        15        18        19     1      109.685776      703.897222    ;  uncertainty theta = 0.001965, k = 0.142449
        15        18        20     1      109.715744      550.550008    ;  uncertainty theta = 0.001726, k = 0.033765
        15        18        21     1      109.715744      550.550008    ;  uncertainty theta = 0.001726, k = 0.033765
        16        15        18     1      119.835281      368.426622    ;  uncertainty theta = 0.004163, k = 0.173853
        16        17        30     1      120.211563      284.749144    ;  uncertainty theta = 0.002936, k = 0.063322
        17        16        29     1      119.605568      285.026158    ;  uncertainty theta = 0.002260, k = 0.028336
        18        19        31     1      107.710533      483.511457    ;  uncertainty theta = 0.002078, k = 0.098569
        18        20        32     1      107.275742      375.507520    ;  uncertainty theta = 0.000927, k = 0.039228
        18        20        33     1      107.275742      375.507520    ;  uncertainty theta = 0.000927, k = 0.039228
        18        20        34     1      107.275742      375.507520    ;  uncertainty theta = 0.000927, k = 0.039228
        18        21        35     1      107.275742      375.507520    ;  uncertainty theta = 0.000927, k = 0.039228
        18        21        36     1      107.275742      375.507520    ;  uncertainty theta = 0.000927, k = 0.039228
        18        21        37     1      107.275742      375.507520    ;  uncertainty theta = 0.000927, k = 0.039228
        19        18        20     1      108.829308      692.110441    ;  uncertainty theta = 0.002464, k = 0.098428
        19        18        21     1      108.829308      692.110441    ;  uncertainty theta = 0.002464, k = 0.098428
        20        18        21     1      110.087318      564.121450    ;  uncertainty theta = 0.001573, k = 0.073265
        32        20        33     1      105.686974      317.730768    ;  uncertainty theta = 0.001105, k = 0.008156
        32        20        34     1      105.686974      317.730768    ;  uncertainty theta = 0.001105, k = 0.008156
        33        20        34     1      105.686974      317.730768    ;  uncertainty theta = 0.001105, k = 0.008156
        35        21        36     1      105.686974      317.730768    ;  uncertainty theta = 0.001105, k = 0.008156
        35        21        37     1      105.686974      317.730768    ;  uncertainty theta = 0.001105, k = 0.008156
        36        21        37     1      105.686974      317.730768    ;  uncertainty theta = 0.001105, k = 0.008156

[ dihedrals ] ; propers for gromacs 4.5 or higher, use funct 9
;       ai        aj        ak        al funct           phase               k        pn
         1         2         4         7     9        0.000000       -0.096084         1    ;  uncertainty k = 0.268861
         1         2         4         7     9      180.000000        6.315732         2    ;  uncertainty k = 0.577309
         1         2         4         7     9        0.000000        0.474218         3    ;  uncertainty k = 0.292882
         1         2         4         7     9      180.000000        1.483431         4    ;  uncertainty k = 0.181160
         1         2         4         8     9        0.000000        0.220314         1    ;  uncertainty k = 0.829026
         1         2         4         8     9      180.000000        5.927095         2    ;  uncertainty k = 0.921863
         1         2         4         8     9        0.000000        1.107458         3    ;  uncertainty k = 0.295578
         1         2         4         8     9      180.000000        1.513548         4    ;  uncertainty k = 0.214538
         1         2         5        11     9        0.000000        2.257386         1    ;  uncertainty k = 2.588164
         1         2         5        11     9      180.000000        4.780110         2    ;  uncertainty k = 1.757333
         1         2         5        11     9        0.000000        2.241771         3    ;  uncertainty k = 0.522425
         1         2         5        11     9      180.000000        0.244348         4    ;  uncertainty k = 0.438671
         1         3         6         7     9        0.000000       -0.173496         1    ;  uncertainty k = 0.193538
         1         3         6         7     9      180.000000       12.285657         2    ;  uncertainty k = 0.357988
         1         3         6         7     9        0.000000       -0.853536         3    ;  uncertainty k = 0.519556
         1         3         6         7     9      180.000000        0.814954         4    ;  uncertainty k = 0.174980
         1         3         6        24     9        0.000000       -0.015279         1    ;  uncertainty k = 0.269170
         1         3         6        24     9      180.000000        6.937681         2    ;  uncertainty k = 0.558104
         1         3         6        24     9        0.000000        1.385040         3    ;  uncertainty k = 0.322646
         1         3         6        24     9      180.000000        1.588291         4    ;  uncertainty k = 0.094283
         2         1         3         6     9        0.000000        0.212475         1    ;  uncertainty k = 0.269829
         2         1         3         6     9      180.000000       10.181254         2    ;  uncertainty k = 0.281368
         2         1         3         6     9        0.000000        0.413973         3    ;  uncertainty k = 0.441339
         2         1         3         6     9      180.000000        1.376391         4    ;  uncertainty k = 0.257936
         2         1         3        23     9        0.000000        0.149906         1    ;  uncertainty k = 0.596053
         2         1         3        23     9      180.000000        7.193094         2    ;  uncertainty k = 0.638754
         2         1         3        23     9        0.000000        1.397648         3    ;  uncertainty k = 0.351389
         2         1         3        23     9      180.000000        1.514817         4    ;  uncertainty k = 0.164666
         2         4         7         6     9        0.000000       -0.043252         1    ;  uncertainty k = 0.181000
         2         4         7         6     9      180.000000       11.869643         2    ;  uncertainty k = 0.315118
         2         4         7         6     9        0.000000       -0.537721         3    ;  uncertainty k = 0.467049
         2         4         7         6     9      180.000000        0.947708         4    ;  uncertainty k = 0.264931
         2         4         7        25     9        0.000000        0.017896         1    ;  uncertainty k = 0.589453
         2         4         7        25     9      180.000000        7.367822         2    ;  uncertainty k = 0.785310
         2         4         7        25     9        0.000000        1.260657         3    ;  uncertainty k = 0.297774
         2         4         7        25     9      180.000000        1.390143         4    ;  uncertainty k = 0.099017
         2         4         8         9     9        0.000000       -1.387147         1    ;  uncertainty k = 1.098797
         2         4         8         9     9      180.000000        2.447288         2    ;  uncertainty k = 1.007724
         2         4         8         9     9        0.000000       -0.287287         3    ;  uncertainty k = 0.573228
         2         4         8         9     9      180.000000        0.557826         4    ;  uncertainty k = 0.282602
         2         4         8        10     9        0.000000       -2.318275         1    ;  uncertainty k = 1.319144
         2         4         8        10     9      180.000000        5.381152         2    ;  uncertainty k = 0.687222
         2         4         8        10     9        0.000000        0.279640         3    ;  uncertainty k = 0.237097
         2         4         8        10     9      180.000000       -0.136279         4    ;  uncertainty k = 0.207974
         2         5        11         9     9        0.000000       -0.731124         1    ;  uncertainty k = 0.352971
         2         5        11         9     9      180.000000       23.717261         2    ;  uncertainty k = 0.165956
         2         5        11         9     9        0.000000        1.842261         3    ;  uncertainty k = 0.204182
         2         5        11         9     9      180.000000        1.507011         4    ;  uncertainty k = 0.488416
         2         5        11        12     9        0.000000       -0.357097         1    ;  uncertainty k = 0.496296
         2         5        11        12     9      180.000000       19.004960         2    ;  uncertainty k = 0.469382
         2         5        11        12     9        0.000000        2.792565         3    ;  uncertainty k = 0.435150
         2         5        11        12     9      180.000000        1.382974         4    ;  uncertainty k = 0.422238
         3         1         2         4     9        0.000000       -0.427237         1    ;  uncertainty k = 0.903431
         3         1         2         4     9      180.000000        4.626629         2    ;  uncertainty k = 1.252171
         3         1         2         4     9        0.000000        0.155031         3    ;  uncertainty k = 0.137177
         3         1         2         4     9      180.000000        1.037692         4    ;  uncertainty k = 0.327407
         3         1         2         5     9        0.000000        0.031247         1    ;  uncertainty k = 0.309789
         3         1         2         5     9      180.000000        6.620631         2    ;  uncertainty k = 0.422903
         3         1         2         5     9        0.000000        0.895952         3    ;  uncertainty k = 0.089297
         3         1         2         5     9      180.000000        1.440143         4    ;  uncertainty k = 0.271183
         3         6         7         4     9        0.000000       -0.144734         1    ;  uncertainty k = 0.228324
         3         6         7         4     9      180.000000       14.133148         2    ;  uncertainty k = 0.293706
         3         6         7         4     9        0.000000       -0.580493         3    ;  uncertainty k = 0.532356
         3         6         7         4     9      180.000000        0.863726         4    ;  uncertainty k = 0.329282
         3         6         7        25     9        0.000000        0.142697         1    ;  uncertainty k = 0.059843
         3         6         7        25     9      180.000000        8.525322         2    ;  uncertainty k = 0.416542
         3         6         7        25     9        0.000000        1.395050         3    ;  uncertainty k = 0.312407
         3         6         7        25     9      180.000000        1.831580         4    ;  uncertainty k = 0.180701
         4         2         1        22     9        0.000000       -0.022978         1    ;  uncertainty k = 0.882394
         4         2         1        22     9      180.000000        7.571635         2    ;  uncertainty k = 0.426107
         4         2         1        22     9        0.000000        1.406271         3    ;  uncertainty k = 0.277261
         4         2         1        22     9      180.000000        1.438543         4    ;  uncertainty k = 0.093284
         4         2         5        11     9        0.000000        1.463932         1    ;  uncertainty k = 1.748451
         4         2         5        11     9      180.000000        3.598801         2    ;  uncertainty k = 1.712812
         4         2         5        11     9        0.000000        1.561259         3    ;  uncertainty k = 0.573156
         4         2         5        11     9      180.000000        0.360140         4    ;  uncertainty k = 0.530132
         4         7         6        24     9        0.000000        0.166122         1    ;  uncertainty k = 0.245830
         4         7         6        24     9      180.000000        8.965878         2    ;  uncertainty k = 0.232285
         4         7         6        24     9        0.000000        1.502321         3    ;  uncertainty k = 0.271052
         4         7         6        24     9      180.000000        1.774774         4    ;  uncertainty k = 0.119801
         4         8         9        11     9        0.000000        0.145133         1    ;  uncertainty k = 1.629739
         4         8         9        11     9      180.000000        3.808180         2    ;  uncertainty k = 1.183169
         4         8         9        11     9        0.000000        0.627579         3    ;  uncertainty k = 0.191503
         4         8         9        11     9      180.000000        0.491411         4    ;  uncertainty k = 0.354225
         4         8         9        26     9        0.000000        2.543287         1    ;  uncertainty k = 2.392246
         4         8         9        26     9      180.000000        5.208513         2    ;  uncertainty k = 0.905152
         4         8         9        26     9        0.000000        1.792888         3    ;  uncertainty k = 0.114767
         4         8         9        26     9      180.000000        0.001685         4    ;  uncertainty k = 0.084880
         5         2         1        22     9        0.000000        0.068196         1    ;  uncertainty k = 0.579432
         5         2         1        22     9      180.000000       10.979832         2    ;  uncertainty k = 0.370162
         5         2         1        22     9        0.000000        1.180327         3    ;  uncertainty k = 0.609388
         5         2         1        22     9      180.000000        1.239272         4    ;  uncertainty k = 0.333054
         5         2         4         7     9        0.000000        0.068019         1    ;  uncertainty k = 0.402801
         5         2         4         7     9      180.000000        7.826348         2    ;  uncertainty k = 0.459644
         5         2         4         7     9        0.000000        0.815273         3    ;  uncertainty k = 0.285350
         5         2         4         7     9      180.000000        1.550002         4    ;  uncertainty k = 0.162223
         5         2         4         8     9        0.000000       -0.408084         1    ;  uncertainty k = 0.685962
         5         2         4         8     9      180.000000        6.950983         2    ;  uncertainty k = 0.909052
         5         2         4         8     9        0.000000        0.984479         3    ;  uncertainty k = 0.377828
         5         2         4         8     9      180.000000        1.588149         4    ;  uncertainty k = 0.234587
         5        11         9         8     9        0.000000        0.072866         1    ;  uncertainty k = 0.872355
         5        11         9         8     9      180.000000        7.240489         2    ;  uncertainty k = 0.729614
         5        11         9         8     9        0.000000        0.616988         3    ;  uncertainty k = 0.685109
         5        11         9         8     9      180.000000        0.378439         4    ;  uncertainty k = 0.201517
         5        11         9        26     9        0.000000        5.753506         1    ;  uncertainty k = 1.631050
         5        11         9        26     9      180.000000       11.092402         2    ;  uncertainty k = 0.684858
         5        11         9        26     9        0.000000        1.234597         3    ;  uncertainty k = 0.617876
         5        11         9        26     9      180.000000       -0.243901         4    ;  uncertainty k = 0.151536
         5        11        12        13     9        0.000000        0.858872         1    ;  uncertainty k = 0.753342
         5        11        12        13     9      180.000000        4.090384         2    ;  uncertainty k = 0.328608
         5        11        12        13     9        0.000000        0.569716         3    ;  uncertainty k = 0.178826
         5        11        12        13     9      180.000000       -0.129833         4    ;  uncertainty k = 0.166819
         5        11        12        17     9        0.000000        0.858872         1    ;  uncertainty k = 0.753342
         5        11        12        17     9      180.000000        4.090384         2    ;  uncertainty k = 0.328608
         5        11        12        17     9        0.000000        0.569716         3    ;  uncertainty k = 0.178826
         5        11        12        17     9      180.000000       -0.129833         4    ;  uncertainty k = 0.166819
         6         3         1        22     9        0.000000        0.230664         1    ;  uncertainty k = 0.448649
         6         3         1        22     9      180.000000       14.801952         2    ;  uncertainty k = 0.360236
         6         3         1        22     9        0.000000        1.413124         3    ;  uncertainty k = 0.305900
         6         3         1        22     9      180.000000        1.391464         4    ;  uncertainty k = 0.355544
         6         7         4         8     9        0.000000       -0.037315         1    ;  uncertainty k = 0.340092
         6         7         4         8     9      180.000000        9.296665         2    ;  uncertainty k = 0.808846
         6         7         4         8     9        0.000000        1.193806         3    ;  uncertainty k = 0.180653
         6         7         4         8     9      180.000000        1.830390         4    ;  uncertainty k = 0.320472
         7         4         8         9     9        0.000000       -0.036844         1    ;  uncertainty k = 1.009195
         7         4         8         9     9      180.000000        2.836747         2    ;  uncertainty k = 0.578667
         7         4         8         9     9        0.000000        0.625775         3    ;  uncertainty k = 0.381740
         7         4         8         9     9      180.000000        0.539307         4    ;  uncertainty k = 0.231951
         7         4         8        10     9        0.000000       -1.875157         1    ;  uncertainty k = 0.554155
         7         4         8        10     9      180.000000        5.136429         2    ;  uncertainty k = 0.645015
         7         4         8        10     9        0.000000        0.576505         3    ;  uncertainty k = 0.284031
         7         4         8        10     9      180.000000       -0.165956         4    ;  uncertainty k = 0.099734
         7         6         3        23     9        0.000000        0.136832         1    ;  uncertainty k = 0.470437
         7         6         3        23     9      180.000000        6.860077         2    ;  uncertainty k = 0.385148
         7         6         3        23     9        0.000000        1.486572         3    ;  uncertainty k = 0.260513
         7         6         3        23     9      180.000000        1.628217         4    ;  uncertainty k = 0.118022
         8         4         7        25     9        0.000000       -0.402818         1    ;  uncertainty k = 0.664033
         8         4         7        25     9      180.000000        7.922923         2    ;  uncertainty k = 0.275549
         8         4         7        25     9        0.000000        1.012807         3    ;  uncertainty k = 0.246560
         8         4         7        25     9      180.000000        1.193560         4    ;  uncertainty k = 0.128038
         8         9        11        12     9        0.000000        1.190037         1    ;  uncertainty k = 0.777406
         8         9        11        12     9      180.000000        5.508499         2    ;  uncertainty k = 0.771086
         8         9        11        12     9        0.000000        0.539172         3    ;  uncertainty k = 0.341391
         8         9        11        12     9      180.000000       -0.096054         4    ;  uncertainty k = 0.325186
         9        11        12        13     9        0.000000       -0.042986         1    ;  uncertainty k = 0.378482
         9        11        12        13     9      180.000000        4.171276         2    ;  uncertainty k = 0.403874
         9        11        12        13     9        0.000000        0.559380         3    ;  uncertainty k = 0.122566
         9        11        12        13     9      180.000000       -0.120884         4    ;  uncertainty k = 0.033202
         9        11        12        17     9        0.000000       -0.042986         1    ;  uncertainty k = 0.378482
         9        11        12        17     9      180.000000        4.171276         2    ;  uncertainty k = 0.403874
         9        11        12        17     9        0.000000        0.559380         3    ;  uncertainty k = 0.122566
         9        11        12        17     9      180.000000       -0.120884         4    ;  uncertainty k = 0.033202
        10         8         9        11     9        0.000000        0.175436         1    ;  uncertainty k = 1.314445
        10         8         9        11     9      180.000000       11.113772         2    ;  uncertainty k = 0.483929
        10         8         9        11     9        0.000000        1.319417         3    ;  uncertainty k = 0.376258
        10         8         9        11     9      180.000000       -0.494325         4    ;  uncertainty k = 0.417803
        10         8         9        26     9        0.000000        1.556871         1    ;  uncertainty k = 2.538392
        10         8         9        26     9      180.000000        9.209475         2    ;  uncertainty k = 0.595839
        10         8         9        26     9        0.000000        0.736188         3    ;  uncertainty k = 0.511429
        10         8         9        26     9      180.000000       -0.113168         4    ;  uncertainty k = 0.056960
        11        12        13        14     9        0.000000        0.090603         1    ;  uncertainty k = 0.155366
        11        12        13        14     9      180.000000        9.101391         2    ;  uncertainty k = 0.627679
        11        12        13        14     9        0.000000        1.339150         3    ;  uncertainty k = 0.268922
        11        12        13        14     9      180.000000        1.694430         4    ;  uncertainty k = 0.194965
        11        12        13        27     9        0.000000       -0.292666         1    ;  uncertainty k = 0.201631
        11        12        13        27     9      180.000000        7.231707         2    ;  uncertainty k = 0.259579
        11        12        13        27     9        0.000000        0.705224         3    ;  uncertainty k = 0.164682
        11        12        13        27     9      180.000000        1.044690         4    ;  uncertainty k = 0.163140
        11        12        17        16     9        0.000000        0.090603         1    ;  uncertainty k = 0.155366
        11        12        17        16     9      180.000000        9.101391         2    ;  uncertainty k = 0.627679
        11        12        17        16     9        0.000000        1.339150         3    ;  uncertainty k = 0.268922
        11        12        17        16     9      180.000000        1.694430         4    ;  uncertainty k = 0.194965
        11        12        17        30     9        0.000000       -0.292665         1    ;  uncertainty k = 0.201631
        11        12        17        30     9      180.000000        7.231703         2    ;  uncertainty k = 0.259578
        11        12        17        30     9        0.000000        0.705224         3    ;  uncertainty k = 0.164683
        11        12        17        30     9      180.000000        1.044690         4    ;  uncertainty k = 0.163140
        12        11         9        26     9        0.000000        0.936994         1    ;  uncertainty k = 0.173540
        12        11         9        26     9      180.000000        4.752471         2    ;  uncertainty k = 0.886195
        12        11         9        26     9        0.000000        1.369890         3    ;  uncertainty k = 0.266561
        12        11         9        26     9      180.000000       -0.078354         4    ;  uncertainty k = 0.257729
        12        13        14        15     9        0.000000       -0.133648         1    ;  uncertainty k = 0.232408
        12        13        14        15     9      180.000000       12.534119         2    ;  uncertainty k = 0.264132
        12        13        14        15     9        0.000000       -0.659583         3    ;  uncertainty k = 0.473408
        12        13        14        15     9      180.000000        0.896721         4    ;  uncertainty k = 0.301178
        12        13        14        28     9        0.000000        0.104452         1    ;  uncertainty k = 0.123159
        12        13        14        28     9      180.000000        8.153177         2    ;  uncertainty k = 0.285565
        12        13        14        28     9        0.000000        1.386423         3    ;  uncertainty k = 0.199866
        12        13        14        28     9      180.000000        1.841381         4    ;  uncertainty k = 0.178837
        12        17        16        15     9        0.000000       -0.133648         1    ;  uncertainty k = 0.232408
        12        17        16        15     9      180.000000       12.534119         2    ;  uncertainty k = 0.264132
        12        17        16        15     9        0.000000       -0.659583         3    ;  uncertainty k = 0.473408
        12        17        16        15     9      180.000000        0.896721         4    ;  uncertainty k = 0.301178
        12        17        16        29     9        0.000000        0.104451         1    ;  uncertainty k = 0.123158
        12        17        16        29     9      180.000000        8.153176         2    ;  uncertainty k = 0.285563
        12        17        16        29     9        0.000000        1.386423         3    ;  uncertainty k = 0.199867
        12        17        16        29     9      180.000000        1.841381         4    ;  uncertainty k = 0.178837
        13        12        17        16     9        0.000000        0.055276         1    ;  uncertainty k = 0.149139
        13        12        17        16     9      180.000000       10.940930         2    ;  uncertainty k = 0.285081
        13        12        17        16     9        0.000000       -0.595107         3    ;  uncertainty k = 0.165960
        13        12        17        16     9      180.000000        0.949928         4    ;  uncertainty k = 0.261174
        13        12        17        30     9        0.000000        0.065424         1    ;  uncertainty k = 0.154406
        13        12        17        30     9      180.000000        6.880289         2    ;  uncertainty k = 0.569493
        13        12        17        30     9        0.000000        1.307045         3    ;  uncertainty k = 0.238387
        13        12        17        30     9      180.000000        1.580984         4    ;  uncertainty k = 0.264455
        13        14        15        16     9        0.000000       -0.145838         1    ;  uncertainty k = 0.090645
        13        14        15        16     9      180.000000       11.057201         2    ;  uncertainty k = 0.371394
        13        14        15        16     9        0.000000       -0.343350         3    ;  uncertainty k = 0.267016
        13        14        15        16     9      180.000000        0.889288         4    ;  uncertainty k = 0.302073
        13        14        15        18     9        0.000000        0.213012         1    ;  uncertainty k = 0.165870
        13        14        15        18     9      180.000000        8.409903         2    ;  uncertainty k = 0.512358
        13        14        15        18     9        0.000000        1.391291         3    ;  uncertainty k = 0.345930
        13        14        15        18     9      180.000000        1.926967         4    ;  uncertainty k = 0.263557
        14        13        12        17     9        0.000000        0.055276         1    ;  uncertainty k = 0.149139
        14        13        12        17     9      180.000000       10.940930         2    ;  uncertainty k = 0.285081
        14        13        12        17     9        0.000000       -0.595107         3    ;  uncertainty k = 0.165960
        14        13        12        17     9      180.000000        0.949928         4    ;  uncertainty k = 0.261174
        14        15        16        17     9        0.000000       -0.145838         1    ;  uncertainty k = 0.090645
        14        15        16        17     9      180.000000       11.057201         2    ;  uncertainty k = 0.371394
        14        15        16        17     9        0.000000       -0.343350         3    ;  uncertainty k = 0.267016
        14        15        16        17     9      180.000000        0.889288         4    ;  uncertainty k = 0.302073
        14        15        16        29     9        0.000000        0.099411         1    ;  uncertainty k = 0.169149
        14        15        16        29     9      180.000000        7.277332         2    ;  uncertainty k = 0.487638
        14        15        16        29     9        0.000000        1.399667         3    ;  uncertainty k = 0.329314
        14        15        16        29     9      180.000000        1.678522         4    ;  uncertainty k = 0.191976
        14        15        18        19     9        0.000000       -1.219996         1    ;  uncertainty k = 0.274824
        14        15        18        19     9      180.000000        3.868486         2    ;  uncertainty k = 0.116802
        14        15        18        19     9        0.000000        0.651180         3    ;  uncertainty k = 0.135170
        14        15        18        19     9      180.000000        0.512033         4    ;  uncertainty k = 0.043839
        14        15        18        20     9        0.000000       -0.409205         1    ;  uncertainty k = 0.095576
        14        15        18        20     9      180.000000        2.717206         2    ;  uncertainty k = 0.115248
        14        15        18        20     9        0.000000        0.444819         3    ;  uncertainty k = 0.108147
        14        15        18        20     9      180.000000        0.287592         4    ;  uncertainty k = 0.049350
        14        15        18        21     9        0.000000       -0.409205         1    ;  uncertainty k = 0.095576
        14        15        18        21     9      180.000000        2.717206         2    ;  uncertainty k = 0.115248
        14        15        18        21     9        0.000000        0.444819         3    ;  uncertainty k = 0.108147
        14        15        18        21     9      180.000000        0.287592         4    ;  uncertainty k = 0.049350
        15        14        13        27     9        0.000000       -0.030725         1    ;  uncertainty k = 0.185677
        15        14        13        27     9      180.000000        7.531826         2    ;  uncertainty k = 0.200235
        15        14        13        27     9        0.000000        1.277586         3    ;  uncertainty k = 0.254720
        15        14        13        27     9      180.000000        1.862935         4    ;  uncertainty k = 0.207129
        15        16        17        30     9        0.000000       -0.030722         1    ;  uncertainty k = 0.185677
        15        16        17        30     9      180.000000        7.531827         2    ;  uncertainty k = 0.200235
        15        16        17        30     9        0.000000        1.277587         3    ;  uncertainty k = 0.254720
        15        16        17        30     9      180.000000        1.862935         4    ;  uncertainty k = 0.207130
        15        18        19        31     9        0.000000       14.991890         1    ;  uncertainty k = 0.177214
        15        18        19        31     9      180.000000       -3.682074         2    ;  uncertainty k = 0.239405
        15        18        19        31     9        0.000000        0.980423         3    ;  uncertainty k = 0.057177
        15        18        19        31     9      180.000000        0.176294         4    ;  uncertainty k = 0.044986
        15        18        20        32     9        0.000000        0.351770         1    ;  uncertainty k = 0.319275
        15        18        20        32     9      180.000000       -0.223483         2    ;  uncertainty k = 0.173254
        15        18        20        32     9        0.000000        0.715961         3    ;  uncertainty k = 0.098047
        15        18        20        32     9      180.000000       -0.000790         4    ;  uncertainty k = 0.041032
        15        18        20        33     9        0.000000        0.351770         1    ;  uncertainty k = 0.319275
        15        18        20        33     9      180.000000       -0.223483         2    ;  uncertainty k = 0.173254
        15        18        20        33     9        0.000000        0.715961         3    ;  uncertainty k = 0.098047
        15        18        20        33     9      180.000000       -0.000790         4    ;  uncertainty k = 0.041032
        15        18        20        34     9        0.000000        0.351770         1    ;  uncertainty k = 0.319275
        15        18        20        34     9      180.000000       -0.223483         2    ;  uncertainty k = 0.173254
        15        18        20        34     9        0.000000        0.715961         3    ;  uncertainty k = 0.098047
        15        18        20        34     9      180.000000       -0.000790         4    ;  uncertainty k = 0.041032
        15        18        21        35     9        0.000000        0.351770         1    ;  uncertainty k = 0.319275
        15        18        21        35     9      180.000000       -0.223483         2    ;  uncertainty k = 0.173254
        15        18        21        35     9        0.000000        0.715961         3    ;  uncertainty k = 0.098047
        15        18        21        35     9      180.000000       -0.000790         4    ;  uncertainty k = 0.041032
        15        18        21        36     9        0.000000        0.351770         1    ;  uncertainty k = 0.319275
        15        18        21        36     9      180.000000       -0.223483         2    ;  uncertainty k = 0.173254
        15        18        21        36     9        0.000000        0.715961         3    ;  uncertainty k = 0.098047
        15        18        21        36     9      180.000000       -0.000790         4    ;  uncertainty k = 0.041032
        15        18        21        37     9        0.000000        0.351770         1    ;  uncertainty k = 0.319275
        15        18        21        37     9      180.000000       -0.223483         2    ;  uncertainty k = 0.173254
        15        18        21        37     9        0.000000        0.715961         3    ;  uncertainty k = 0.098047
        15        18        21        37     9      180.000000       -0.000790         4    ;  uncertainty k = 0.041032
        16        15        14        28     9        0.000000        0.099411         1    ;  uncertainty k = 0.169149
        16        15        14        28     9      180.000000        7.277331         2    ;  uncertainty k = 0.487638
        16        15        14        28     9        0.000000        1.399666         3    ;  uncertainty k = 0.329314
        16        15        14        28     9      180.000000        1.678522         4    ;  uncertainty k = 0.191976
        16        15        18        19     9        0.000000       -1.219996         1    ;  uncertainty k = 0.274824
        16        15        18        19     9      180.000000        3.868486         2    ;  uncertainty k = 0.116802
        16        15        18        19     9        0.000000        0.651180         3    ;  uncertainty k = 0.135170
        16        15        18        19     9      180.000000        0.512033         4    ;  uncertainty k = 0.043839
        16        15        18        20     9        0.000000       -0.409205         1    ;  uncertainty k = 0.095576
        16        15        18        20     9      180.000000        2.717206         2    ;  uncertainty k = 0.115248
        16        15        18        20     9        0.000000        0.444819         3    ;  uncertainty k = 0.108147
        16        15        18        20     9      180.000000        0.287592         4    ;  uncertainty k = 0.049350
        16        15        18        21     9        0.000000       -0.409205         1    ;  uncertainty k = 0.095576
        16        15        18        21     9      180.000000        2.717206         2    ;  uncertainty k = 0.115248
        16        15        18        21     9        0.000000        0.444819         3    ;  uncertainty k = 0.108147
        16        15        18        21     9      180.000000        0.287592         4    ;  uncertainty k = 0.049350
        17        12        13        27     9        0.000000        0.065425         1    ;  uncertainty k = 0.154407
        17        12        13        27     9      180.000000        6.880288         2    ;  uncertainty k = 0.569492
        17        12        13        27     9        0.000000        1.307045         3    ;  uncertainty k = 0.238388
        17        12        13        27     9      180.000000        1.580984         4    ;  uncertainty k = 0.264455
        17        16        15        18     9        0.000000        0.213012         1    ;  uncertainty k = 0.165870
        17        16        15        18     9      180.000000        8.409903         2    ;  uncertainty k = 0.512358
        17        16        15        18     9        0.000000        1.391291         3    ;  uncertainty k = 0.345930
        17        16        15        18     9      180.000000        1.926967         4    ;  uncertainty k = 0.263557
        18        15        14        28     9        0.000000       -0.074274         1    ;  uncertainty k = 0.468916
        18        15        14        28     9      180.000000        7.722559         2    ;  uncertainty k = 0.204459
        18        15        14        28     9        0.000000        0.599783         3    ;  uncertainty k = 0.298353
        18        15        14        28     9      180.000000        0.966283         4    ;  uncertainty k = 0.105372
        18        15        16        29     9        0.000000       -0.074274         1    ;  uncertainty k = 0.468916
        18        15        16        29     9      180.000000        7.722559         2    ;  uncertainty k = 0.204459
        18        15        16        29     9        0.000000        0.599783         3    ;  uncertainty k = 0.298353
        18        15        16        29     9      180.000000        0.966283         4    ;  uncertainty k = 0.105372
        19        18        20        32     9        0.000000       -1.961844         1    ;  uncertainty k = 0.551181
        19        18        20        32     9      180.000000       -0.960261         2    ;  uncertainty k = 0.282481
        19        18        20        32     9        0.000000        0.831230         3    ;  uncertainty k = 0.087293
        19        18        20        32     9      180.000000       -0.214593         4    ;  uncertainty k = 0.050560
        19        18        20        33     9        0.000000       -1.961844         1    ;  uncertainty k = 0.551181
        19        18        20        33     9      180.000000       -0.960261         2    ;  uncertainty k = 0.282481
        19        18        20        33     9        0.000000        0.831230         3    ;  uncertainty k = 0.087293
        19        18        20        33     9      180.000000       -0.214593         4    ;  uncertainty k = 0.050560
        19        18        20        34     9        0.000000       -1.961844         1    ;  uncertainty k = 0.551181
        19        18        20        34     9      180.000000       -0.960261         2    ;  uncertainty k = 0.282481
        19        18        20        34     9        0.000000        0.831230         3    ;  uncertainty k = 0.087293
        19        18        20        34     9      180.000000       -0.214593         4    ;  uncertainty k = 0.050560
        19        18        21        35     9        0.000000       -1.961844         1    ;  uncertainty k = 0.551181
        19        18        21        35     9      180.000000       -0.960261         2    ;  uncertainty k = 0.282481
        19        18        21        35     9        0.000000        0.831230         3    ;  uncertainty k = 0.087293
        19        18        21        35     9      180.000000       -0.214593         4    ;  uncertainty k = 0.050560
        19        18        21        36     9        0.000000       -1.961844         1    ;  uncertainty k = 0.551181
        19        18        21        36     9      180.000000       -0.960261         2    ;  uncertainty k = 0.282481
        19        18        21        36     9        0.000000        0.831230         3    ;  uncertainty k = 0.087293
        19        18        21        36     9      180.000000       -0.214593         4    ;  uncertainty k = 0.050560
        19        18        21        37     9        0.000000       -1.961844         1    ;  uncertainty k = 0.551181
        19        18        21        37     9      180.000000       -0.960261         2    ;  uncertainty k = 0.282481
        19        18        21        37     9        0.000000        0.831230         3    ;  uncertainty k = 0.087293
        19        18        21        37     9      180.000000       -0.214593         4    ;  uncertainty k = 0.050560
        20        18        19        31     9        0.000000       12.662224         1    ;  uncertainty k = 0.317843
        20        18        19        31     9      180.000000       -1.675061         2    ;  uncertainty k = 0.239562
        20        18        19        31     9        0.000000        1.060161         3    ;  uncertainty k = 0.149525
        20        18        19        31     9      180.000000        0.360746         4    ;  uncertainty k = 0.102772
        20        18        21        35     9        0.000000       -1.125963         1    ;  uncertainty k = 0.230765
        20        18        21        35     9      180.000000       -0.047878         2    ;  uncertainty k = 0.090864
        20        18        21        35     9        0.000000        0.742644         3    ;  uncertainty k = 0.072669
        20        18        21        35     9      180.000000       -0.033077         4    ;  uncertainty k = 0.054936
        20        18        21        36     9        0.000000       -1.125963         1    ;  uncertainty k = 0.230765
        20        18        21        36     9      180.000000       -0.047878         2    ;  uncertainty k = 0.090864
        20        18        21        36     9        0.000000        0.742644         3    ;  uncertainty k = 0.072669
        20        18        21        36     9      180.000000       -0.033077         4    ;  uncertainty k = 0.054936
        20        18        21        37     9        0.000000       -1.125963         1    ;  uncertainty k = 0.230765
        20        18        21        37     9      180.000000       -0.047878         2    ;  uncertainty k = 0.090864
        20        18        21        37     9        0.000000        0.742644         3    ;  uncertainty k = 0.072669
        20        18        21        37     9      180.000000       -0.033077         4    ;  uncertainty k = 0.054936
        21        18        19        31     9        0.000000       12.662224         1    ;  uncertainty k = 0.317843
        21        18        19        31     9      180.000000       -1.675061         2    ;  uncertainty k = 0.239562
        21        18        19        31     9        0.000000        1.060161         3    ;  uncertainty k = 0.149525
        21        18        19        31     9      180.000000        0.360746         4    ;  uncertainty k = 0.102772
        21        18        20        32     9        0.000000       -1.125963         1    ;  uncertainty k = 0.230765
        21        18        20        32     9      180.000000       -0.047878         2    ;  uncertainty k = 0.090864
        21        18        20        32     9        0.000000        0.742644         3    ;  uncertainty k = 0.072669
        21        18        20        32     9      180.000000       -0.033077         4    ;  uncertainty k = 0.054936
        21        18        20        33     9        0.000000       -1.125963         1    ;  uncertainty k = 0.230765
        21        18        20        33     9      180.000000       -0.047878         2    ;  uncertainty k = 0.090864
        21        18        20        33     9        0.000000        0.742644         3    ;  uncertainty k = 0.072669
        21        18        20        33     9      180.000000       -0.033077         4    ;  uncertainty k = 0.054936
        21        18        20        34     9        0.000000       -1.125963         1    ;  uncertainty k = 0.230765
        21        18        20        34     9      180.000000       -0.047878         2    ;  uncertainty k = 0.090864
        21        18        20        34     9        0.000000        0.742644         3    ;  uncertainty k = 0.072669
        21        18        20        34     9      180.000000       -0.033077         4    ;  uncertainty k = 0.054936
        22         1         3        23     9        0.000000       -0.313349         1    ;  uncertainty k = 0.323070
        22         1         3        23     9      180.000000       11.087167         2    ;  uncertainty k = 0.444921
        22         1         3        23     9        0.000000        1.023365         3    ;  uncertainty k = 0.172027
        22         1         3        23     9      180.000000        1.184659         4    ;  uncertainty k = 0.349808
        23         3         6        24     9        0.000000       -0.017173         1    ;  uncertainty k = 0.263970
        23         3         6        24     9      180.000000        7.461112         2    ;  uncertainty k = 0.581318
        23         3         6        24     9        0.000000       -0.305075         3    ;  uncertainty k = 0.338995
        23         3         6        24     9      180.000000        0.093290         4    ;  uncertainty k = 0.206322
        24         6         7        25     9        0.000000       -0.145036         1    ;  uncertainty k = 0.117893
        24         6         7        25     9      180.000000        8.020747         2    ;  uncertainty k = 0.658681
        24         6         7        25     9        0.000000       -0.225490         3    ;  uncertainty k = 0.263128
        24         6         7        25     9      180.000000        0.168191         4    ;  uncertainty k = 0.163259
        27        13        14        28     9        0.000000       -0.117735         1    ;  uncertainty k = 0.210280
        27        13        14        28     9      180.000000        8.002242         2    ;  uncertainty k = 0.460743
        27        13        14        28     9        0.000000       -0.392489         3    ;  uncertainty k = 0.200264
        27        13        14        28     9      180.000000        0.296121         4    ;  uncertainty k = 0.231306
        29        16        17        30     9        0.000000       -0.117735         1    ;  uncertainty k = 0.210280
        29        16        17        30     9      180.000000        8.002243         2    ;  uncertainty k = 0.460743
        29        16        17        30     9        0.000000       -0.392489         3    ;  uncertainty k = 0.200264
        29        16        17        30     9      180.000000        0.296121         4    ;  uncertainty k = 0.231306

[ dihedrals ] ; impropers
;       ai        aj        ak        al funct           phase               k        pn
         1         2         3        22     4      180.000000       13.645564         2    ;  uncertainty k = 0.148936
         1         3        22         2     4      180.000000       13.645564         2    ;  uncertainty k = 0.148936
         1        22         2         3     4      180.000000       13.645564         2    ;  uncertainty k = 0.148936
         2         1         4         5     4      180.000000       18.902183         2    ;  uncertainty k = 0.100350
         2         4         5         1     4      180.000000       18.902183         2    ;  uncertainty k = 0.100350
         2         5         1         4     4      180.000000       18.902183         2    ;  uncertainty k = 0.100350
         3         1         6        23     4      180.000000        3.061862         2    ;  uncertainty k = 0.133272
         3         6        23         1     4      180.000000        3.061862         2    ;  uncertainty k = 0.133272
         3        23         1         6     4      180.000000        3.061862         2    ;  uncertainty k = 0.133272
         4         2         7         8     4      180.000000        5.585719         2    ;  uncertainty k = 0.220714
         4         7         8         2     4      180.000000        5.585719         2    ;  uncertainty k = 0.220714
         4         8         2         7     4      180.000000        5.585719         2    ;  uncertainty k = 0.220714
         6         3         7        24     4      180.000000        4.368688         2    ;  uncertainty k = 0.213134
         6         7        24         3     4      180.000000        4.368688         2    ;  uncertainty k = 0.213134
         6        24         3         7     4      180.000000        4.368688         2    ;  uncertainty k = 0.213134
         7         4         6        25     4      180.000000        4.933420         2    ;  uncertainty k = 0.089639
         7         6        25         4     4      180.000000        4.933420         2    ;  uncertainty k = 0.089639
         7        25         4         6     4      180.000000        4.933420         2    ;  uncertainty k = 0.089639
         8         4         9        10     4      180.000000       50.480805         2    ;  uncertainty k = 0.010230
         8         9        10         4     4      180.000000       50.480805         2    ;  uncertainty k = 0.010230
         8        10         4         9     4      180.000000       50.480805         2    ;  uncertainty k = 0.010230
         9         8        11        26     4      180.000000        0.702586         2    ;  uncertainty k = 0.548728
         9        11        26         8     4      180.000000        0.702586         2    ;  uncertainty k = 0.548728
         9        26         8        11     4      180.000000        0.702586         2    ;  uncertainty k = 0.548728
        11         5         9        12     4      180.000000       30.275052         2    ;  uncertainty k = 0.038915
        11         9        12         5     4      180.000000       30.275052         2    ;  uncertainty k = 0.038915
        11        12         5         9     4      180.000000       30.275052         2    ;  uncertainty k = 0.038915
        12        11        13        17     4      180.000000        8.891801         2    ;  uncertainty k = 0.243441
        12        13        17        11     4      180.000000        8.891801         2    ;  uncertainty k = 0.243441
        12        17        11        13     4      180.000000        8.891801         2    ;  uncertainty k = 0.243441
        13        12        14        27     4      180.000000        4.118158         2    ;  uncertainty k = 0.143895
        13        14        27        12     4      180.000000        4.118158         2    ;  uncertainty k = 0.143895
        13        27        12        14     4      180.000000        4.118158         2    ;  uncertainty k = 0.143895
        14        13        15        28     4      180.000000        3.498636         2    ;  uncertainty k = 0.120340
        14        15        28        13     4      180.000000        3.498636         2    ;  uncertainty k = 0.120340
        14        28        13        15     4      180.000000        3.498636         2    ;  uncertainty k = 0.120340
        15        14        16        18     4      180.000000       13.022908         2    ;  uncertainty k = 0.059644
        15        16        18        14     4      180.000000       13.022908         2    ;  uncertainty k = 0.059644
        15        18        14        16     4      180.000000       13.022908         2    ;  uncertainty k = 0.059644
        16        15        17        29     4      180.000000        3.498636         2    ;  uncertainty k = 0.120340
        16        17        29        15     4      180.000000        3.498636         2    ;  uncertainty k = 0.120340
        16        29        15        17     4      180.000000        3.498636         2    ;  uncertainty k = 0.120340
        17        12        16        30     4      180.000000        4.118156         2    ;  uncertainty k = 0.143895
        17        16        30        12     4      180.000000        4.118156         2    ;  uncertainty k = 0.143895
        17        30        12        16     4      180.000000        4.118156         2    ;  uncertainty k = 0.143895

[ pairs ]
;       ai        aj funct
         1         7     1
         1         8     1
         1        11     1
         1        24     1
         2         6     1
         2         9     1
         2        10     1
         2        12     1
         2        23     1
         2        25     1
         3         4     1
         3         5     1
         3        25     1
         4        11     1
         4        22     1
         4        24     1
         4        26     1
         5         7     1
         5         8     1
         5        13     1
         5        17     1
         5        22     1
         5        26     1
         6         8     1
         6        22     1
         7         9     1
         7        10     1
         7        23     1
         8        12     1
         8        25     1
         9        13     1
         9        17     1
        10        11     1
        10        26     1
        11        14     1
        11        16     1
        11        27     1
        11        30     1
        12        15     1
        12        26     1
        12        28     1
        12        29     1
        13        16     1
        13        18     1
        13        30     1
        14        17     1
        14        19     1
        14        20     1
        14        21     1
        14        29     1
        15        27     1
        15        30     1
        15        31     1
        15        32     1
        15        33     1
        15        34     1
        15        35     1
        15        36     1
        15        37     1
        16        19     1
        16        20     1
        16        21     1
        16        28     1
        17        18     1
        17        27     1
        18        28     1
        18        29     1
        19        32     1
        19        33     1
        19        34     1
        19        35     1
        19        36     1
        19        37     1
        20        31     1
        20        35     1
        20        36     1
        20        37     1
        21        31     1
        21        32     1
        21        33     1
        21        34     1
        22        23     1
        23        24     1
        24        25     1
        27        28     1
        29        30     1
