; ITP file created by ByteFF-joint-25, 2026-02-17 09:47:23.344801

[ atomtypes ]
;name           bonded.type        at.num        mass        charge   ptype           sigma         epsilon
 c0bf                                   6      0.0000       0.00000       A     3.31516e-01     4.13103e-01    ;  uncertainty sigma = 0.000009, epsilon = 0.000511
 c1bf                                   6      0.0000       0.00000       A     3.31539e-01     4.12839e-01    ;  uncertainty sigma = 0.000012, epsilon = 0.001008
 c2bf                                   6      0.0000       0.00000       A     3.31515e-01     4.13353e-01    ;  uncertainty sigma = 0.000002, epsilon = 0.000659
 c3bf                                   6      0.0000       0.00000       A     3.31546e-01     4.14011e-01    ;  uncertainty sigma = 0.000013, epsilon = 0.000849
 n4bf                                   7      0.0000       0.00000       A     3.38445e-01     3.94227e-01    ;  uncertainty sigma = 0.000023, epsilon = 0.001518
 c5bf                                   6      0.0000       0.00000       A     3.31521e-01     4.13189e-01    ;  uncertainty sigma = 0.000004, epsilon = 0.000619
 c6bf                                   6      0.0000       0.00000       A     3.31503e-01     4.13318e-01    ;  uncertainty sigma = 0.000006, epsilon = 0.000792
 c7bf                                   6      0.0000       0.00000       A     3.31536e-01     4.13389e-01    ;  uncertainty sigma = 0.000008, epsilon = 0.001122
 n8bf                                   7      0.0000       0.00000       A     3.26867e-01     4.92512e-01    ;  uncertainty sigma = 0.000088, epsilon = 0.003430
 o9bf                                   8      0.0000       0.00000       A     3.04814e-01     6.11899e-01    ;  uncertainty sigma = 0.000014, epsilon = 0.001624
 c10bf                                  6      0.0000       0.00000       A     3.31511e-01     4.12991e-01    ;  uncertainty sigma = 0.000015, epsilon = 0.001219
 c11bf                                  6      0.0000       0.00000       A     3.31501e-01     4.12880e-01    ;  uncertainty sigma = 0.000017, epsilon = 0.001089
 c12bf                                  6      0.0000       0.00000       A     3.31519e-01     4.13337e-01    ;  uncertainty sigma = 0.000004, epsilon = 0.000604
 c13bf                                  6      0.0000       0.00000       A     3.31522e-01     4.13196e-01    ;  uncertainty sigma = 0.000004, epsilon = 0.000447
 c14bf                                  6      0.0000       0.00000       A     3.31544e-01     4.13202e-01    ;  uncertainty sigma = 0.000004, epsilon = 0.001200
 c15bf                                  6      0.0000       0.00000       A     3.31522e-01     4.13196e-01    ;  uncertainty sigma = 0.000004, epsilon = 0.000447
 c16bf                                  6      0.0000       0.00000       A     3.31519e-01     4.13337e-01    ;  uncertainty sigma = 0.000004, epsilon = 0.000604
 c17bf                                  6      0.0000       0.00000       A     3.39755e-01     4.50272e-01    ;  uncertainty sigma = 0.000025, epsilon = 0.001042
 o18bf                                  8      0.0000       0.00000       A     3.24292e-01     3.89709e-01    ;  uncertainty sigma = 0.000031, epsilon = 0.001714
 c19bf                                  6      0.0000       0.00000       A     3.39763e-01     4.50805e-01    ;  uncertainty sigma = 0.000004, epsilon = 0.000470
 c20bf                                  6      0.0000       0.00000       A     3.39763e-01     4.50805e-01    ;  uncertainty sigma = 0.000004, epsilon = 0.000470
 cl21bf                                17      0.0000       0.00000       A     3.46613e-01     1.10329e+00    ;  uncertainty sigma = 0.000014, epsilon = 0.001971
 h22bf                                  1      0.0000       0.00000       A     2.62557e-01     6.68921e-02    ;  uncertainty sigma = 0.000013, epsilon = 0.000620
 h23bf                                  1      0.0000       0.00000       A     2.62580e-01     6.69364e-02    ;  uncertainty sigma = 0.000006, epsilon = 0.000504
 h24bf                                  1      0.0000       0.00000       A     2.62560e-01     6.69779e-02    ;  uncertainty sigma = 0.000012, epsilon = 0.000618
 h25bf                                  1      0.0000       0.00000       A     1.10651e-01     4.13762e-02    ;  uncertainty sigma = 0.000058, epsilon = 0.001253
 h26bf                                  1      0.0000       0.00000       A     2.62567e-01     6.70632e-02    ;  uncertainty sigma = 0.000011, epsilon = 0.000557
 h27bf                                  1      0.0000       0.00000       A     2.62556e-01     6.70460e-02    ;  uncertainty sigma = 0.000009, epsilon = 0.000514
 h28bf                                  1      0.0000       0.00000       A     2.62556e-01     6.70460e-02    ;  uncertainty sigma = 0.000009, epsilon = 0.000514
 h29bf                                  1      0.0000       0.00000       A     2.62567e-01     6.70633e-02    ;  uncertainty sigma = 0.000011, epsilon = 0.000557
 h30bf                                  1      0.0000       0.00000       A     5.37866e-02     1.91555e-02    ;  uncertainty sigma = 0.000161, epsilon = 0.001189
 h31bf                                  1      0.0000       0.00000       A     2.60031e-01     8.67183e-02    ;  uncertainty sigma = 0.000009, epsilon = 0.000447
 h32bf                                  1      0.0000       0.00000       A     2.60031e-01     8.67183e-02    ;  uncertainty sigma = 0.000009, epsilon = 0.000447
 h33bf                                  1      0.0000       0.00000       A     2.60031e-01     8.67183e-02    ;  uncertainty sigma = 0.000009, epsilon = 0.000447
 h34bf                                  1      0.0000       0.00000       A     2.60031e-01     8.67183e-02    ;  uncertainty sigma = 0.000009, epsilon = 0.000447
 h35bf                                  1      0.0000       0.00000       A     2.60031e-01     8.67183e-02    ;  uncertainty sigma = 0.000009, epsilon = 0.000447
 h36bf                                  1      0.0000       0.00000       A     2.60031e-01     8.67183e-02    ;  uncertainty sigma = 0.000009, epsilon = 0.000447

[ moleculetype ]
;name             nrexcl
 MOL                   3

[ atoms ]
;       nr            type      resi   res      atom      cgnr      charge          mass ; qtot
         1            c0bf         1   UNL        c0         1     0.02605       12.0110 ; qtot    0.026
         2            c1bf         1   UNL        c1         2     0.19966       12.0110 ; qtot    0.226
         3            c2bf         1   UNL        c2         3    -0.08599       12.0110 ; qtot    0.140
         4            c3bf         1   UNL        c3         4    -0.19706       12.0110 ; qtot   -0.057
         5            n4bf         1   UNL        n4         5    -0.61327       14.0070 ; qtot   -0.671
         6            c5bf         1   UNL        c5         6    -0.14211       12.0110 ; qtot   -0.813
         7            c6bf         1   UNL        c6         7    -0.05985       12.0110 ; qtot   -0.873
         8            c7bf         1   UNL        c7         8     0.71727       12.0110 ; qtot   -0.155
         9            n8bf         1   UNL        n8         9    -0.50555       14.0070 ; qtot   -0.661
        10            o9bf         1   UNL        o9        10    -0.60262       15.9990 ; qtot   -1.263
        11           c10bf         1   UNL       c10        11     0.57436       12.0110 ; qtot   -0.689
        12           c11bf         1   UNL       c11        12    -0.15416       12.0110 ; qtot   -0.843
        13           c12bf         1   UNL       c12        13    -0.08668       12.0110 ; qtot   -0.930
        14           c13bf         1   UNL       c13        14    -0.12388       12.0110 ; qtot   -1.054
        15           c14bf         1   UNL       c14        15    -0.08876       12.0110 ; qtot   -1.143
        16           c15bf         1   UNL       c15        16    -0.12388       12.0110 ; qtot   -1.266
        17           c16bf         1   UNL       c16        17    -0.08668       12.0110 ; qtot   -1.353
        18           c17bf         1   UNL       c17        18     0.20190       12.0110 ; qtot   -1.151
        19           o18bf         1   UNL       o18        19    -0.60342       15.9990 ; qtot   -1.755
        20           c19bf         1   UNL       c19        20    -0.10277       12.0110 ; qtot   -1.857
        21           c20bf         1   UNL       c20        21    -0.10277       12.0110 ; qtot   -1.960
        22          cl21bf         1   UNL      cl21        22    -0.08110       35.4530 ; qtot   -2.041
        23           h22bf         1   UNL       h22        23     0.15271        1.0080 ; qtot   -1.889
        24           h23bf         1   UNL       h23        24     0.14444        1.0080 ; qtot   -1.744
        25           h24bf         1   UNL       h24        25     0.16108        1.0080 ; qtot   -1.583
        26           h25bf         1   UNL       h25        26     0.33625        1.0080 ; qtot   -1.247
        27           h26bf         1   UNL       h26        27     0.14623        1.0080 ; qtot   -1.101
        28           h27bf         1   UNL       h27        28     0.14030        1.0080 ; qtot   -0.960
        29           h28bf         1   UNL       h28        29     0.14030        1.0080 ; qtot   -0.820
        30           h29bf         1   UNL       h29        30     0.14623        1.0080 ; qtot   -0.674
        31           h30bf         1   UNL       h30        31     0.40249        1.0080 ; qtot   -0.271
        32           h31bf         1   UNL       h31        32     0.04522        1.0080 ; qtot   -0.226
        33           h32bf         1   UNL       h32        33     0.04522        1.0080 ; qtot   -0.181
        34           h33bf         1   UNL       h33        34     0.04522        1.0080 ; qtot   -0.136
        35           h34bf         1   UNL       h34        35     0.04522        1.0080 ; qtot   -0.090
        36           h35bf         1   UNL       h35        36     0.04522        1.0080 ; qtot   -0.045
        37           h36bf         1   UNL       h36        37     0.04518        1.0080 ; qtot   -0.000

[ bonds ]
;       ai        aj funct               r               k
         1         2     1        0.141208   324698.982910    ;  uncertainty r = 0.000110, k = 15.913443
         1         3     1        0.138711   356779.210449    ;  uncertainty r = 0.000098, k = 3.619834
         1        22     1        0.174639   195401.444312    ;  uncertainty r = 0.000043, k = 8.243197
         2         4     1        0.142003   383293.293018    ;  uncertainty r = 0.000090, k = 9.463338
         2         5     1        0.138237   290136.471729    ;  uncertainty r = 0.000072, k = 14.699654
         3         6     1        0.140498   362578.075098    ;  uncertainty r = 0.000080, k = 4.410545
         3        23     1        0.108691   335226.809473    ;  uncertainty r = 0.000008, k = 0.598110
         4         7     1        0.139945   366080.949316    ;  uncertainty r = 0.000070, k = 7.198803
         4         8     1        0.146655   269748.001123    ;  uncertainty r = 0.000063, k = 14.551660
         5        11     1        0.129858   464772.377246    ;  uncertainty r = 0.000059, k = 8.549175
         6         7     1        0.138816   367561.999512    ;  uncertainty r = 0.000045, k = 5.000466
         6        24     1        0.108707   333570.830078    ;  uncertainty r = 0.000017, k = 1.969592
         7        25     1        0.108545   330437.452295    ;  uncertainty r = 0.000008, k = 1.235338
         8         9     1        0.140191   446033.348535    ;  uncertainty r = 0.000073, k = 15.471161
         8        10     1        0.123412   855616.814746    ;  uncertainty r = 0.000129, k = 13.819454
         9        11     1        0.138930   295564.920605    ;  uncertainty r = 0.000123, k = 22.371427
         9        26     1        0.102058   454589.659180    ;  uncertainty r = 0.000027, k = 4.102090
        11        12     1        0.147231   266166.753516    ;  uncertainty r = 0.000089, k = 12.802174
        12        13     1        0.139881   350469.118408    ;  uncertainty r = 0.000059, k = 3.608169
        12        17     1        0.139881   350469.118408    ;  uncertainty r = 0.000059, k = 3.608169
        13        14     1        0.139215   359042.692139    ;  uncertainty r = 0.000045, k = 3.009361
        13        27     1        0.108751   333157.971631    ;  uncertainty r = 0.000045, k = 1.128363
        14        15     1        0.139630   349504.479639    ;  uncertainty r = 0.000022, k = 3.365375
        14        28     1        0.108801   333642.308447    ;  uncertainty r = 0.000019, k = 1.144891
        15        16     1        0.139630   349504.479639    ;  uncertainty r = 0.000022, k = 3.365375
        15        18     1        0.152147   213548.803735    ;  uncertainty r = 0.000097, k = 3.797993
        16        17     1        0.139215   359042.692139    ;  uncertainty r = 0.000045, k = 3.009361
        16        29     1        0.108801   333642.308447    ;  uncertainty r = 0.000019, k = 1.144913
        17        30     1        0.108751   333157.997168    ;  uncertainty r = 0.000045, k = 1.128360
        18        19     1        0.144782   263188.513672    ;  uncertainty r = 0.000100, k = 11.942343
        18        20     1        0.153487   207492.767627    ;  uncertainty r = 0.000036, k = 5.323961
        18        21     1        0.153487   207492.767627    ;  uncertainty r = 0.000036, k = 5.323961
        19        31     1        0.097230   467409.339160    ;  uncertainty r = 0.000030, k = 3.616173
        20        32     1        0.109572   309908.578662    ;  uncertainty r = 0.000020, k = 1.196954
        20        33     1        0.109572   309908.578662    ;  uncertainty r = 0.000020, k = 1.196954
        20        34     1        0.109572   309908.578662    ;  uncertainty r = 0.000020, k = 1.196954
        21        35     1        0.109572   309908.578662    ;  uncertainty r = 0.000020, k = 1.196957
        21        36     1        0.109572   309908.578662    ;  uncertainty r = 0.000020, k = 1.196957
        21        37     1        0.109572   309908.578662    ;  uncertainty r = 0.000020, k = 1.196957

[ angles ]
;       ai        aj        ak funct           theta             cth
         1         2         4     1      118.424782      378.535232    ;  uncertainty theta = 0.005737, k = 0.143484
         1         2         5     1      118.301514      456.678435    ;  uncertainty theta = 0.007165, k = 0.195652
         1         3         6     1      120.515869      510.275561    ;  uncertainty theta = 0.001244, k = 0.063524
         1         3        23     1      119.827744      282.016099    ;  uncertainty theta = 0.003003, k = 0.082431
         2         1         3     1      121.277664      425.617074    ;  uncertainty theta = 0.006240, k = 0.222225
         2         1        22     1      118.327393      415.986743    ;  uncertainty theta = 0.003581, k = 0.239969
         2         4         7     1      122.969650      441.215460    ;  uncertainty theta = 0.001976, k = 0.212271
         2         4         8     1      116.929581      486.759777    ;  uncertainty theta = 0.003253, k = 0.272951
         2         5        11     1      115.711510      414.346431    ;  uncertainty theta = 0.004060, k = 0.471833
         3         1        22     1      120.997658      452.902933    ;  uncertainty theta = 0.002627, k = 0.102516
         3         6         7     1      120.927574      526.551190    ;  uncertainty theta = 0.002419, k = 0.065082
         3         6        24     1      119.759666      284.573481    ;  uncertainty theta = 0.000872, k = 0.035186
         4         2         5     1      123.991104      555.686989    ;  uncertainty theta = 0.005261, k = 0.123688
         4         7         6     1      119.816177      512.535563    ;  uncertainty theta = 0.001402, k = 0.135411
         4         7        25     1      119.089066      247.803985    ;  uncertainty theta = 0.002667, k = 0.160892
         4         8         9     1      109.139977      387.734049    ;  uncertainty theta = 0.006876, k = 0.247599
         4         8        10     1      128.012451      511.710970    ;  uncertainty theta = 0.002765, k = 0.140250
         5        11         9     1      123.788452      676.185500    ;  uncertainty theta = 0.006008, k = 0.161189
         5        11        12     1      122.616806      442.854432    ;  uncertainty theta = 0.004261, k = 0.202576
         6         3        23     1      120.835007      280.962438    ;  uncertainty theta = 0.002312, k = 0.045016
         6         7        25     1      121.315048      278.494882    ;  uncertainty theta = 0.001823, k = 0.053246
         7         4         8     1      118.298073      401.530154    ;  uncertainty theta = 0.004280, k = 0.142683
         7         6        24     1      120.225296      282.324651    ;  uncertainty theta = 0.001982, k = 0.045013
         8         9        11     1      120.685997      498.384525    ;  uncertainty theta = 0.003904, k = 0.153280
         8         9        26     1      115.390297      353.100143    ;  uncertainty theta = 0.007127, k = 0.134440
         9         8        10     1      124.987015      817.535954    ;  uncertainty theta = 0.003038, k = 0.077571
         9        11        12     1      116.802658      515.648185    ;  uncertainty theta = 0.004844, k = 0.267499
        11         9        26     1      116.839149      330.326787    ;  uncertainty theta = 0.006520, k = 0.191463
        11        12        13     1      117.692970      401.394264    ;  uncertainty theta = 0.002986, k = 0.114614
        11        12        17     1      117.692970      401.394264    ;  uncertainty theta = 0.002986, k = 0.114614
        12        13        14     1      121.936867      513.032419    ;  uncertainty theta = 0.001595, k = 0.037410
        12        13        27     1      118.373268      267.332069    ;  uncertainty theta = 0.002929, k = 0.046096
        12        17        16     1      121.936867      513.032419    ;  uncertainty theta = 0.001595, k = 0.037410
        12        17        30     1      118.373268      267.332037    ;  uncertainty theta = 0.002929, k = 0.046096
        13        12        17     1      120.778748      421.634435    ;  uncertainty theta = 0.002896, k = 0.258077
        13        14        15     1      121.733681      516.745292    ;  uncertainty theta = 0.002295, k = 0.052086
        13        14        28     1      119.605568      285.026126    ;  uncertainty theta = 0.002260, k = 0.028336
        14        13        27     1      120.211563      284.749144    ;  uncertainty theta = 0.002936, k = 0.063323
        14        15        16     1      119.700928      459.849474    ;  uncertainty theta = 0.002192, k = 0.105996
        14        15        18     1      119.835281      368.426622    ;  uncertainty theta = 0.004163, k = 0.173853
        15        14        28     1      118.678185      262.012993    ;  uncertainty theta = 0.001113, k = 0.066500
        15        16        17     1      121.733681      516.745292    ;  uncertainty theta = 0.002295, k = 0.052086
        15        16        29     1      118.678185      262.012993    ;  uncertainty theta = 0.001113, k = 0.066500
        15        18        19     1      109.685776      703.897222    ;  uncertainty theta = 0.001965, k = 0.142449
        15        18        20     1      109.715744      550.550008    ;  uncertainty theta = 0.001726, k = 0.033765
        15        18        21     1      109.715744      550.550008    ;  uncertainty theta = 0.001726, k = 0.033765
        16        15        18     1      119.835281      368.426622    ;  uncertainty theta = 0.004163, k = 0.173853
        16        17        30     1      120.211563      284.749144    ;  uncertainty theta = 0.002936, k = 0.063322
        17        16        29     1      119.605568      285.026158    ;  uncertainty theta = 0.002260, k = 0.028336
        18        19        31     1      107.710533      483.511457    ;  uncertainty theta = 0.002078, k = 0.098569
        18        20        32     1      107.275742      375.507520    ;  uncertainty theta = 0.000927, k = 0.039228
        18        20        33     1      107.275742      375.507520    ;  uncertainty theta = 0.000927, k = 0.039228
        18        20        34     1      107.275742      375.507520    ;  uncertainty theta = 0.000927, k = 0.039228
        18        21        35     1      107.275742      375.507520    ;  uncertainty theta = 0.000927, k = 0.039228
        18        21        36     1      107.275742      375.507520    ;  uncertainty theta = 0.000927, k = 0.039228
        18        21        37     1      107.275742      375.507520    ;  uncertainty theta = 0.000927, k = 0.039228
        19        18        20     1      108.829308      692.110441    ;  uncertainty theta = 0.002464, k = 0.098428
        19        18        21     1      108.829308      692.110441    ;  uncertainty theta = 0.002464, k = 0.098428
        20        18        21     1      110.087318      564.121450    ;  uncertainty theta = 0.001573, k = 0.073265
        32        20        33     1      105.686974      317.730768    ;  uncertainty theta = 0.001105, k = 0.008156
        32        20        34     1      105.686974      317.730768    ;  uncertainty theta = 0.001105, k = 0.008156
        33        20        34     1      105.686974      317.730768    ;  uncertainty theta = 0.001105, k = 0.008156
        35        21        36     1      105.686974      317.730768    ;  uncertainty theta = 0.001105, k = 0.008156
        35        21        37     1      105.686974      317.730768    ;  uncertainty theta = 0.001105, k = 0.008156
        36        21        37     1      105.686974      317.730768    ;  uncertainty theta = 0.001105, k = 0.008156

[ dihedrals ] ; propers for gromacs 4.5 or higher, use funct 9
;       ai        aj        ak        al funct           phase               k        pn
         1         2         4         7     9        0.000000       -0.016610         1    ;  uncertainty k = 0.306031
         1         2         4         7     9      180.000000        6.174814         2    ;  uncertainty k = 0.588670
         1         2         4         7     9        0.000000        0.461601         3    ;  uncertainty k = 0.240293
         1         2         4         7     9      180.000000        1.515879         4    ;  uncertainty k = 0.180389
         1         2         4         8     9        0.000000        0.236434         1    ;  uncertainty k = 0.755061
         1         2         4         8     9      180.000000        5.722410         2    ;  uncertainty k = 0.993754
         1         2         4         8     9        0.000000        1.033720         3    ;  uncertainty k = 0.214578
         1         2         4         8     9      180.000000        1.520447         4    ;  uncertainty k = 0.174979
         1         2         5        11     9        0.000000        2.829002         1    ;  uncertainty k = 2.608654
         1         2         5        11     9      180.000000        4.434406         2    ;  uncertainty k = 2.126773
         1         2         5        11     9        0.000000        2.305420         3    ;  uncertainty k = 0.580469
         1         2         5        11     9      180.000000        0.130697         4    ;  uncertainty k = 0.387211
         1         3         6         7     9        0.000000       -0.040289         1    ;  uncertainty k = 0.197888
         1         3         6         7     9      180.000000       12.310432         2    ;  uncertainty k = 0.400387
         1         3         6         7     9        0.000000       -0.846630         3    ;  uncertainty k = 0.595345
         1         3         6         7     9      180.000000        0.824381         4    ;  uncertainty k = 0.178412
         1         3         6        24     9        0.000000        0.107747         1    ;  uncertainty k = 0.363645
         1         3         6        24     9      180.000000        7.022030         2    ;  uncertainty k = 0.434988
         1         3         6        24     9        0.000000        1.447642         3    ;  uncertainty k = 0.269410
         1         3         6        24     9      180.000000        1.711865         4    ;  uncertainty k = 0.101552
         2         1         3         6     9        0.000000        0.042146         1    ;  uncertainty k = 0.223590
         2         1         3         6     9      180.000000       11.064190         2    ;  uncertainty k = 0.337405
         2         1         3         6     9        0.000000        0.402753         3    ;  uncertainty k = 0.408460
         2         1         3         6     9      180.000000        1.307628         4    ;  uncertainty k = 0.274877
         2         1         3        23     9        0.000000        0.170733         1    ;  uncertainty k = 0.443256
         2         1         3        23     9      180.000000        7.773737         2    ;  uncertainty k = 0.632434
         2         1         3        23     9        0.000000        1.396544         3    ;  uncertainty k = 0.263656
         2         1         3        23     9      180.000000        1.500601         4    ;  uncertainty k = 0.209340
         2         4         7         6     9        0.000000       -0.058915         1    ;  uncertainty k = 0.226291
         2         4         7         6     9      180.000000       11.649690         2    ;  uncertainty k = 0.370143
         2         4         7         6     9        0.000000       -0.507386         3    ;  uncertainty k = 0.458396
         2         4         7         6     9      180.000000        0.967957         4    ;  uncertainty k = 0.272219
         2         4         7        25     9        0.000000        0.041743         1    ;  uncertainty k = 0.518161
         2         4         7        25     9      180.000000        7.357189         2    ;  uncertainty k = 0.765214
         2         4         7        25     9        0.000000        1.289437         3    ;  uncertainty k = 0.290584
         2         4         7        25     9      180.000000        1.389448         4    ;  uncertainty k = 0.102854
         2         4         8         9     9        0.000000       -1.737967         1    ;  uncertainty k = 0.889329
         2         4         8         9     9      180.000000        2.364602         2    ;  uncertainty k = 0.914437
         2         4         8         9     9        0.000000       -0.249534         3    ;  uncertainty k = 0.500502
         2         4         8         9     9      180.000000        0.573963         4    ;  uncertainty k = 0.279658
         2         4         8        10     9        0.000000       -2.239853         1    ;  uncertainty k = 1.379047
         2         4         8        10     9      180.000000        5.305327         2    ;  uncertainty k = 0.664939
         2         4         8        10     9        0.000000        0.290787         3    ;  uncertainty k = 0.254313
         2         4         8        10     9      180.000000       -0.137174         4    ;  uncertainty k = 0.209548
         2         5        11         9     9        0.000000       -0.713584         1    ;  uncertainty k = 0.384685
         2         5        11         9     9      180.000000       23.338344         2    ;  uncertainty k = 0.164063
         2         5        11         9     9        0.000000        1.867545         3    ;  uncertainty k = 0.166240
         2         5        11         9     9      180.000000        1.527016         4    ;  uncertainty k = 0.453771
         2         5        11        12     9        0.000000       -0.299911         1    ;  uncertainty k = 0.545799
         2         5        11        12     9      180.000000       18.619298         2    ;  uncertainty k = 0.521271
         2         5        11        12     9        0.000000        2.783041         3    ;  uncertainty k = 0.435042
         2         5        11        12     9      180.000000        1.398679         4    ;  uncertainty k = 0.421123
         3         1         2         4     9        0.000000       -0.239182         1    ;  uncertainty k = 0.932766
         3         1         2         4     9      180.000000        5.085623         2    ;  uncertainty k = 1.015414
         3         1         2         4     9        0.000000        0.242061         3    ;  uncertainty k = 0.162879
         3         1         2         4     9      180.000000        1.034937         4    ;  uncertainty k = 0.338988
         3         1         2         5     9        0.000000       -0.046022         1    ;  uncertainty k = 0.265635
         3         1         2         5     9      180.000000        7.455501         2    ;  uncertainty k = 0.353910
         3         1         2         5     9        0.000000        0.946529         3    ;  uncertainty k = 0.142906
         3         1         2         5     9      180.000000        1.369973         4    ;  uncertainty k = 0.284974
         3         6         7         4     9        0.000000       -0.087027         1    ;  uncertainty k = 0.264160
         3         6         7         4     9      180.000000       13.902469         2    ;  uncertainty k = 0.355636
         3         6         7         4     9        0.000000       -0.566277         3    ;  uncertainty k = 0.566761
         3         6         7         4     9      180.000000        0.887627         4    ;  uncertainty k = 0.376426
         3         6         7        25     9        0.000000        0.095703         1    ;  uncertainty k = 0.033484
         3         6         7        25     9      180.000000        8.313529         2    ;  uncertainty k = 0.404788
         3         6         7        25     9        0.000000        1.411958         3    ;  uncertainty k = 0.287894
         3         6         7        25     9      180.000000        1.782320         4    ;  uncertainty k = 0.150951
         4         2         1        22     9        0.000000       -0.077745         1    ;  uncertainty k = 0.688398
         4         2         1        22     9      180.000000        5.744828         2    ;  uncertainty k = 0.378374
         4         2         1        22     9        0.000000        1.168002         3    ;  uncertainty k = 0.210168
         4         2         1        22     9      180.000000        1.180683         4    ;  uncertainty k = 0.244231
         4         2         5        11     9        0.000000        1.385337         1    ;  uncertainty k = 2.076156
         4         2         5        11     9      180.000000        3.557434         2    ;  uncertainty k = 1.886822
         4         2         5        11     9        0.000000        1.589752         3    ;  uncertainty k = 0.656917
         4         2         5        11     9      180.000000        0.330436         4    ;  uncertainty k = 0.557750
         4         7         6        24     9        0.000000        0.215160         1    ;  uncertainty k = 0.280496
         4         7         6        24     9      180.000000        9.033577         2    ;  uncertainty k = 0.211347
         4         7         6        24     9        0.000000        1.513602         3    ;  uncertainty k = 0.270181
         4         7         6        24     9      180.000000        1.791492         4    ;  uncertainty k = 0.116748
         4         8         9        11     9        0.000000        0.180541         1    ;  uncertainty k = 1.585886
         4         8         9        11     9      180.000000        3.949611         2    ;  uncertainty k = 1.189941
         4         8         9        11     9        0.000000        0.592044         3    ;  uncertainty k = 0.214445
         4         8         9        11     9      180.000000        0.494695         4    ;  uncertainty k = 0.347017
         4         8         9        26     9        0.000000        2.503368         1    ;  uncertainty k = 2.326118
         4         8         9        26     9      180.000000        5.193417         2    ;  uncertainty k = 0.952121
         4         8         9        26     9        0.000000        1.773225         3    ;  uncertainty k = 0.073048
         4         8         9        26     9      180.000000        0.006881         4    ;  uncertainty k = 0.098915
         5         2         1        22     9        0.000000       -0.134458         1    ;  uncertainty k = 0.426871
         5         2         1        22     9      180.000000        9.369552         2    ;  uncertainty k = 0.304276
         5         2         1        22     9        0.000000        1.042900         3    ;  uncertainty k = 0.424766
         5         2         1        22     9      180.000000        1.176134         4    ;  uncertainty k = 0.231565
         5         2         4         7     9        0.000000        0.119593         1    ;  uncertainty k = 0.435614
         5         2         4         7     9      180.000000        7.951781         2    ;  uncertainty k = 0.474614
         5         2         4         7     9        0.000000        0.813776         3    ;  uncertainty k = 0.300061
         5         2         4         7     9      180.000000        1.546644         4    ;  uncertainty k = 0.127904
         5         2         4         8     9        0.000000       -0.447582         1    ;  uncertainty k = 0.663641
         5         2         4         8     9      180.000000        7.044918         2    ;  uncertainty k = 0.979723
         5         2         4         8     9        0.000000        1.013711         3    ;  uncertainty k = 0.439334
         5         2         4         8     9      180.000000        1.606512         4    ;  uncertainty k = 0.215962
         5        11         9         8     9        0.000000        0.118599         1    ;  uncertainty k = 0.858906
         5        11         9         8     9      180.000000        7.379894         2    ;  uncertainty k = 0.733693
         5        11         9         8     9        0.000000        0.617712         3    ;  uncertainty k = 0.675394
         5        11         9         8     9      180.000000        0.381870         4    ;  uncertainty k = 0.226071
         5        11         9        26     9        0.000000        5.694346         1    ;  uncertainty k = 1.583335
         5        11         9        26     9      180.000000       11.281030         2    ;  uncertainty k = 0.709564
         5        11         9        26     9        0.000000        1.226988         3    ;  uncertainty k = 0.631591
         5        11         9        26     9      180.000000       -0.278566         4    ;  uncertainty k = 0.179288
         5        11        12        13     9        0.000000        0.844391         1    ;  uncertainty k = 0.749019
         5        11        12        13     9      180.000000        4.107702         2    ;  uncertainty k = 0.310535
         5        11        12        13     9        0.000000        0.573363         3    ;  uncertainty k = 0.185893
         5        11        12        13     9      180.000000       -0.131789         4    ;  uncertainty k = 0.167094
         5        11        12        17     9        0.000000        0.844391         1    ;  uncertainty k = 0.749019
         5        11        12        17     9      180.000000        4.107702         2    ;  uncertainty k = 0.310535
         5        11        12        17     9        0.000000        0.573363         3    ;  uncertainty k = 0.185893
         5        11        12        17     9      180.000000       -0.131789         4    ;  uncertainty k = 0.167094
         6         3         1        22     9        0.000000        0.027764         1    ;  uncertainty k = 0.407845
         6         3         1        22     9      180.000000       11.434690         2    ;  uncertainty k = 0.427042
         6         3         1        22     9        0.000000        1.561115         3    ;  uncertainty k = 0.360629
         6         3         1        22     9      180.000000        1.727287         4    ;  uncertainty k = 0.226033
         6         7         4         8     9        0.000000       -0.035323         1    ;  uncertainty k = 0.325697
         6         7         4         8     9      180.000000        9.406497         2    ;  uncertainty k = 0.813066
         6         7         4         8     9        0.000000        1.183342         3    ;  uncertainty k = 0.195778
         6         7         4         8     9      180.000000        1.817552         4    ;  uncertainty k = 0.325323
         7         4         8         9     9        0.000000       -0.091704         1    ;  uncertainty k = 0.974012
         7         4         8         9     9      180.000000        2.849510         2    ;  uncertainty k = 0.536551
         7         4         8         9     9        0.000000        0.600662         3    ;  uncertainty k = 0.375271
         7         4         8         9     9      180.000000        0.552133         4    ;  uncertainty k = 0.240062
         7         4         8        10     9        0.000000       -1.926049         1    ;  uncertainty k = 0.640148
         7         4         8        10     9      180.000000        5.188425         2    ;  uncertainty k = 0.693583
         7         4         8        10     9        0.000000        0.560822         3    ;  uncertainty k = 0.276019
         7         4         8        10     9      180.000000       -0.161992         4    ;  uncertainty k = 0.104451
         7         6         3        23     9        0.000000        0.051329         1    ;  uncertainty k = 0.361063
         7         6         3        23     9      180.000000        6.962978         2    ;  uncertainty k = 0.235940
         7         6         3        23     9        0.000000        1.471916         3    ;  uncertainty k = 0.218562
         7         6         3        23     9      180.000000        1.623757         4    ;  uncertainty k = 0.128453
         8         4         7        25     9        0.000000       -0.463114         1    ;  uncertainty k = 0.660225
         8         4         7        25     9      180.000000        7.984881         2    ;  uncertainty k = 0.292058
         8         4         7        25     9        0.000000        0.999461         3    ;  uncertainty k = 0.248425
         8         4         7        25     9      180.000000        1.201802         4    ;  uncertainty k = 0.140448
         8         9        11        12     9        0.000000        1.172966         1    ;  uncertainty k = 0.774170
         8         9        11        12     9      180.000000        5.562523         2    ;  uncertainty k = 0.783127
         8         9        11        12     9        0.000000        0.545596         3    ;  uncertainty k = 0.338388
         8         9        11        12     9      180.000000       -0.094604         4    ;  uncertainty k = 0.330833
         9        11        12        13     9        0.000000       -0.045292         1    ;  uncertainty k = 0.372511
         9        11        12        13     9      180.000000        4.177511         2    ;  uncertainty k = 0.397164
         9        11        12        13     9        0.000000        0.560756         3    ;  uncertainty k = 0.116418
         9        11        12        13     9      180.000000       -0.125168         4    ;  uncertainty k = 0.031417
         9        11        12        17     9        0.000000       -0.045292         1    ;  uncertainty k = 0.372511
         9        11        12        17     9      180.000000        4.177511         2    ;  uncertainty k = 0.397164
         9        11        12        17     9        0.000000        0.560756         3    ;  uncertainty k = 0.116418
         9        11        12        17     9      180.000000       -0.125168         4    ;  uncertainty k = 0.031417
        10         8         9        11     9        0.000000        0.172178         1    ;  uncertainty k = 1.302658
        10         8         9        11     9      180.000000       11.096905         2    ;  uncertainty k = 0.479180
        10         8         9        11     9        0.000000        1.304891         3    ;  uncertainty k = 0.366683
        10         8         9        11     9      180.000000       -0.488227         4    ;  uncertainty k = 0.412200
        10         8         9        26     9        0.000000        1.573372         1    ;  uncertainty k = 2.540068
        10         8         9        26     9      180.000000        9.230840         2    ;  uncertainty k = 0.600844
        10         8         9        26     9        0.000000        0.738625         3    ;  uncertainty k = 0.506554
        10         8         9        26     9      180.000000       -0.112581         4    ;  uncertainty k = 0.057624
        11        12        13        14     9        0.000000        0.098700         1    ;  uncertainty k = 0.165323
        11        12        13        14     9      180.000000        9.098963         2    ;  uncertainty k = 0.626922
        11        12        13        14     9        0.000000        1.335996         3    ;  uncertainty k = 0.274684
        11        12        13        14     9      180.000000        1.692391         4    ;  uncertainty k = 0.193436
        11        12        13        27     9        0.000000       -0.292098         1    ;  uncertainty k = 0.189381
        11        12        13        27     9      180.000000        7.237370         2    ;  uncertainty k = 0.264830
        11        12        13        27     9        0.000000        0.706541         3    ;  uncertainty k = 0.161891
        11        12        13        27     9      180.000000        1.039828         4    ;  uncertainty k = 0.166789
        11        12        17        16     9        0.000000        0.098700         1    ;  uncertainty k = 0.165323
        11        12        17        16     9      180.000000        9.098963         2    ;  uncertainty k = 0.626922
        11        12        17        16     9        0.000000        1.335996         3    ;  uncertainty k = 0.274684
        11        12        17        16     9      180.000000        1.692391         4    ;  uncertainty k = 0.193436
        11        12        17        30     9        0.000000       -0.292098         1    ;  uncertainty k = 0.189381
        11        12        17        30     9      180.000000        7.237371         2    ;  uncertainty k = 0.264829
        11        12        17        30     9        0.000000        0.706541         3    ;  uncertainty k = 0.161891
        11        12        17        30     9      180.000000        1.039828         4    ;  uncertainty k = 0.166788
        12        11         9        26     9        0.000000        0.937607         1    ;  uncertainty k = 0.186878
        12        11         9        26     9      180.000000        4.821891         2    ;  uncertainty k = 0.869482
        12        11         9        26     9        0.000000        1.376026         3    ;  uncertainty k = 0.267524
        12        11         9        26     9      180.000000       -0.082455         4    ;  uncertainty k = 0.260339
        12        13        14        15     9        0.000000       -0.133648         1    ;  uncertainty k = 0.232408
        12        13        14        15     9      180.000000       12.534119         2    ;  uncertainty k = 0.264132
        12        13        14        15     9        0.000000       -0.659583         3    ;  uncertainty k = 0.473408
        12        13        14        15     9      180.000000        0.896721         4    ;  uncertainty k = 0.301178
        12        13        14        28     9        0.000000        0.104452         1    ;  uncertainty k = 0.123159
        12        13        14        28     9      180.000000        8.153177         2    ;  uncertainty k = 0.285565
        12        13        14        28     9        0.000000        1.386423         3    ;  uncertainty k = 0.199866
        12        13        14        28     9      180.000000        1.841381         4    ;  uncertainty k = 0.178837
        12        17        16        15     9        0.000000       -0.133648         1    ;  uncertainty k = 0.232408
        12        17        16        15     9      180.000000       12.534119         2    ;  uncertainty k = 0.264132
        12        17        16        15     9        0.000000       -0.659583         3    ;  uncertainty k = 0.473408
        12        17        16        15     9      180.000000        0.896721         4    ;  uncertainty k = 0.301178
        12        17        16        29     9        0.000000        0.104451         1    ;  uncertainty k = 0.123158
        12        17        16        29     9      180.000000        8.153176         2    ;  uncertainty k = 0.285563
        12        17        16        29     9        0.000000        1.386423         3    ;  uncertainty k = 0.199867
        12        17        16        29     9      180.000000        1.841381         4    ;  uncertainty k = 0.178837
        13        12        17        16     9        0.000000        0.055276         1    ;  uncertainty k = 0.149139
        13        12        17        16     9      180.000000       10.940930         2    ;  uncertainty k = 0.285081
        13        12        17        16     9        0.000000       -0.595107         3    ;  uncertainty k = 0.165960
        13        12        17        16     9      180.000000        0.949928         4    ;  uncertainty k = 0.261174
        13        12        17        30     9        0.000000        0.065424         1    ;  uncertainty k = 0.154406
        13        12        17        30     9      180.000000        6.880289         2    ;  uncertainty k = 0.569493
        13        12        17        30     9        0.000000        1.307045         3    ;  uncertainty k = 0.238387
        13        12        17        30     9      180.000000        1.580984         4    ;  uncertainty k = 0.264455
        13        14        15        16     9        0.000000       -0.145838         1    ;  uncertainty k = 0.090645
        13        14        15        16     9      180.000000       11.057201         2    ;  uncertainty k = 0.371394
        13        14        15        16     9        0.000000       -0.343350         3    ;  uncertainty k = 0.267016
        13        14        15        16     9      180.000000        0.889288         4    ;  uncertainty k = 0.302073
        13        14        15        18     9        0.000000        0.213012         1    ;  uncertainty k = 0.165870
        13        14        15        18     9      180.000000        8.409903         2    ;  uncertainty k = 0.512358
        13        14        15        18     9        0.000000        1.391291         3    ;  uncertainty k = 0.345930
        13        14        15        18     9      180.000000        1.926967         4    ;  uncertainty k = 0.263557
        14        13        12        17     9        0.000000        0.055276         1    ;  uncertainty k = 0.149139
        14        13        12        17     9      180.000000       10.940930         2    ;  uncertainty k = 0.285081
        14        13        12        17     9        0.000000       -0.595107         3    ;  uncertainty k = 0.165960
        14        13        12        17     9      180.000000        0.949928         4    ;  uncertainty k = 0.261174
        14        15        16        17     9        0.000000       -0.145838         1    ;  uncertainty k = 0.090645
        14        15        16        17     9      180.000000       11.057201         2    ;  uncertainty k = 0.371394
        14        15        16        17     9        0.000000       -0.343350         3    ;  uncertainty k = 0.267016
        14        15        16        17     9      180.000000        0.889288         4    ;  uncertainty k = 0.302073
        14        15        16        29     9        0.000000        0.099411         1    ;  uncertainty k = 0.169149
        14        15        16        29     9      180.000000        7.277332         2    ;  uncertainty k = 0.487638
        14        15        16        29     9        0.000000        1.399667         3    ;  uncertainty k = 0.329314
        14        15        16        29     9      180.000000        1.678522         4    ;  uncertainty k = 0.191976
        14        15        18        19     9        0.000000       -1.219996         1    ;  uncertainty k = 0.274824
        14        15        18        19     9      180.000000        3.868486         2    ;  uncertainty k = 0.116802
        14        15        18        19     9        0.000000        0.651180         3    ;  uncertainty k = 0.135170
        14        15        18        19     9      180.000000        0.512033         4    ;  uncertainty k = 0.043839
        14        15        18        20     9        0.000000       -0.409205         1    ;  uncertainty k = 0.095576
        14        15        18        20     9      180.000000        2.717206         2    ;  uncertainty k = 0.115248
        14        15        18        20     9        0.000000        0.444819         3    ;  uncertainty k = 0.108147
        14        15        18        20     9      180.000000        0.287592         4    ;  uncertainty k = 0.049350
        14        15        18        21     9        0.000000       -0.409205         1    ;  uncertainty k = 0.095576
        14        15        18        21     9      180.000000        2.717206         2    ;  uncertainty k = 0.115248
        14        15        18        21     9        0.000000        0.444819         3    ;  uncertainty k = 0.108147
        14        15        18        21     9      180.000000        0.287592         4    ;  uncertainty k = 0.049350
        15        14        13        27     9        0.000000       -0.030725         1    ;  uncertainty k = 0.185677
        15        14        13        27     9      180.000000        7.531826         2    ;  uncertainty k = 0.200235
        15        14        13        27     9        0.000000        1.277586         3    ;  uncertainty k = 0.254720
        15        14        13        27     9      180.000000        1.862935         4    ;  uncertainty k = 0.207129
        15        16        17        30     9        0.000000       -0.030722         1    ;  uncertainty k = 0.185677
        15        16        17        30     9      180.000000        7.531827         2    ;  uncertainty k = 0.200235
        15        16        17        30     9        0.000000        1.277587         3    ;  uncertainty k = 0.254720
        15        16        17        30     9      180.000000        1.862935         4    ;  uncertainty k = 0.207130
        15        18        19        31     9        0.000000       14.991890         1    ;  uncertainty k = 0.177214
        15        18        19        31     9      180.000000       -3.682074         2    ;  uncertainty k = 0.239405
        15        18        19        31     9        0.000000        0.980423         3    ;  uncertainty k = 0.057177
        15        18        19        31     9      180.000000        0.176294         4    ;  uncertainty k = 0.044986
        15        18        20        32     9        0.000000        0.351770         1    ;  uncertainty k = 0.319275
        15        18        20        32     9      180.000000       -0.223483         2    ;  uncertainty k = 0.173254
        15        18        20        32     9        0.000000        0.715961         3    ;  uncertainty k = 0.098047
        15        18        20        32     9      180.000000       -0.000790         4    ;  uncertainty k = 0.041032
        15        18        20        33     9        0.000000        0.351770         1    ;  uncertainty k = 0.319275
        15        18        20        33     9      180.000000       -0.223483         2    ;  uncertainty k = 0.173254
        15        18        20        33     9        0.000000        0.715961         3    ;  uncertainty k = 0.098047
        15        18        20        33     9      180.000000       -0.000790         4    ;  uncertainty k = 0.041032
        15        18        20        34     9        0.000000        0.351770         1    ;  uncertainty k = 0.319275
        15        18        20        34     9      180.000000       -0.223483         2    ;  uncertainty k = 0.173254
        15        18        20        34     9        0.000000        0.715961         3    ;  uncertainty k = 0.098047
        15        18        20        34     9      180.000000       -0.000790         4    ;  uncertainty k = 0.041032
        15        18        21        35     9        0.000000        0.351770         1    ;  uncertainty k = 0.319275
        15        18        21        35     9      180.000000       -0.223483         2    ;  uncertainty k = 0.173254
        15        18        21        35     9        0.000000        0.715961         3    ;  uncertainty k = 0.098047
        15        18        21        35     9      180.000000       -0.000790         4    ;  uncertainty k = 0.041032
        15        18        21        36     9        0.000000        0.351770         1    ;  uncertainty k = 0.319275
        15        18        21        36     9      180.000000       -0.223483         2    ;  uncertainty k = 0.173254
        15        18        21        36     9        0.000000        0.715961         3    ;  uncertainty k = 0.098047
        15        18        21        36     9      180.000000       -0.000790         4    ;  uncertainty k = 0.041032
        15        18        21        37     9        0.000000        0.351770         1    ;  uncertainty k = 0.319275
        15        18        21        37     9      180.000000       -0.223483         2    ;  uncertainty k = 0.173254
        15        18        21        37     9        0.000000        0.715961         3    ;  uncertainty k = 0.098047
        15        18        21        37     9      180.000000       -0.000790         4    ;  uncertainty k = 0.041032
        16        15        14        28     9        0.000000        0.099411         1    ;  uncertainty k = 0.169149
        16        15        14        28     9      180.000000        7.277331         2    ;  uncertainty k = 0.487638
        16        15        14        28     9        0.000000        1.399666         3    ;  uncertainty k = 0.329314
        16        15        14        28     9      180.000000        1.678522         4    ;  uncertainty k = 0.191976
        16        15        18        19     9        0.000000       -1.219996         1    ;  uncertainty k = 0.274824
        16        15        18        19     9      180.000000        3.868486         2    ;  uncertainty k = 0.116802
        16        15        18        19     9        0.000000        0.651180         3    ;  uncertainty k = 0.135170
        16        15        18        19     9      180.000000        0.512033         4    ;  uncertainty k = 0.043839
        16        15        18        20     9        0.000000       -0.409205         1    ;  uncertainty k = 0.095576
        16        15        18        20     9      180.000000        2.717206         2    ;  uncertainty k = 0.115248
        16        15        18        20     9        0.000000        0.444819         3    ;  uncertainty k = 0.108147
        16        15        18        20     9      180.000000        0.287592         4    ;  uncertainty k = 0.049350
        16        15        18        21     9        0.000000       -0.409205         1    ;  uncertainty k = 0.095576
        16        15        18        21     9      180.000000        2.717206         2    ;  uncertainty k = 0.115248
        16        15        18        21     9        0.000000        0.444819         3    ;  uncertainty k = 0.108147
        16        15        18        21     9      180.000000        0.287592         4    ;  uncertainty k = 0.049350
        17        12        13        27     9        0.000000        0.065425         1    ;  uncertainty k = 0.154407
        17        12        13        27     9      180.000000        6.880288         2    ;  uncertainty k = 0.569492
        17        12        13        27     9        0.000000        1.307045         3    ;  uncertainty k = 0.238388
        17        12        13        27     9      180.000000        1.580984         4    ;  uncertainty k = 0.264455
        17        16        15        18     9        0.000000        0.213012         1    ;  uncertainty k = 0.165870
        17        16        15        18     9      180.000000        8.409903         2    ;  uncertainty k = 0.512358
        17        16        15        18     9        0.000000        1.391291         3    ;  uncertainty k = 0.345930
        17        16        15        18     9      180.000000        1.926967         4    ;  uncertainty k = 0.263557
        18        15        14        28     9        0.000000       -0.074274         1    ;  uncertainty k = 0.468916
        18        15        14        28     9      180.000000        7.722559         2    ;  uncertainty k = 0.204459
        18        15        14        28     9        0.000000        0.599783         3    ;  uncertainty k = 0.298353
        18        15        14        28     9      180.000000        0.966283         4    ;  uncertainty k = 0.105372
        18        15        16        29     9        0.000000       -0.074274         1    ;  uncertainty k = 0.468916
        18        15        16        29     9      180.000000        7.722559         2    ;  uncertainty k = 0.204459
        18        15        16        29     9        0.000000        0.599783         3    ;  uncertainty k = 0.298353
        18        15        16        29     9      180.000000        0.966283         4    ;  uncertainty k = 0.105372
        19        18        20        32     9        0.000000       -1.961844         1    ;  uncertainty k = 0.551181
        19        18        20        32     9      180.000000       -0.960261         2    ;  uncertainty k = 0.282481
        19        18        20        32     9        0.000000        0.831230         3    ;  uncertainty k = 0.087293
        19        18        20        32     9      180.000000       -0.214593         4    ;  uncertainty k = 0.050560
        19        18        20        33     9        0.000000       -1.961844         1    ;  uncertainty k = 0.551181
        19        18        20        33     9      180.000000       -0.960261         2    ;  uncertainty k = 0.282481
        19        18        20        33     9        0.000000        0.831230         3    ;  uncertainty k = 0.087293
        19        18        20        33     9      180.000000       -0.214593         4    ;  uncertainty k = 0.050560
        19        18        20        34     9        0.000000       -1.961844         1    ;  uncertainty k = 0.551181
        19        18        20        34     9      180.000000       -0.960261         2    ;  uncertainty k = 0.282481
        19        18        20        34     9        0.000000        0.831230         3    ;  uncertainty k = 0.087293
        19        18        20        34     9      180.000000       -0.214593         4    ;  uncertainty k = 0.050560
        19        18        21        35     9        0.000000       -1.961844         1    ;  uncertainty k = 0.551181
        19        18        21        35     9      180.000000       -0.960261         2    ;  uncertainty k = 0.282481
        19        18        21        35     9        0.000000        0.831230         3    ;  uncertainty k = 0.087293
        19        18        21        35     9      180.000000       -0.214593         4    ;  uncertainty k = 0.050560
        19        18        21        36     9        0.000000       -1.961844         1    ;  uncertainty k = 0.551181
        19        18        21        36     9      180.000000       -0.960261         2    ;  uncertainty k = 0.282481
        19        18        21        36     9        0.000000        0.831230         3    ;  uncertainty k = 0.087293
        19        18        21        36     9      180.000000       -0.214593         4    ;  uncertainty k = 0.050560
        19        18        21        37     9        0.000000       -1.961844         1    ;  uncertainty k = 0.551181
        19        18        21        37     9      180.000000       -0.960261         2    ;  uncertainty k = 0.282481
        19        18        21        37     9        0.000000        0.831230         3    ;  uncertainty k = 0.087293
        19        18        21        37     9      180.000000       -0.214593         4    ;  uncertainty k = 0.050560
        20        18        19        31     9        0.000000       12.662224         1    ;  uncertainty k = 0.317843
        20        18        19        31     9      180.000000       -1.675061         2    ;  uncertainty k = 0.239562
        20        18        19        31     9        0.000000        1.060161         3    ;  uncertainty k = 0.149525
        20        18        19        31     9      180.000000        0.360746         4    ;  uncertainty k = 0.102772
        20        18        21        35     9        0.000000       -1.125963         1    ;  uncertainty k = 0.230765
        20        18        21        35     9      180.000000       -0.047878         2    ;  uncertainty k = 0.090864
        20        18        21        35     9        0.000000        0.742644         3    ;  uncertainty k = 0.072669
        20        18        21        35     9      180.000000       -0.033077         4    ;  uncertainty k = 0.054936
        20        18        21        36     9        0.000000       -1.125963         1    ;  uncertainty k = 0.230765
        20        18        21        36     9      180.000000       -0.047878         2    ;  uncertainty k = 0.090864
        20        18        21        36     9        0.000000        0.742644         3    ;  uncertainty k = 0.072669
        20        18        21        36     9      180.000000       -0.033077         4    ;  uncertainty k = 0.054936
        20        18        21        37     9        0.000000       -1.125963         1    ;  uncertainty k = 0.230765
        20        18        21        37     9      180.000000       -0.047878         2    ;  uncertainty k = 0.090864
        20        18        21        37     9        0.000000        0.742644         3    ;  uncertainty k = 0.072669
        20        18        21        37     9      180.000000       -0.033077         4    ;  uncertainty k = 0.054936
        21        18        19        31     9        0.000000       12.662224         1    ;  uncertainty k = 0.317843
        21        18        19        31     9      180.000000       -1.675061         2    ;  uncertainty k = 0.239562
        21        18        19        31     9        0.000000        1.060161         3    ;  uncertainty k = 0.149525
        21        18        19        31     9      180.000000        0.360746         4    ;  uncertainty k = 0.102772
        21        18        20        32     9        0.000000       -1.125963         1    ;  uncertainty k = 0.230765
        21        18        20        32     9      180.000000       -0.047878         2    ;  uncertainty k = 0.090864
        21        18        20        32     9        0.000000        0.742644         3    ;  uncertainty k = 0.072669
        21        18        20        32     9      180.000000       -0.033077         4    ;  uncertainty k = 0.054936
        21        18        20        33     9        0.000000       -1.125963         1    ;  uncertainty k = 0.230765
        21        18        20        33     9      180.000000       -0.047878         2    ;  uncertainty k = 0.090864
        21        18        20        33     9        0.000000        0.742644         3    ;  uncertainty k = 0.072669
        21        18        20        33     9      180.000000       -0.033077         4    ;  uncertainty k = 0.054936
        21        18        20        34     9        0.000000       -1.125963         1    ;  uncertainty k = 0.230765
        21        18        20        34     9      180.000000       -0.047878         2    ;  uncertainty k = 0.090864
        21        18        20        34     9        0.000000        0.742644         3    ;  uncertainty k = 0.072669
        21        18        20        34     9      180.000000       -0.033077         4    ;  uncertainty k = 0.054936
        22         1         3        23     9        0.000000       -0.292890         1    ;  uncertainty k = 0.454826
        22         1         3        23     9      180.000000        8.968838         2    ;  uncertainty k = 0.475029
        22         1         3        23     9        0.000000        0.854449         3    ;  uncertainty k = 0.237159
        22         1         3        23     9      180.000000        1.170113         4    ;  uncertainty k = 0.364238
        23         3         6        24     9        0.000000       -0.065159         1    ;  uncertainty k = 0.275831
        23         3         6        24     9      180.000000        7.739243         2    ;  uncertainty k = 0.599964
        23         3         6        24     9        0.000000       -0.335938         3    ;  uncertainty k = 0.289996
        23         3         6        24     9      180.000000        0.083901         4    ;  uncertainty k = 0.176703
        24         6         7        25     9        0.000000       -0.154532         1    ;  uncertainty k = 0.142117
        24         6         7        25     9      180.000000        8.043292         2    ;  uncertainty k = 0.635718
        24         6         7        25     9        0.000000       -0.246322         3    ;  uncertainty k = 0.258226
        24         6         7        25     9      180.000000        0.171044         4    ;  uncertainty k = 0.166702
        27        13        14        28     9        0.000000       -0.117735         1    ;  uncertainty k = 0.210280
        27        13        14        28     9      180.000000        8.002242         2    ;  uncertainty k = 0.460743
        27        13        14        28     9        0.000000       -0.392489         3    ;  uncertainty k = 0.200264
        27        13        14        28     9      180.000000        0.296121         4    ;  uncertainty k = 0.231306
        29        16        17        30     9        0.000000       -0.117735         1    ;  uncertainty k = 0.210280
        29        16        17        30     9      180.000000        8.002243         2    ;  uncertainty k = 0.460743
        29        16        17        30     9        0.000000       -0.392489         3    ;  uncertainty k = 0.200264
        29        16        17        30     9      180.000000        0.296121         4    ;  uncertainty k = 0.231306

[ dihedrals ] ; impropers
;       ai        aj        ak        al funct           phase               k        pn
         1         2         3        22     4      180.000000       11.920467         2    ;  uncertainty k = 0.173603
         1         3        22         2     4      180.000000       11.920467         2    ;  uncertainty k = 0.173603
         1        22         2         3     4      180.000000       11.920467         2    ;  uncertainty k = 0.173603
         2         1         4         5     4      180.000000       21.716911         2    ;  uncertainty k = 0.091848
         2         4         5         1     4      180.000000       21.716911         2    ;  uncertainty k = 0.091848
         2         5         1         4     4      180.000000       21.716911         2    ;  uncertainty k = 0.091848
         3         1         6        23     4      180.000000        4.697085         2    ;  uncertainty k = 0.133275
         3         6        23         1     4      180.000000        4.697085         2    ;  uncertainty k = 0.133275
         3        23         1         6     4      180.000000        4.697085         2    ;  uncertainty k = 0.133275
         4         2         7         8     4      180.000000        5.611016         2    ;  uncertainty k = 0.206519
         4         7         8         2     4      180.000000        5.611016         2    ;  uncertainty k = 0.206519
         4         8         2         7     4      180.000000        5.611016         2    ;  uncertainty k = 0.206519
         6         3         7        24     4      180.000000        3.928523         2    ;  uncertainty k = 0.204239
         6         7        24         3     4      180.000000        3.928523         2    ;  uncertainty k = 0.204239
         6        24         3         7     4      180.000000        3.928523         2    ;  uncertainty k = 0.204239
         7         4         6        25     4      180.000000        5.419139         2    ;  uncertainty k = 0.108905
         7         6        25         4     4      180.000000        5.419139         2    ;  uncertainty k = 0.108905
         7        25         4         6     4      180.000000        5.419139         2    ;  uncertainty k = 0.108905
         8         4         9        10     4      180.000000       50.536971         2    ;  uncertainty k = 0.009437
         8         9        10         4     4      180.000000       50.536971         2    ;  uncertainty k = 0.009437
         8        10         4         9     4      180.000000       50.536971         2    ;  uncertainty k = 0.009437
         9         8        11        26     4      180.000000        0.685708         2    ;  uncertainty k = 0.528290
         9        11        26         8     4      180.000000        0.685708         2    ;  uncertainty k = 0.528290
         9        26         8        11     4      180.000000        0.685708         2    ;  uncertainty k = 0.528290
        11         5         9        12     4      180.000000       30.778721         2    ;  uncertainty k = 0.037944
        11         9        12         5     4      180.000000       30.778721         2    ;  uncertainty k = 0.037944
        11        12         5         9     4      180.000000       30.778721         2    ;  uncertainty k = 0.037944
        12        11        13        17     4      180.000000        8.898408         2    ;  uncertainty k = 0.244748
        12        13        17        11     4      180.000000        8.898408         2    ;  uncertainty k = 0.244748
        12        17        11        13     4      180.000000        8.898408         2    ;  uncertainty k = 0.244748
        13        12        14        27     4      180.000000        4.118158         2    ;  uncertainty k = 0.143895
        13        14        27        12     4      180.000000        4.118158         2    ;  uncertainty k = 0.143895
        13        27        12        14     4      180.000000        4.118158         2    ;  uncertainty k = 0.143895
        14        13        15        28     4      180.000000        3.498636         2    ;  uncertainty k = 0.120340
        14        15        28        13     4      180.000000        3.498636         2    ;  uncertainty k = 0.120340
        14        28        13        15     4      180.000000        3.498636         2    ;  uncertainty k = 0.120340
        15        14        16        18     4      180.000000       13.022908         2    ;  uncertainty k = 0.059644
        15        16        18        14     4      180.000000       13.022908         2    ;  uncertainty k = 0.059644
        15        18        14        16     4      180.000000       13.022908         2    ;  uncertainty k = 0.059644
        16        15        17        29     4      180.000000        3.498636         2    ;  uncertainty k = 0.120340
        16        17        29        15     4      180.000000        3.498636         2    ;  uncertainty k = 0.120340
        16        29        15        17     4      180.000000        3.498636         2    ;  uncertainty k = 0.120340
        17        12        16        30     4      180.000000        4.118156         2    ;  uncertainty k = 0.143895
        17        16        30        12     4      180.000000        4.118156         2    ;  uncertainty k = 0.143895
        17        30        12        16     4      180.000000        4.118156         2    ;  uncertainty k = 0.143895

[ pairs ]
;       ai        aj funct
         1         7     1
         1         8     1
         1        11     1
         1        24     1
         2         6     1
         2         9     1
         2        10     1
         2        12     1
         2        23     1
         2        25     1
         3         4     1
         3         5     1
         3        25     1
         4        11     1
         4        22     1
         4        24     1
         4        26     1
         5         7     1
         5         8     1
         5        13     1
         5        17     1
         5        22     1
         5        26     1
         6         8     1
         6        22     1
         7         9     1
         7        10     1
         7        23     1
         8        12     1
         8        25     1
         9        13     1
         9        17     1
        10        11     1
        10        26     1
        11        14     1
        11        16     1
        11        27     1
        11        30     1
        12        15     1
        12        26     1
        12        28     1
        12        29     1
        13        16     1
        13        18     1
        13        30     1
        14        17     1
        14        19     1
        14        20     1
        14        21     1
        14        29     1
        15        27     1
        15        30     1
        15        31     1
        15        32     1
        15        33     1
        15        34     1
        15        35     1
        15        36     1
        15        37     1
        16        19     1
        16        20     1
        16        21     1
        16        28     1
        17        18     1
        17        27     1
        18        28     1
        18        29     1
        19        32     1
        19        33     1
        19        34     1
        19        35     1
        19        36     1
        19        37     1
        20        31     1
        20        35     1
        20        36     1
        20        37     1
        21        31     1
        21        32     1
        21        33     1
        21        34     1
        22        23     1
        23        24     1
        24        25     1
        27        28     1
        29        30     1
