; ITP file created by ByteFF-joint-25, 2026-02-17 09:46:33.358487

[ atomtypes ]
;name           bonded.type        at.num        mass        charge   ptype           sigma         epsilon
 c0bf                                   6      0.0000       0.00000       A     3.31508e-01     4.13456e-01    ;  uncertainty sigma = 0.000019, epsilon = 0.001142
 c1bf                                   6      0.0000       0.00000       A     3.31516e-01     4.12735e-01    ;  uncertainty sigma = 0.000018, epsilon = 0.001034
 c2bf                                   6      0.0000       0.00000       A     3.31531e-01     4.13320e-01    ;  uncertainty sigma = 0.000005, epsilon = 0.000741
 c3bf                                   6      0.0000       0.00000       A     3.31569e-01     4.13993e-01    ;  uncertainty sigma = 0.000018, epsilon = 0.000697
 n4bf                                   7      0.0000       0.00000       A     3.38458e-01     3.94295e-01    ;  uncertainty sigma = 0.000024, epsilon = 0.002051
 c5bf                                   6      0.0000       0.00000       A     3.31526e-01     4.13203e-01    ;  uncertainty sigma = 0.000004, epsilon = 0.000789
 c6bf                                   6      0.0000       0.00000       A     3.31509e-01     4.13322e-01    ;  uncertainty sigma = 0.000007, epsilon = 0.000778
 c7bf                                   6      0.0000       0.00000       A     3.31533e-01     4.13473e-01    ;  uncertainty sigma = 0.000009, epsilon = 0.001125
 n8bf                                   7      0.0000       0.00000       A     3.26867e-01     4.92512e-01    ;  uncertainty sigma = 0.000088, epsilon = 0.003430
 o9bf                                   8      0.0000       0.00000       A     3.04814e-01     6.11899e-01    ;  uncertainty sigma = 0.000014, epsilon = 0.001624
 c10bf                                  6      0.0000       0.00000       A     3.31512e-01     4.12870e-01    ;  uncertainty sigma = 0.000015, epsilon = 0.001165
 c11bf                                  6      0.0000       0.00000       A     3.31501e-01     4.12880e-01    ;  uncertainty sigma = 0.000017, epsilon = 0.001089
 c12bf                                  6      0.0000       0.00000       A     3.31519e-01     4.13337e-01    ;  uncertainty sigma = 0.000004, epsilon = 0.000604
 c13bf                                  6      0.0000       0.00000       A     3.31522e-01     4.13196e-01    ;  uncertainty sigma = 0.000004, epsilon = 0.000447
 c14bf                                  6      0.0000       0.00000       A     3.31544e-01     4.13202e-01    ;  uncertainty sigma = 0.000004, epsilon = 0.001200
 c15bf                                  6      0.0000       0.00000       A     3.31522e-01     4.13196e-01    ;  uncertainty sigma = 0.000004, epsilon = 0.000447
 c16bf                                  6      0.0000       0.00000       A     3.31519e-01     4.13337e-01    ;  uncertainty sigma = 0.000004, epsilon = 0.000604
 c17bf                                  6      0.0000       0.00000       A     3.39755e-01     4.50272e-01    ;  uncertainty sigma = 0.000025, epsilon = 0.001042
 o18bf                                  8      0.0000       0.00000       A     3.24292e-01     3.89709e-01    ;  uncertainty sigma = 0.000031, epsilon = 0.001714
 c19bf                                  6      0.0000       0.00000       A     3.39763e-01     4.50805e-01    ;  uncertainty sigma = 0.000004, epsilon = 0.000470
 c20bf                                  6      0.0000       0.00000       A     3.39763e-01     4.50805e-01    ;  uncertainty sigma = 0.000004, epsilon = 0.000470
 o21bf                                  8      0.0000       0.00000       A     3.15637e-01     3.03926e-01    ;  uncertainty sigma = 0.000005, epsilon = 0.000718
 c22bf                                  6      0.0000       0.00000       A     3.39773e-01     4.51011e-01    ;  uncertainty sigma = 0.000007, epsilon = 0.000565
 h23bf                                  1      0.0000       0.00000       A     2.62568e-01     6.69220e-02    ;  uncertainty sigma = 0.000013, epsilon = 0.000422
 h24bf                                  1      0.0000       0.00000       A     2.62585e-01     6.69640e-02    ;  uncertainty sigma = 0.000009, epsilon = 0.000463
 h25bf                                  1      0.0000       0.00000       A     2.62560e-01     6.69779e-02    ;  uncertainty sigma = 0.000012, epsilon = 0.000618
 h26bf                                  1      0.0000       0.00000       A     1.10651e-01     4.13762e-02    ;  uncertainty sigma = 0.000058, epsilon = 0.001253
 h27bf                                  1      0.0000       0.00000       A     2.62567e-01     6.70632e-02    ;  uncertainty sigma = 0.000011, epsilon = 0.000557
 h28bf                                  1      0.0000       0.00000       A     2.62556e-01     6.70460e-02    ;  uncertainty sigma = 0.000009, epsilon = 0.000514
 h29bf                                  1      0.0000       0.00000       A     2.62556e-01     6.70460e-02    ;  uncertainty sigma = 0.000009, epsilon = 0.000514
 h30bf                                  1      0.0000       0.00000       A     2.62567e-01     6.70632e-02    ;  uncertainty sigma = 0.000011, epsilon = 0.000557
 h31bf                                  1      0.0000       0.00000       A     5.37866e-02     1.91555e-02    ;  uncertainty sigma = 0.000161, epsilon = 0.001189
 h32bf                                  1      0.0000       0.00000       A     2.60031e-01     8.67183e-02    ;  uncertainty sigma = 0.000009, epsilon = 0.000447
 h33bf                                  1      0.0000       0.00000       A     2.60031e-01     8.67183e-02    ;  uncertainty sigma = 0.000009, epsilon = 0.000447
 h34bf                                  1      0.0000       0.00000       A     2.60031e-01     8.67183e-02    ;  uncertainty sigma = 0.000009, epsilon = 0.000447
 h35bf                                  1      0.0000       0.00000       A     2.60031e-01     8.67183e-02    ;  uncertainty sigma = 0.000009, epsilon = 0.000447
 h36bf                                  1      0.0000       0.00000       A     2.60031e-01     8.67183e-02    ;  uncertainty sigma = 0.000009, epsilon = 0.000447
 h37bf                                  1      0.0000       0.00000       A     2.60031e-01     8.67183e-02    ;  uncertainty sigma = 0.000009, epsilon = 0.000447
 h38bf                                  1      0.0000       0.00000       A     2.42215e-01     8.67442e-02    ;  uncertainty sigma = 0.000016, epsilon = 0.000610
 h39bf                                  1      0.0000       0.00000       A     2.42215e-01     8.67442e-02    ;  uncertainty sigma = 0.000016, epsilon = 0.000610
 h40bf                                  1      0.0000       0.00000       A     2.42215e-01     8.67443e-02    ;  uncertainty sigma = 0.000016, epsilon = 0.000611

[ moleculetype ]
;name             nrexcl
 MOL                   3

[ atoms ]
;       nr            type      resi   res      atom      cgnr      charge          mass ; qtot
         1            c0bf         1   UNL        c0         1     0.14384       12.0110 ; qtot    0.144
         2            c1bf         1   UNL        c1         2     0.15546       12.0110 ; qtot    0.299
         3            c2bf         1   UNL        c2         3    -0.17887       12.0110 ; qtot    0.120
         4            c3bf         1   UNL        c3         4    -0.18144       12.0110 ; qtot   -0.061
         5            n4bf         1   UNL        n4         5    -0.60929       14.0070 ; qtot   -0.670
         6            c5bf         1   UNL        c5         6    -0.11761       12.0110 ; qtot   -0.788
         7            c6bf         1   UNL        c6         7    -0.08360       12.0110 ; qtot   -0.872
         8            c7bf         1   UNL        c7         8     0.71716       12.0110 ; qtot   -0.154
         9            n8bf         1   UNL        n8         9    -0.50579       14.0070 ; qtot   -0.660
        10            o9bf         1   UNL        o9        10    -0.60644       15.9990 ; qtot   -1.267
        11           c10bf         1   UNL       c10        11     0.56349       12.0110 ; qtot   -0.703
        12           c11bf         1   UNL       c11        12    -0.15146       12.0110 ; qtot   -0.855
        13           c12bf         1   UNL       c12        13    -0.08668       12.0110 ; qtot   -0.941
        14           c13bf         1   UNL       c13        14    -0.12388       12.0110 ; qtot   -1.065
        15           c14bf         1   UNL       c14        15    -0.08876       12.0110 ; qtot   -1.154
        16           c15bf         1   UNL       c15        16    -0.12388       12.0110 ; qtot   -1.278
        17           c16bf         1   UNL       c16        17    -0.08668       12.0110 ; qtot   -1.364
        18           c17bf         1   UNL       c17        18     0.20190       12.0110 ; qtot   -1.163
        19           o18bf         1   UNL       o18        19    -0.60342       15.9990 ; qtot   -1.766
        20           c19bf         1   UNL       c19        20    -0.10277       12.0110 ; qtot   -1.869
        21           c20bf         1   UNL       c20        21    -0.10277       12.0110 ; qtot   -1.971
        22           o21bf         1   UNL       o21        22    -0.30740       15.9990 ; qtot   -2.279
        23           c22bf         1   UNL       c22        23     0.12047       12.0110 ; qtot   -2.158
        24           h23bf         1   UNL       h23        24     0.14396        1.0080 ; qtot   -2.014
        25           h24bf         1   UNL       h24        25     0.14207        1.0080 ; qtot   -1.872
        26           h25bf         1   UNL       h25        26     0.15883        1.0080 ; qtot   -1.714
        27           h26bf         1   UNL       h26        27     0.33625        1.0080 ; qtot   -1.377
        28           h27bf         1   UNL       h27        28     0.14623        1.0080 ; qtot   -1.231
        29           h28bf         1   UNL       h28        29     0.14030        1.0080 ; qtot   -1.091
        30           h29bf         1   UNL       h29        30     0.14030        1.0080 ; qtot   -0.950
        31           h30bf         1   UNL       h30        31     0.14623        1.0080 ; qtot   -0.804
        32           h31bf         1   UNL       h31        32     0.40249        1.0080 ; qtot   -0.402
        33           h32bf         1   UNL       h32        33     0.04522        1.0080 ; qtot   -0.357
        34           h33bf         1   UNL       h33        34     0.04522        1.0080 ; qtot   -0.311
        35           h34bf         1   UNL       h34        35     0.04522        1.0080 ; qtot   -0.266
        36           h35bf         1   UNL       h35        36     0.04522        1.0080 ; qtot   -0.221
        37           h36bf         1   UNL       h36        37     0.04522        1.0080 ; qtot   -0.176
        38           h37bf         1   UNL       h37        38     0.04522        1.0080 ; qtot   -0.130
        39           h38bf         1   UNL       h38        39     0.04349        1.0080 ; qtot   -0.087
        40           h39bf         1   UNL       h39        40     0.04349        1.0080 ; qtot   -0.043
        41           h40bf         1   UNL       h40        41     0.04346        1.0080 ; qtot    0.000

[ bonds ]
;       ai        aj funct               r               k
         1         2     1        0.141122   315580.626025    ;  uncertainty r = 0.000217, k = 18.877660
         1         3     1        0.138973   345259.471484    ;  uncertainty r = 0.000126, k = 7.475869
         1        22     1        0.135773   322723.764111    ;  uncertainty r = 0.000093, k = 9.507119
         2         4     1        0.141715   378397.369482    ;  uncertainty r = 0.000066, k = 19.988035
         2         5     1        0.138295   283069.204395    ;  uncertainty r = 0.000078, k = 31.242549
         3         6     1        0.140510   363146.760986    ;  uncertainty r = 0.000154, k = 5.344636
         3        24     1        0.108746   338117.686865    ;  uncertainty r = 0.000039, k = 2.096979
         4         7     1        0.139947   363546.442285    ;  uncertainty r = 0.000127, k = 7.827218
         4         8     1        0.146525   267396.978223    ;  uncertainty r = 0.000030, k = 8.345871
         5        11     1        0.129709   466833.426270    ;  uncertainty r = 0.000080, k = 6.392607
         6         7     1        0.138713   369077.090674    ;  uncertainty r = 0.000059, k = 6.116666
         6        25     1        0.108700   332805.278613    ;  uncertainty r = 0.000025, k = 2.155063
         7        26     1        0.108550   330556.710596    ;  uncertainty r = 0.000013, k = 1.154066
         8         9     1        0.140241   446935.268164    ;  uncertainty r = 0.000080, k = 16.691040
         8        10     1        0.123475   858999.511328    ;  uncertainty r = 0.000106, k = 11.443587
         9        11     1        0.138994   297322.384473    ;  uncertainty r = 0.000096, k = 23.564721
         9        27     1        0.102058   454589.659180    ;  uncertainty r = 0.000027, k = 4.102090
        11        12     1        0.147245   266505.018066    ;  uncertainty r = 0.000094, k = 11.651407
        12        13     1        0.139881   350469.118408    ;  uncertainty r = 0.000059, k = 3.608169
        12        17     1        0.139881   350469.118408    ;  uncertainty r = 0.000059, k = 3.608169
        13        14     1        0.139215   359042.641064    ;  uncertainty r = 0.000045, k = 3.009368
        13        28     1        0.108751   333157.997168    ;  uncertainty r = 0.000045, k = 1.128357
        14        15     1        0.139630   349504.479639    ;  uncertainty r = 0.000022, k = 3.365375
        14        29     1        0.108801   333642.308447    ;  uncertainty r = 0.000019, k = 1.144891
        15        16     1        0.139630   349504.479639    ;  uncertainty r = 0.000022, k = 3.365375
        15        18     1        0.152147   213548.803735    ;  uncertainty r = 0.000097, k = 3.797993
        16        17     1        0.139215   359042.692139    ;  uncertainty r = 0.000045, k = 3.009361
        16        30     1        0.108801   333642.308447    ;  uncertainty r = 0.000019, k = 1.144891
        17        31     1        0.108751   333157.971631    ;  uncertainty r = 0.000045, k = 1.128363
        18        19     1        0.144782   263188.513672    ;  uncertainty r = 0.000100, k = 11.942343
        18        20     1        0.153487   207492.767627    ;  uncertainty r = 0.000036, k = 5.323968
        18        21     1        0.153487   207492.767627    ;  uncertainty r = 0.000036, k = 5.323968
        19        32     1        0.097230   467409.339160    ;  uncertainty r = 0.000030, k = 3.616149
        20        33     1        0.109572   309908.553125    ;  uncertainty r = 0.000020, k = 1.196961
        20        34     1        0.109572   309908.553125    ;  uncertainty r = 0.000020, k = 1.196961
        20        35     1        0.109572   309908.553125    ;  uncertainty r = 0.000020, k = 1.196961
        21        36     1        0.109572   309908.553125    ;  uncertainty r = 0.000020, k = 1.196961
        21        37     1        0.109572   309908.553125    ;  uncertainty r = 0.000020, k = 1.196961
        21        38     1        0.109572   309908.553125    ;  uncertainty r = 0.000020, k = 1.196961
        22        23     1        0.142553   248339.246387    ;  uncertainty r = 0.000067, k = 6.188931
        23        39     1        0.109554   310849.697754    ;  uncertainty r = 0.000028, k = 1.502813
        23        40     1        0.109554   310849.697754    ;  uncertainty r = 0.000028, k = 1.502824
        23        41     1        0.109554   310849.697754    ;  uncertainty r = 0.000028, k = 1.502813

[ angles ]
;       ai        aj        ak funct           theta             cth
         1         2         4     1      119.877640      388.677997    ;  uncertainty theta = 0.004897, k = 0.258717
         1         2         5     1      116.141525      459.672214    ;  uncertainty theta = 0.002450, k = 0.128707
         1         3         6     1      121.617615      524.907973    ;  uncertainty theta = 0.002719, k = 0.064032
         1         3        24     1      117.549095      270.917064    ;  uncertainty theta = 0.005131, k = 0.121570
         1        22        23     1      110.482422      486.434850    ;  uncertainty theta = 0.002519, k = 0.072768
         2         1         3     1      121.658546      396.059211    ;  uncertainty theta = 0.008160, k = 0.280811
         2         1        22     1      116.012497      401.446232    ;  uncertainty theta = 0.010304, k = 0.292214
         2         4         7     1      123.457481      444.575888    ;  uncertainty theta = 0.002613, k = 0.101702
         2         4         8     1      116.806274      478.806755    ;  uncertainty theta = 0.004861, k = 0.208179
         2         5        11     1      116.040199      418.805976    ;  uncertainty theta = 0.006438, k = 0.418006
         3         1        22     1      120.783607      425.441092    ;  uncertainty theta = 0.004362, k = 0.197781
         3         6         7     1      121.181717      529.192749    ;  uncertainty theta = 0.003219, k = 0.054100
         3         6        25     1      120.086830      280.295185    ;  uncertainty theta = 0.002581, k = 0.054557
         4         2         5     1      124.221680      560.884940    ;  uncertainty theta = 0.004328, k = 0.101400
         4         7         6     1      119.134750      507.684470    ;  uncertainty theta = 0.001355, k = 0.123709
         4         7        26     1      119.154526      251.184460    ;  uncertainty theta = 0.002776, k = 0.174560
         4         8         9     1      109.202599      388.013809    ;  uncertainty theta = 0.007007, k = 0.289364
         4         8        10     1      127.901962      517.740696    ;  uncertainty theta = 0.003030, k = 0.138363
         5        11         9     1      123.633041      673.731128    ;  uncertainty theta = 0.006108, k = 0.182951
         5        11        12     1      122.590797      442.736610    ;  uncertainty theta = 0.004093, k = 0.200628
         6         3        24     1      120.439590      286.003176    ;  uncertainty theta = 0.001985, k = 0.038413
         6         7        26     1      121.416039      278.084373    ;  uncertainty theta = 0.002033, k = 0.093002
         7         4         8     1      118.389420      403.233958    ;  uncertainty theta = 0.002882, k = 0.148714
         7         6        25     1      120.182785      282.755302    ;  uncertainty theta = 0.001951, k = 0.080723
         8         9        11     1      120.844711      497.057106    ;  uncertainty theta = 0.002963, k = 0.163794
         8         9        27     1      115.406471      353.418112    ;  uncertainty theta = 0.007356, k = 0.132218
         9         8        10     1      124.925133      818.858712    ;  uncertainty theta = 0.003086, k = 0.064530
         9        11        12     1      116.785934      516.912719    ;  uncertainty theta = 0.004796, k = 0.258240
        11         9        27     1      116.759598      330.221447    ;  uncertainty theta = 0.006334, k = 0.203909
        11        12        13     1      117.864601      401.926202    ;  uncertainty theta = 0.003038, k = 0.118676
        11        12        17     1      117.864601      401.926202    ;  uncertainty theta = 0.003038, k = 0.118676
        12        13        14     1      121.936867      513.032419    ;  uncertainty theta = 0.001595, k = 0.037410
        12        13        28     1      118.373268      267.332069    ;  uncertainty theta = 0.002929, k = 0.046096
        12        17        16     1      121.936867      513.032419    ;  uncertainty theta = 0.001595, k = 0.037410
        12        17        31     1      118.373268      267.332069    ;  uncertainty theta = 0.002929, k = 0.046096
        13        12        17     1      120.778748      421.634435    ;  uncertainty theta = 0.002896, k = 0.258077
        13        14        15     1      121.733681      516.745292    ;  uncertainty theta = 0.002295, k = 0.052086
        13        14        29     1      119.605568      285.026126    ;  uncertainty theta = 0.002260, k = 0.028336
        14        13        28     1      120.211563      284.749144    ;  uncertainty theta = 0.002936, k = 0.063323
        14        15        16     1      119.700928      459.849474    ;  uncertainty theta = 0.002192, k = 0.105996
        14        15        18     1      119.835281      368.426622    ;  uncertainty theta = 0.004163, k = 0.173853
        15        14        29     1      118.678185      262.012993    ;  uncertainty theta = 0.001113, k = 0.066500
        15        16        17     1      121.733681      516.745292    ;  uncertainty theta = 0.002295, k = 0.052086
        15        16        30     1      118.678185      262.012993    ;  uncertainty theta = 0.001113, k = 0.066500
        15        18        19     1      109.685776      703.897222    ;  uncertainty theta = 0.001965, k = 0.142449
        15        18        20     1      109.715744      550.550008    ;  uncertainty theta = 0.001726, k = 0.033764
        15        18        21     1      109.715744      550.550008    ;  uncertainty theta = 0.001726, k = 0.033764
        16        15        18     1      119.835281      368.426622    ;  uncertainty theta = 0.004163, k = 0.173853
        16        17        31     1      120.211563      284.749144    ;  uncertainty theta = 0.002936, k = 0.063323
        17        16        30     1      119.605568      285.026126    ;  uncertainty theta = 0.002260, k = 0.028336
        18        19        32     1      107.710533      483.511457    ;  uncertainty theta = 0.002078, k = 0.098569
        18        20        33     1      107.275742      375.507488    ;  uncertainty theta = 0.000927, k = 0.039228
        18        20        34     1      107.275742      375.507488    ;  uncertainty theta = 0.000927, k = 0.039228
        18        20        35     1      107.275742      375.507488    ;  uncertainty theta = 0.000927, k = 0.039228
        18        21        36     1      107.275742      375.507488    ;  uncertainty theta = 0.000927, k = 0.039228
        18        21        37     1      107.275742      375.507488    ;  uncertainty theta = 0.000927, k = 0.039228
        18        21        38     1      107.275742      375.507488    ;  uncertainty theta = 0.000927, k = 0.039228
        19        18        20     1      108.829308      692.110441    ;  uncertainty theta = 0.002464, k = 0.098427
        19        18        21     1      108.829308      692.110441    ;  uncertainty theta = 0.002464, k = 0.098427
        20        18        21     1      110.087318      564.121513    ;  uncertainty theta = 0.001573, k = 0.073265
        22        23        39     1      108.609543      442.147979    ;  uncertainty theta = 0.001941, k = 0.029305
        22        23        40     1      108.609543      442.147979    ;  uncertainty theta = 0.001941, k = 0.029305
        22        23        41     1      108.609543      442.147979    ;  uncertainty theta = 0.001941, k = 0.029305
        33        20        34     1      105.686974      317.730736    ;  uncertainty theta = 0.001105, k = 0.008156
        33        20        35     1      105.686974      317.730736    ;  uncertainty theta = 0.001105, k = 0.008156
        34        20        35     1      105.686974      317.730736    ;  uncertainty theta = 0.001105, k = 0.008156
        36        21        37     1      105.686974      317.730736    ;  uncertainty theta = 0.001105, k = 0.008156
        36        21        38     1      105.686974      317.730736    ;  uncertainty theta = 0.001105, k = 0.008156
        37        21        38     1      105.686974      317.730736    ;  uncertainty theta = 0.001105, k = 0.008156
        39        23        40     1      109.190475      330.786072    ;  uncertainty theta = 0.002016, k = 0.013671
        39        23        41     1      109.190475      330.786072    ;  uncertainty theta = 0.002016, k = 0.013671
        40        23        41     1      109.190475      330.786072    ;  uncertainty theta = 0.002016, k = 0.013671

[ dihedrals ] ; propers for gromacs 4.5 or higher, use funct 9
;       ai        aj        ak        al funct           phase               k        pn
         1         2         4         7     9        0.000000        0.066018         1    ;  uncertainty k = 0.481165
         1         2         4         7     9      180.000000        6.231469         2    ;  uncertainty k = 0.590814
         1         2         4         7     9        0.000000        0.574973         3    ;  uncertainty k = 0.226379
         1         2         4         7     9      180.000000        1.527315         4    ;  uncertainty k = 0.185032
         1         2         4         8     9        0.000000        0.157002         1    ;  uncertainty k = 0.774488
         1         2         4         8     9      180.000000        5.527576         2    ;  uncertainty k = 0.697614
         1         2         4         8     9        0.000000        1.129291         3    ;  uncertainty k = 0.271538
         1         2         4         8     9      180.000000        1.488447         4    ;  uncertainty k = 0.212269
         1         2         5        11     9        0.000000        3.194287         1    ;  uncertainty k = 2.989445
         1         2         5        11     9      180.000000        4.862235         2    ;  uncertainty k = 2.052864
         1         2         5        11     9        0.000000        2.174848         3    ;  uncertainty k = 0.426679
         1         2         5        11     9      180.000000        0.207110         4    ;  uncertainty k = 0.588976
         1         3         6         7     9        0.000000       -0.170402         1    ;  uncertainty k = 0.159258
         1         3         6         7     9      180.000000       11.876657         2    ;  uncertainty k = 0.268298
         1         3         6         7     9        0.000000       -0.785403         3    ;  uncertainty k = 0.485898
         1         3         6         7     9      180.000000        0.824111         4    ;  uncertainty k = 0.163584
         1         3         6        25     9        0.000000        0.139783         1    ;  uncertainty k = 0.340130
         1         3         6        25     9      180.000000        7.077096         2    ;  uncertainty k = 0.446381
         1         3         6        25     9        0.000000        1.306426         3    ;  uncertainty k = 0.345806
         1         3         6        25     9      180.000000        1.569246         4    ;  uncertainty k = 0.057113
         1        22        23        39     9        0.000000        1.415263         1    ;  uncertainty k = 0.239588
         1        22        23        39     9      180.000000       -2.122255         2    ;  uncertainty k = 0.254744
         1        22        23        39     9        0.000000        0.849937         3    ;  uncertainty k = 0.115503
         1        22        23        39     9      180.000000        0.248346         4    ;  uncertainty k = 0.060012
         1        22        23        40     9        0.000000        1.415263         1    ;  uncertainty k = 0.239588
         1        22        23        40     9      180.000000       -2.122255         2    ;  uncertainty k = 0.254744
         1        22        23        40     9        0.000000        0.849937         3    ;  uncertainty k = 0.115503
         1        22        23        40     9      180.000000        0.248346         4    ;  uncertainty k = 0.060012
         1        22        23        41     9        0.000000        1.415263         1    ;  uncertainty k = 0.239588
         1        22        23        41     9      180.000000       -2.122255         2    ;  uncertainty k = 0.254744
         1        22        23        41     9        0.000000        0.849937         3    ;  uncertainty k = 0.115503
         1        22        23        41     9      180.000000        0.248346         4    ;  uncertainty k = 0.060012
         2         1         3         6     9        0.000000        0.206362         1    ;  uncertainty k = 0.283313
         2         1         3         6     9      180.000000        9.638993         2    ;  uncertainty k = 0.447273
         2         1         3         6     9        0.000000        0.586751         3    ;  uncertainty k = 0.285083
         2         1         3         6     9      180.000000        1.515249         4    ;  uncertainty k = 0.221212
         2         1         3        24     9        0.000000        0.260234         1    ;  uncertainty k = 0.479216
         2         1         3        24     9      180.000000        7.814692         2    ;  uncertainty k = 0.459776
         2         1         3        24     9        0.000000        1.495653         3    ;  uncertainty k = 0.196559
         2         1         3        24     9      180.000000        1.527352         4    ;  uncertainty k = 0.101707
         2         1        22        23     9        0.000000        1.234278         1    ;  uncertainty k = 0.784027
         2         1        22        23     9      180.000000        5.672918         2    ;  uncertainty k = 0.270580
         2         1        22        23     9        0.000000        1.443742         3    ;  uncertainty k = 0.261688
         2         1        22        23     9      180.000000        0.129689         4    ;  uncertainty k = 0.178768
         2         4         7         6     9        0.000000       -0.017493         1    ;  uncertainty k = 0.194937
         2         4         7         6     9      180.000000       11.827167         2    ;  uncertainty k = 0.424767
         2         4         7         6     9        0.000000       -0.692121         3    ;  uncertainty k = 0.471894
         2         4         7         6     9      180.000000        0.947294         4    ;  uncertainty k = 0.219035
         2         4         7        26     9        0.000000        0.019684         1    ;  uncertainty k = 0.677939
         2         4         7        26     9      180.000000        7.149023         2    ;  uncertainty k = 0.815661
         2         4         7        26     9        0.000000        1.247221         3    ;  uncertainty k = 0.277163
         2         4         7        26     9      180.000000        1.366533         4    ;  uncertainty k = 0.095783
         2         4         8         9     9        0.000000       -1.225325         1    ;  uncertainty k = 1.375272
         2         4         8         9     9      180.000000        2.258323         2    ;  uncertainty k = 1.148087
         2         4         8         9     9        0.000000       -0.360669         3    ;  uncertainty k = 0.729010
         2         4         8         9     9      180.000000        0.533443         4    ;  uncertainty k = 0.290288
         2         4         8        10     9        0.000000       -2.517889         1    ;  uncertainty k = 1.186963
         2         4         8        10     9      180.000000        5.293183         2    ;  uncertainty k = 0.779198
         2         4         8        10     9        0.000000        0.210617         3    ;  uncertainty k = 0.199048
         2         4         8        10     9      180.000000       -0.182483         4    ;  uncertainty k = 0.215120
         2         5        11         9     9        0.000000       -0.706881         1    ;  uncertainty k = 0.423036
         2         5        11         9     9      180.000000       23.693310         2    ;  uncertainty k = 0.100519
         2         5        11         9     9        0.000000        1.780732         3    ;  uncertainty k = 0.188867
         2         5        11         9     9      180.000000        1.514806         4    ;  uncertainty k = 0.415740
         2         5        11        12     9        0.000000       -0.367734         1    ;  uncertainty k = 0.612035
         2         5        11        12     9      180.000000       19.057497         2    ;  uncertainty k = 0.413130
         2         5        11        12     9        0.000000        2.757751         3    ;  uncertainty k = 0.405658
         2         5        11        12     9      180.000000        1.332821         4    ;  uncertainty k = 0.379520
         3         1         2         4     9        0.000000       -0.337790         1    ;  uncertainty k = 0.698555
         3         1         2         4     9      180.000000        4.554116         2    ;  uncertainty k = 1.648905
         3         1         2         4     9        0.000000        0.101336         3    ;  uncertainty k = 0.224021
         3         1         2         4     9      180.000000        1.081086         4    ;  uncertainty k = 0.393982
         3         1         2         5     9        0.000000        0.335974         1    ;  uncertainty k = 0.320441
         3         1         2         5     9      180.000000        6.342836         2    ;  uncertainty k = 0.280763
         3         1         2         5     9        0.000000        0.865500         3    ;  uncertainty k = 0.088967
         3         1         2         5     9      180.000000        1.391300         4    ;  uncertainty k = 0.338079
         3         1        22        23     9        0.000000        1.624968         1    ;  uncertainty k = 0.938969
         3         1        22        23     9      180.000000        7.203399         2    ;  uncertainty k = 0.105449
         3         1        22        23     9        0.000000       -0.770222         3    ;  uncertainty k = 0.435600
         3         1        22        23     9      180.000000        0.044138         4    ;  uncertainty k = 0.165527
         3         6         7         4     9        0.000000       -0.144596         1    ;  uncertainty k = 0.161743
         3         6         7         4     9      180.000000       14.265210         2    ;  uncertainty k = 0.253137
         3         6         7         4     9        0.000000       -0.679565         3    ;  uncertainty k = 0.542935
         3         6         7         4     9      180.000000        0.846883         4    ;  uncertainty k = 0.216701
         3         6         7        26     9        0.000000        0.213028         1    ;  uncertainty k = 0.140408
         3         6         7        26     9      180.000000        8.485077         2    ;  uncertainty k = 0.464701
         3         6         7        26     9        0.000000        1.374137         3    ;  uncertainty k = 0.337860
         3         6         7        26     9      180.000000        1.810222         4    ;  uncertainty k = 0.154824
         4         2         1        22     9        0.000000       -0.027501         1    ;  uncertainty k = 0.709928
         4         2         1        22     9      180.000000        6.788573         2    ;  uncertainty k = 0.417932
         4         2         1        22     9        0.000000        1.152380         3    ;  uncertainty k = 0.181022
         4         2         1        22     9      180.000000        1.407435         4    ;  uncertainty k = 0.128122
         4         2         5        11     9        0.000000        1.510628         1    ;  uncertainty k = 2.060851
         4         2         5        11     9      180.000000        3.597261         2    ;  uncertainty k = 1.688093
         4         2         5        11     9        0.000000        1.723476         3    ;  uncertainty k = 0.712264
         4         2         5        11     9      180.000000        0.317227         4    ;  uncertainty k = 0.551801
         4         7         6        25     9        0.000000        0.138506         1    ;  uncertainty k = 0.278644
         4         7         6        25     9      180.000000        8.974581         2    ;  uncertainty k = 0.256528
         4         7         6        25     9        0.000000        1.459818         3    ;  uncertainty k = 0.286728
         4         7         6        25     9      180.000000        1.763526         4    ;  uncertainty k = 0.149387
         4         8         9        11     9        0.000000        0.067599         1    ;  uncertainty k = 1.691947
         4         8         9        11     9      180.000000        3.885315         2    ;  uncertainty k = 1.288475
         4         8         9        11     9        0.000000        0.622483         3    ;  uncertainty k = 0.207250
         4         8         9        11     9      180.000000        0.469863         4    ;  uncertainty k = 0.355533
         4         8         9        27     9        0.000000        2.521705         1    ;  uncertainty k = 2.341298
         4         8         9        27     9      180.000000        5.145529         2    ;  uncertainty k = 0.856776
         4         8         9        27     9        0.000000        1.774446         3    ;  uncertainty k = 0.125682
         4         8         9        27     9      180.000000        0.008928         4    ;  uncertainty k = 0.095693
         5         2         1        22     9        0.000000        0.220528         1    ;  uncertainty k = 0.434325
         5         2         1        22     9      180.000000       10.395445         2    ;  uncertainty k = 0.699320
         5         2         1        22     9        0.000000        0.822100         3    ;  uncertainty k = 0.259094
         5         2         1        22     9      180.000000        1.131381         4    ;  uncertainty k = 0.429774
         5         2         4         7     9        0.000000        0.062107         1    ;  uncertainty k = 0.506274
         5         2         4         7     9      180.000000        7.972245         2    ;  uncertainty k = 0.472308
         5         2         4         7     9        0.000000        0.864858         3    ;  uncertainty k = 0.296368
         5         2         4         7     9      180.000000        1.590917         4    ;  uncertainty k = 0.147747
         5         2         4         8     9        0.000000       -0.316905         1    ;  uncertainty k = 0.555977
         5         2         4         8     9      180.000000        6.976702         2    ;  uncertainty k = 0.844996
         5         2         4         8     9        0.000000        1.024620         3    ;  uncertainty k = 0.339339
         5         2         4         8     9      180.000000        1.652526         4    ;  uncertainty k = 0.291045
         5        11         9         8     9        0.000000        0.103907         1    ;  uncertainty k = 0.790386
         5        11         9         8     9      180.000000        7.257404         2    ;  uncertainty k = 0.738375
         5        11         9         8     9        0.000000        0.580937         3    ;  uncertainty k = 0.719122
         5        11         9         8     9      180.000000        0.375077         4    ;  uncertainty k = 0.193422
         5        11         9        27     9        0.000000        5.984795         1    ;  uncertainty k = 1.697613
         5        11         9        27     9      180.000000       11.009557         2    ;  uncertainty k = 0.723930
         5        11         9        27     9        0.000000        1.173875         3    ;  uncertainty k = 0.618147
         5        11         9        27     9      180.000000       -0.229352         4    ;  uncertainty k = 0.169037
         5        11        12        13     9        0.000000        0.848054         1    ;  uncertainty k = 0.721430
         5        11        12        13     9      180.000000        4.026092         2    ;  uncertainty k = 0.294251
         5        11        12        13     9        0.000000        0.590030         3    ;  uncertainty k = 0.187877
         5        11        12        13     9      180.000000       -0.119528         4    ;  uncertainty k = 0.166763
         5        11        12        17     9        0.000000        0.848054         1    ;  uncertainty k = 0.721430
         5        11        12        17     9      180.000000        4.026092         2    ;  uncertainty k = 0.294251
         5        11        12        17     9        0.000000        0.590030         3    ;  uncertainty k = 0.187877
         5        11        12        17     9      180.000000       -0.119528         4    ;  uncertainty k = 0.166763
         6         3         1        22     9        0.000000        0.172380         1    ;  uncertainty k = 0.178127
         6         3         1        22     9      180.000000       12.623277         2    ;  uncertainty k = 0.419645
         6         3         1        22     9        0.000000        1.287766         3    ;  uncertainty k = 0.399934
         6         3         1        22     9      180.000000        1.695989         4    ;  uncertainty k = 0.356423
         6         7         4         8     9        0.000000        0.014628         1    ;  uncertainty k = 0.374459
         6         7         4         8     9      180.000000        9.426020         2    ;  uncertainty k = 0.751699
         6         7         4         8     9        0.000000        1.131839         3    ;  uncertainty k = 0.161828
         6         7         4         8     9      180.000000        1.819199         4    ;  uncertainty k = 0.314293
         7         4         8         9     9        0.000000       -0.137205         1    ;  uncertainty k = 0.997530
         7         4         8         9     9      180.000000        2.913626         2    ;  uncertainty k = 0.667696
         7         4         8         9     9        0.000000        0.628191         3    ;  uncertainty k = 0.341897
         7         4         8         9     9      180.000000        0.533317         4    ;  uncertainty k = 0.228428
         7         4         8        10     9        0.000000       -1.981459         1    ;  uncertainty k = 0.545606
         7         4         8        10     9      180.000000        5.228644         2    ;  uncertainty k = 0.666805
         7         4         8        10     9        0.000000        0.576730         3    ;  uncertainty k = 0.276970
         7         4         8        10     9      180.000000       -0.176122         4    ;  uncertainty k = 0.096592
         7         6         3        24     9        0.000000        0.239330         1    ;  uncertainty k = 0.511471
         7         6         3        24     9      180.000000        7.016176         2    ;  uncertainty k = 0.326131
         7         6         3        24     9        0.000000        1.487091         3    ;  uncertainty k = 0.253728
         7         6         3        24     9      180.000000        1.642773         4    ;  uncertainty k = 0.055793
         8         4         7        26     9        0.000000       -0.326987         1    ;  uncertainty k = 0.632734
         8         4         7        26     9      180.000000        8.072453         2    ;  uncertainty k = 0.292223
         8         4         7        26     9        0.000000        1.037550         3    ;  uncertainty k = 0.271132
         8         4         7        26     9      180.000000        1.185946         4    ;  uncertainty k = 0.141923
         8         9        11        12     9        0.000000        1.092060         1    ;  uncertainty k = 0.767839
         8         9        11        12     9      180.000000        5.558289         2    ;  uncertainty k = 0.737727
         8         9        11        12     9        0.000000        0.536223         3    ;  uncertainty k = 0.347222
         8         9        11        12     9      180.000000       -0.101235         4    ;  uncertainty k = 0.322136
         9        11        12        13     9        0.000000       -0.044640         1    ;  uncertainty k = 0.362012
         9        11        12        13     9      180.000000        4.161514         2    ;  uncertainty k = 0.406167
         9        11        12        13     9        0.000000        0.564145         3    ;  uncertainty k = 0.131090
         9        11        12        13     9      180.000000       -0.118793         4    ;  uncertainty k = 0.033111
         9        11        12        17     9        0.000000       -0.044640         1    ;  uncertainty k = 0.362012
         9        11        12        17     9      180.000000        4.161514         2    ;  uncertainty k = 0.406167
         9        11        12        17     9        0.000000        0.564145         3    ;  uncertainty k = 0.131090
         9        11        12        17     9      180.000000       -0.118793         4    ;  uncertainty k = 0.033111
        10         8         9        11     9        0.000000        0.162234         1    ;  uncertainty k = 1.178822
        10         8         9        11     9      180.000000       11.126656         2    ;  uncertainty k = 0.475026
        10         8         9        11     9        0.000000        1.305601         3    ;  uncertainty k = 0.390789
        10         8         9        11     9      180.000000       -0.499494         4    ;  uncertainty k = 0.415283
        10         8         9        27     9        0.000000        1.556564         1    ;  uncertainty k = 2.554173
        10         8         9        27     9      180.000000        9.175323         2    ;  uncertainty k = 0.584746
        10         8         9        27     9        0.000000        0.745554         3    ;  uncertainty k = 0.511782
        10         8         9        27     9      180.000000       -0.108602         4    ;  uncertainty k = 0.055070
        11        12        13        14     9        0.000000        0.095334         1    ;  uncertainty k = 0.160140
        11        12        13        14     9      180.000000        9.068158         2    ;  uncertainty k = 0.619855
        11        12        13        14     9        0.000000        1.340466         3    ;  uncertainty k = 0.272038
        11        12        13        14     9      180.000000        1.695537         4    ;  uncertainty k = 0.192483
        11        12        13        28     9        0.000000       -0.282920         1    ;  uncertainty k = 0.199361
        11        12        13        28     9      180.000000        7.205788         2    ;  uncertainty k = 0.255653
        11        12        13        28     9        0.000000        0.705845         3    ;  uncertainty k = 0.167386
        11        12        13        28     9      180.000000        1.051168         4    ;  uncertainty k = 0.163427
        11        12        17        16     9        0.000000        0.095334         1    ;  uncertainty k = 0.160140
        11        12        17        16     9      180.000000        9.068158         2    ;  uncertainty k = 0.619855
        11        12        17        16     9        0.000000        1.340466         3    ;  uncertainty k = 0.272038
        11        12        17        16     9      180.000000        1.695537         4    ;  uncertainty k = 0.192483
        11        12        17        31     9        0.000000       -0.282920         1    ;  uncertainty k = 0.199361
        11        12        17        31     9      180.000000        7.205788         2    ;  uncertainty k = 0.255653
        11        12        17        31     9        0.000000        0.705845         3    ;  uncertainty k = 0.167386
        11        12        17        31     9      180.000000        1.051168         4    ;  uncertainty k = 0.163427
        12        11         9        27     9        0.000000        0.936466         1    ;  uncertainty k = 0.130625
        12        11         9        27     9      180.000000        4.685521         2    ;  uncertainty k = 0.916843
        12        11         9        27     9        0.000000        1.353794         3    ;  uncertainty k = 0.256654
        12        11         9        27     9      180.000000       -0.070841         4    ;  uncertainty k = 0.262149
        12        13        14        15     9        0.000000       -0.133648         1    ;  uncertainty k = 0.232408
        12        13        14        15     9      180.000000       12.534119         2    ;  uncertainty k = 0.264132
        12        13        14        15     9        0.000000       -0.659583         3    ;  uncertainty k = 0.473408
        12        13        14        15     9      180.000000        0.896721         4    ;  uncertainty k = 0.301178
        12        13        14        29     9        0.000000        0.104452         1    ;  uncertainty k = 0.123159
        12        13        14        29     9      180.000000        8.153177         2    ;  uncertainty k = 0.285565
        12        13        14        29     9        0.000000        1.386423         3    ;  uncertainty k = 0.199866
        12        13        14        29     9      180.000000        1.841381         4    ;  uncertainty k = 0.178837
        12        17        16        15     9        0.000000       -0.133648         1    ;  uncertainty k = 0.232408
        12        17        16        15     9      180.000000       12.534119         2    ;  uncertainty k = 0.264132
        12        17        16        15     9        0.000000       -0.659583         3    ;  uncertainty k = 0.473408
        12        17        16        15     9      180.000000        0.896721         4    ;  uncertainty k = 0.301178
        12        17        16        30     9        0.000000        0.104452         1    ;  uncertainty k = 0.123159
        12        17        16        30     9      180.000000        8.153177         2    ;  uncertainty k = 0.285565
        12        17        16        30     9        0.000000        1.386423         3    ;  uncertainty k = 0.199866
        12        17        16        30     9      180.000000        1.841381         4    ;  uncertainty k = 0.178837
        13        12        17        16     9        0.000000        0.055276         1    ;  uncertainty k = 0.149139
        13        12        17        16     9      180.000000       10.940930         2    ;  uncertainty k = 0.285081
        13        12        17        16     9        0.000000       -0.595107         3    ;  uncertainty k = 0.165960
        13        12        17        16     9      180.000000        0.949928         4    ;  uncertainty k = 0.261174
        13        12        17        31     9        0.000000        0.065425         1    ;  uncertainty k = 0.154407
        13        12        17        31     9      180.000000        6.880288         2    ;  uncertainty k = 0.569492
        13        12        17        31     9        0.000000        1.307045         3    ;  uncertainty k = 0.238388
        13        12        17        31     9      180.000000        1.580984         4    ;  uncertainty k = 0.264455
        13        14        15        16     9        0.000000       -0.145838         1    ;  uncertainty k = 0.090645
        13        14        15        16     9      180.000000       11.057201         2    ;  uncertainty k = 0.371394
        13        14        15        16     9        0.000000       -0.343350         3    ;  uncertainty k = 0.267016
        13        14        15        16     9      180.000000        0.889288         4    ;  uncertainty k = 0.302073
        13        14        15        18     9        0.000000        0.213012         1    ;  uncertainty k = 0.165870
        13        14        15        18     9      180.000000        8.409903         2    ;  uncertainty k = 0.512358
        13        14        15        18     9        0.000000        1.391291         3    ;  uncertainty k = 0.345930
        13        14        15        18     9      180.000000        1.926967         4    ;  uncertainty k = 0.263557
        14        13        12        17     9        0.000000        0.055276         1    ;  uncertainty k = 0.149139
        14        13        12        17     9      180.000000       10.940930         2    ;  uncertainty k = 0.285081
        14        13        12        17     9        0.000000       -0.595107         3    ;  uncertainty k = 0.165960
        14        13        12        17     9      180.000000        0.949928         4    ;  uncertainty k = 0.261174
        14        15        16        17     9        0.000000       -0.145838         1    ;  uncertainty k = 0.090645
        14        15        16        17     9      180.000000       11.057201         2    ;  uncertainty k = 0.371394
        14        15        16        17     9        0.000000       -0.343350         3    ;  uncertainty k = 0.267016
        14        15        16        17     9      180.000000        0.889288         4    ;  uncertainty k = 0.302073
        14        15        16        30     9        0.000000        0.099411         1    ;  uncertainty k = 0.169149
        14        15        16        30     9      180.000000        7.277331         2    ;  uncertainty k = 0.487638
        14        15        16        30     9        0.000000        1.399666         3    ;  uncertainty k = 0.329314
        14        15        16        30     9      180.000000        1.678522         4    ;  uncertainty k = 0.191976
        14        15        18        19     9        0.000000       -1.219996         1    ;  uncertainty k = 0.274824
        14        15        18        19     9      180.000000        3.868486         2    ;  uncertainty k = 0.116802
        14        15        18        19     9        0.000000        0.651180         3    ;  uncertainty k = 0.135170
        14        15        18        19     9      180.000000        0.512033         4    ;  uncertainty k = 0.043839
        14        15        18        20     9        0.000000       -0.409205         1    ;  uncertainty k = 0.095578
        14        15        18        20     9      180.000000        2.717205         2    ;  uncertainty k = 0.115248
        14        15        18        20     9        0.000000        0.444820         3    ;  uncertainty k = 0.108148
        14        15        18        20     9      180.000000        0.287592         4    ;  uncertainty k = 0.049350
        14        15        18        21     9        0.000000       -0.409205         1    ;  uncertainty k = 0.095578
        14        15        18        21     9      180.000000        2.717205         2    ;  uncertainty k = 0.115248
        14        15        18        21     9        0.000000        0.444820         3    ;  uncertainty k = 0.108148
        14        15        18        21     9      180.000000        0.287592         4    ;  uncertainty k = 0.049350
        15        14        13        28     9        0.000000       -0.030725         1    ;  uncertainty k = 0.185677
        15        14        13        28     9      180.000000        7.531826         2    ;  uncertainty k = 0.200235
        15        14        13        28     9        0.000000        1.277586         3    ;  uncertainty k = 0.254720
        15        14        13        28     9      180.000000        1.862935         4    ;  uncertainty k = 0.207129
        15        16        17        31     9        0.000000       -0.030725         1    ;  uncertainty k = 0.185677
        15        16        17        31     9      180.000000        7.531826         2    ;  uncertainty k = 0.200235
        15        16        17        31     9        0.000000        1.277586         3    ;  uncertainty k = 0.254720
        15        16        17        31     9      180.000000        1.862935         4    ;  uncertainty k = 0.207129
        15        18        19        32     9        0.000000       14.991890         1    ;  uncertainty k = 0.177214
        15        18        19        32     9      180.000000       -3.682074         2    ;  uncertainty k = 0.239405
        15        18        19        32     9        0.000000        0.980423         3    ;  uncertainty k = 0.057177
        15        18        19        32     9      180.000000        0.176294         4    ;  uncertainty k = 0.044986
        15        18        20        33     9        0.000000        0.351769         1    ;  uncertainty k = 0.319275
        15        18        20        33     9      180.000000       -0.223482         2    ;  uncertainty k = 0.173252
        15        18        20        33     9        0.000000        0.715962         3    ;  uncertainty k = 0.098047
        15        18        20        33     9      180.000000       -0.000790         4    ;  uncertainty k = 0.041032
        15        18        20        34     9        0.000000        0.351769         1    ;  uncertainty k = 0.319275
        15        18        20        34     9      180.000000       -0.223482         2    ;  uncertainty k = 0.173252
        15        18        20        34     9        0.000000        0.715962         3    ;  uncertainty k = 0.098047
        15        18        20        34     9      180.000000       -0.000790         4    ;  uncertainty k = 0.041032
        15        18        20        35     9        0.000000        0.351769         1    ;  uncertainty k = 0.319275
        15        18        20        35     9      180.000000       -0.223482         2    ;  uncertainty k = 0.173252
        15        18        20        35     9        0.000000        0.715962         3    ;  uncertainty k = 0.098047
        15        18        20        35     9      180.000000       -0.000790         4    ;  uncertainty k = 0.041032
        15        18        21        36     9        0.000000        0.351769         1    ;  uncertainty k = 0.319275
        15        18        21        36     9      180.000000       -0.223482         2    ;  uncertainty k = 0.173252
        15        18        21        36     9        0.000000        0.715962         3    ;  uncertainty k = 0.098047
        15        18        21        36     9      180.000000       -0.000790         4    ;  uncertainty k = 0.041032
        15        18        21        37     9        0.000000        0.351769         1    ;  uncertainty k = 0.319275
        15        18        21        37     9      180.000000       -0.223482         2    ;  uncertainty k = 0.173252
        15        18        21        37     9        0.000000        0.715962         3    ;  uncertainty k = 0.098047
        15        18        21        37     9      180.000000       -0.000790         4    ;  uncertainty k = 0.041032
        15        18        21        38     9        0.000000        0.351769         1    ;  uncertainty k = 0.319275
        15        18        21        38     9      180.000000       -0.223482         2    ;  uncertainty k = 0.173252
        15        18        21        38     9        0.000000        0.715962         3    ;  uncertainty k = 0.098047
        15        18        21        38     9      180.000000       -0.000790         4    ;  uncertainty k = 0.041032
        16        15        14        29     9        0.000000        0.099411         1    ;  uncertainty k = 0.169149
        16        15        14        29     9      180.000000        7.277331         2    ;  uncertainty k = 0.487638
        16        15        14        29     9        0.000000        1.399666         3    ;  uncertainty k = 0.329314
        16        15        14        29     9      180.000000        1.678522         4    ;  uncertainty k = 0.191976
        16        15        18        19     9        0.000000       -1.219996         1    ;  uncertainty k = 0.274824
        16        15        18        19     9      180.000000        3.868486         2    ;  uncertainty k = 0.116802
        16        15        18        19     9        0.000000        0.651180         3    ;  uncertainty k = 0.135170
        16        15        18        19     9      180.000000        0.512033         4    ;  uncertainty k = 0.043839
        16        15        18        20     9        0.000000       -0.409205         1    ;  uncertainty k = 0.095578
        16        15        18        20     9      180.000000        2.717205         2    ;  uncertainty k = 0.115248
        16        15        18        20     9        0.000000        0.444820         3    ;  uncertainty k = 0.108148
        16        15        18        20     9      180.000000        0.287592         4    ;  uncertainty k = 0.049350
        16        15        18        21     9        0.000000       -0.409205         1    ;  uncertainty k = 0.095578
        16        15        18        21     9      180.000000        2.717205         2    ;  uncertainty k = 0.115248
        16        15        18        21     9        0.000000        0.444820         3    ;  uncertainty k = 0.108148
        16        15        18        21     9      180.000000        0.287592         4    ;  uncertainty k = 0.049350
        17        12        13        28     9        0.000000        0.065425         1    ;  uncertainty k = 0.154407
        17        12        13        28     9      180.000000        6.880288         2    ;  uncertainty k = 0.569492
        17        12        13        28     9        0.000000        1.307045         3    ;  uncertainty k = 0.238388
        17        12        13        28     9      180.000000        1.580984         4    ;  uncertainty k = 0.264455
        17        16        15        18     9        0.000000        0.213012         1    ;  uncertainty k = 0.165870
        17        16        15        18     9      180.000000        8.409903         2    ;  uncertainty k = 0.512358
        17        16        15        18     9        0.000000        1.391291         3    ;  uncertainty k = 0.345930
        17        16        15        18     9      180.000000        1.926967         4    ;  uncertainty k = 0.263557
        18        15        14        29     9        0.000000       -0.074274         1    ;  uncertainty k = 0.468916
        18        15        14        29     9      180.000000        7.722559         2    ;  uncertainty k = 0.204459
        18        15        14        29     9        0.000000        0.599783         3    ;  uncertainty k = 0.298353
        18        15        14        29     9      180.000000        0.966283         4    ;  uncertainty k = 0.105372
        18        15        16        30     9        0.000000       -0.074274         1    ;  uncertainty k = 0.468916
        18        15        16        30     9      180.000000        7.722559         2    ;  uncertainty k = 0.204459
        18        15        16        30     9        0.000000        0.599783         3    ;  uncertainty k = 0.298353
        18        15        16        30     9      180.000000        0.966283         4    ;  uncertainty k = 0.105372
        19        18        20        33     9        0.000000       -1.961844         1    ;  uncertainty k = 0.551180
        19        18        20        33     9      180.000000       -0.960261         2    ;  uncertainty k = 0.282479
        19        18        20        33     9        0.000000        0.831230         3    ;  uncertainty k = 0.087292
        19        18        20        33     9      180.000000       -0.214593         4    ;  uncertainty k = 0.050561
        19        18        20        34     9        0.000000       -1.961844         1    ;  uncertainty k = 0.551180
        19        18        20        34     9      180.000000       -0.960261         2    ;  uncertainty k = 0.282479
        19        18        20        34     9        0.000000        0.831230         3    ;  uncertainty k = 0.087292
        19        18        20        34     9      180.000000       -0.214593         4    ;  uncertainty k = 0.050561
        19        18        20        35     9        0.000000       -1.961844         1    ;  uncertainty k = 0.551180
        19        18        20        35     9      180.000000       -0.960261         2    ;  uncertainty k = 0.282479
        19        18        20        35     9        0.000000        0.831230         3    ;  uncertainty k = 0.087292
        19        18        20        35     9      180.000000       -0.214593         4    ;  uncertainty k = 0.050561
        19        18        21        36     9        0.000000       -1.961844         1    ;  uncertainty k = 0.551180
        19        18        21        36     9      180.000000       -0.960261         2    ;  uncertainty k = 0.282479
        19        18        21        36     9        0.000000        0.831230         3    ;  uncertainty k = 0.087292
        19        18        21        36     9      180.000000       -0.214593         4    ;  uncertainty k = 0.050561
        19        18        21        37     9        0.000000       -1.961844         1    ;  uncertainty k = 0.551180
        19        18        21        37     9      180.000000       -0.960261         2    ;  uncertainty k = 0.282479
        19        18        21        37     9        0.000000        0.831230         3    ;  uncertainty k = 0.087292
        19        18        21        37     9      180.000000       -0.214593         4    ;  uncertainty k = 0.050561
        19        18        21        38     9        0.000000       -1.961844         1    ;  uncertainty k = 0.551180
        19        18        21        38     9      180.000000       -0.960261         2    ;  uncertainty k = 0.282479
        19        18        21        38     9        0.000000        0.831230         3    ;  uncertainty k = 0.087292
        19        18        21        38     9      180.000000       -0.214593         4    ;  uncertainty k = 0.050561
        20        18        19        32     9        0.000000       12.662223         1    ;  uncertainty k = 0.317843
        20        18        19        32     9      180.000000       -1.675062         2    ;  uncertainty k = 0.239562
        20        18        19        32     9        0.000000        1.060161         3    ;  uncertainty k = 0.149525
        20        18        19        32     9      180.000000        0.360746         4    ;  uncertainty k = 0.102772
        20        18        21        36     9        0.000000       -1.125963         1    ;  uncertainty k = 0.230766
        20        18        21        36     9      180.000000       -0.047878         2    ;  uncertainty k = 0.090865
        20        18        21        36     9        0.000000        0.742644         3    ;  uncertainty k = 0.072669
        20        18        21        36     9      180.000000       -0.033077         4    ;  uncertainty k = 0.054935
        20        18        21        37     9        0.000000       -1.125963         1    ;  uncertainty k = 0.230766
        20        18        21        37     9      180.000000       -0.047878         2    ;  uncertainty k = 0.090865
        20        18        21        37     9        0.000000        0.742644         3    ;  uncertainty k = 0.072669
        20        18        21        37     9      180.000000       -0.033077         4    ;  uncertainty k = 0.054935
        20        18        21        38     9        0.000000       -1.125963         1    ;  uncertainty k = 0.230766
        20        18        21        38     9      180.000000       -0.047878         2    ;  uncertainty k = 0.090865
        20        18        21        38     9        0.000000        0.742644         3    ;  uncertainty k = 0.072669
        20        18        21        38     9      180.000000       -0.033077         4    ;  uncertainty k = 0.054935
        21        18        19        32     9        0.000000       12.662223         1    ;  uncertainty k = 0.317843
        21        18        19        32     9      180.000000       -1.675062         2    ;  uncertainty k = 0.239562
        21        18        19        32     9        0.000000        1.060161         3    ;  uncertainty k = 0.149525
        21        18        19        32     9      180.000000        0.360746         4    ;  uncertainty k = 0.102772
        21        18        20        33     9        0.000000       -1.125963         1    ;  uncertainty k = 0.230766
        21        18        20        33     9      180.000000       -0.047878         2    ;  uncertainty k = 0.090865
        21        18        20        33     9        0.000000        0.742644         3    ;  uncertainty k = 0.072669
        21        18        20        33     9      180.000000       -0.033077         4    ;  uncertainty k = 0.054935
        21        18        20        34     9        0.000000       -1.125963         1    ;  uncertainty k = 0.230766
        21        18        20        34     9      180.000000       -0.047878         2    ;  uncertainty k = 0.090865
        21        18        20        34     9        0.000000        0.742644         3    ;  uncertainty k = 0.072669
        21        18        20        34     9      180.000000       -0.033077         4    ;  uncertainty k = 0.054935
        21        18        20        35     9        0.000000       -1.125963         1    ;  uncertainty k = 0.230766
        21        18        20        35     9      180.000000       -0.047878         2    ;  uncertainty k = 0.090865
        21        18        20        35     9        0.000000        0.742644         3    ;  uncertainty k = 0.072669
        21        18        20        35     9      180.000000       -0.033077         4    ;  uncertainty k = 0.054935
        22         1         3        24     9        0.000000       -0.036578         1    ;  uncertainty k = 0.257428
        22         1         3        24     9      180.000000       10.523557         2    ;  uncertainty k = 0.547001
        22         1         3        24     9        0.000000        0.841708         3    ;  uncertainty k = 0.089311
        22         1         3        24     9      180.000000        1.282385         4    ;  uncertainty k = 0.597696
        24         3         6        25     9        0.000000       -0.120076         1    ;  uncertainty k = 0.238540
        24         3         6        25     9      180.000000        7.438730         2    ;  uncertainty k = 0.589559
        24         3         6        25     9        0.000000       -0.299671         3    ;  uncertainty k = 0.318092
        24         3         6        25     9      180.000000        0.091492         4    ;  uncertainty k = 0.205407
        25         6         7        26     9        0.000000       -0.105477         1    ;  uncertainty k = 0.089707
        25         6         7        26     9      180.000000        7.835341         2    ;  uncertainty k = 0.651320
        25         6         7        26     9        0.000000       -0.242583         3    ;  uncertainty k = 0.297098
        25         6         7        26     9      180.000000        0.160513         4    ;  uncertainty k = 0.176826
        28        13        14        29     9        0.000000       -0.117735         1    ;  uncertainty k = 0.210280
        28        13        14        29     9      180.000000        8.002242         2    ;  uncertainty k = 0.460743
        28        13        14        29     9        0.000000       -0.392489         3    ;  uncertainty k = 0.200264
        28        13        14        29     9      180.000000        0.296121         4    ;  uncertainty k = 0.231306
        30        16        17        31     9        0.000000       -0.117735         1    ;  uncertainty k = 0.210280
        30        16        17        31     9      180.000000        8.002242         2    ;  uncertainty k = 0.460743
        30        16        17        31     9        0.000000       -0.392489         3    ;  uncertainty k = 0.200264
        30        16        17        31     9      180.000000        0.296121         4    ;  uncertainty k = 0.231306

[ dihedrals ] ; impropers
;       ai        aj        ak        al funct           phase               k        pn
         1         2         3        22     4      180.000000       17.192752         2    ;  uncertainty k = 0.143457
         1         3        22         2     4      180.000000       17.192752         2    ;  uncertainty k = 0.143457
         1        22         2         3     4      180.000000       17.192752         2    ;  uncertainty k = 0.143457
         2         1         4         5     4      180.000000       19.549040         2    ;  uncertainty k = 0.129566
         2         4         5         1     4      180.000000       19.549040         2    ;  uncertainty k = 0.129566
         2         5         1         4     4      180.000000       19.549040         2    ;  uncertainty k = 0.129566
         3         1         6        24     4      180.000000        2.958747         2    ;  uncertainty k = 0.265386
         3         6        24         1     4      180.000000        2.958747         2    ;  uncertainty k = 0.265386
         3        24         1         6     4      180.000000        2.958747         2    ;  uncertainty k = 0.265386
         4         2         7         8     4      180.000000        5.761083         2    ;  uncertainty k = 0.230878
         4         7         8         2     4      180.000000        5.761083         2    ;  uncertainty k = 0.230878
         4         8         2         7     4      180.000000        5.761083         2    ;  uncertainty k = 0.230878
         6         3         7        25     4      180.000000        4.137505         2    ;  uncertainty k = 0.214522
         6         7        25         3     4      180.000000        4.137505         2    ;  uncertainty k = 0.214522
         6        25         3         7     4      180.000000        4.137505         2    ;  uncertainty k = 0.214522
         7         4         6        26     4      180.000000        4.635485         2    ;  uncertainty k = 0.136788
         7         6        26         4     4      180.000000        4.635485         2    ;  uncertainty k = 0.136788
         7        26         4         6     4      180.000000        4.635485         2    ;  uncertainty k = 0.136788
         8         4         9        10     4      180.000000       50.512541         2    ;  uncertainty k = 0.011570
         8         9        10         4     4      180.000000       50.512541         2    ;  uncertainty k = 0.011570
         8        10         4         9     4      180.000000       50.512541         2    ;  uncertainty k = 0.011570
         9         8        11        27     4      180.000000        0.658638         2    ;  uncertainty k = 0.517827
         9        11        27         8     4      180.000000        0.658638         2    ;  uncertainty k = 0.517827
         9        27         8        11     4      180.000000        0.658638         2    ;  uncertainty k = 0.517827
        11         5         9        12     4      180.000000       29.840926         2    ;  uncertainty k = 0.052043
        11         9        12         5     4      180.000000       29.840926         2    ;  uncertainty k = 0.052043
        11        12         5         9     4      180.000000       29.840926         2    ;  uncertainty k = 0.052043
        12        11        13        17     4      180.000000        8.906044         2    ;  uncertainty k = 0.242927
        12        13        17        11     4      180.000000        8.906044         2    ;  uncertainty k = 0.242927
        12        17        11        13     4      180.000000        8.906044         2    ;  uncertainty k = 0.242927
        13        12        14        28     4      180.000000        4.118158         2    ;  uncertainty k = 0.143895
        13        14        28        12     4      180.000000        4.118158         2    ;  uncertainty k = 0.143895
        13        28        12        14     4      180.000000        4.118158         2    ;  uncertainty k = 0.143895
        14        13        15        29     4      180.000000        3.498636         2    ;  uncertainty k = 0.120340
        14        15        29        13     4      180.000000        3.498636         2    ;  uncertainty k = 0.120340
        14        29        13        15     4      180.000000        3.498636         2    ;  uncertainty k = 0.120340
        15        14        16        18     4      180.000000       13.022908         2    ;  uncertainty k = 0.059644
        15        16        18        14     4      180.000000       13.022908         2    ;  uncertainty k = 0.059644
        15        18        14        16     4      180.000000       13.022908         2    ;  uncertainty k = 0.059644
        16        15        17        30     4      180.000000        3.498636         2    ;  uncertainty k = 0.120340
        16        17        30        15     4      180.000000        3.498636         2    ;  uncertainty k = 0.120340
        16        30        15        17     4      180.000000        3.498636         2    ;  uncertainty k = 0.120340
        17        12        16        31     4      180.000000        4.118158         2    ;  uncertainty k = 0.143895
        17        16        31        12     4      180.000000        4.118158         2    ;  uncertainty k = 0.143895
        17        31        12        16     4      180.000000        4.118158         2    ;  uncertainty k = 0.143895

[ pairs ]
;       ai        aj funct
         1         7     1
         1         8     1
         1        11     1
         1        25     1
         1        39     1
         1        40     1
         1        41     1
         2         6     1
         2         9     1
         2        10     1
         2        12     1
         2        23     1
         2        24     1
         2        26     1
         3         4     1
         3         5     1
         3        23     1
         3        26     1
         4        11     1
         4        22     1
         4        25     1
         4        27     1
         5         7     1
         5         8     1
         5        13     1
         5        17     1
         5        22     1
         5        27     1
         6         8     1
         6        22     1
         7         9     1
         7        10     1
         7        24     1
         8        12     1
         8        26     1
         9        13     1
         9        17     1
        10        11     1
        10        27     1
        11        14     1
        11        16     1
        11        28     1
        11        31     1
        12        15     1
        12        27     1
        12        29     1
        12        30     1
        13        16     1
        13        18     1
        13        31     1
        14        17     1
        14        19     1
        14        20     1
        14        21     1
        14        30     1
        15        28     1
        15        31     1
        15        32     1
        15        33     1
        15        34     1
        15        35     1
        15        36     1
        15        37     1
        15        38     1
        16        19     1
        16        20     1
        16        21     1
        16        29     1
        17        18     1
        17        28     1
        18        29     1
        18        30     1
        19        33     1
        19        34     1
        19        35     1
        19        36     1
        19        37     1
        19        38     1
        20        32     1
        20        36     1
        20        37     1
        20        38     1
        21        32     1
        21        33     1
        21        34     1
        21        35     1
        22        24     1
        24        25     1
        25        26     1
        28        29     1
        30        31     1
