; ITP file created by ByteFF-joint-25, 2026-02-17 09:47:07.449666

[ atomtypes ]
;name           bonded.type        at.num        mass        charge   ptype           sigma         epsilon
 c0bf                                   6      0.0000       0.00000       A     3.31503e-01     4.13211e-01    ;  uncertainty sigma = 0.000009, epsilon = 0.000782
 c1bf                                   6      0.0000       0.00000       A     3.31510e-01     4.12793e-01    ;  uncertainty sigma = 0.000012, epsilon = 0.000666
 c2bf                                   6      0.0000       0.00000       A     3.31517e-01     4.13100e-01    ;  uncertainty sigma = 0.000002, epsilon = 0.000734
 c3bf                                   6      0.0000       0.00000       A     3.31555e-01     4.14017e-01    ;  uncertainty sigma = 0.000013, epsilon = 0.000860
 n4bf                                   7      0.0000       0.00000       A     3.38451e-01     3.94289e-01    ;  uncertainty sigma = 0.000025, epsilon = 0.001873
 c5bf                                   6      0.0000       0.00000       A     3.31522e-01     4.13253e-01    ;  uncertainty sigma = 0.000003, epsilon = 0.000599
 c6bf                                   6      0.0000       0.00000       A     3.31506e-01     4.13287e-01    ;  uncertainty sigma = 0.000006, epsilon = 0.000750
 c7bf                                   6      0.0000       0.00000       A     3.31535e-01     4.13308e-01    ;  uncertainty sigma = 0.000011, epsilon = 0.001099
 n8bf                                   7      0.0000       0.00000       A     3.26867e-01     4.92512e-01    ;  uncertainty sigma = 0.000088, epsilon = 0.003430
 o9bf                                   8      0.0000       0.00000       A     3.04814e-01     6.11899e-01    ;  uncertainty sigma = 0.000014, epsilon = 0.001624
 c10bf                                  6      0.0000       0.00000       A     3.31514e-01     4.12811e-01    ;  uncertainty sigma = 0.000013, epsilon = 0.001292
 c11bf                                  6      0.0000       0.00000       A     3.31501e-01     4.12880e-01    ;  uncertainty sigma = 0.000017, epsilon = 0.001089
 c12bf                                  6      0.0000       0.00000       A     3.31519e-01     4.13337e-01    ;  uncertainty sigma = 0.000004, epsilon = 0.000604
 c13bf                                  6      0.0000       0.00000       A     3.31522e-01     4.13196e-01    ;  uncertainty sigma = 0.000004, epsilon = 0.000447
 c14bf                                  6      0.0000       0.00000       A     3.31544e-01     4.13202e-01    ;  uncertainty sigma = 0.000004, epsilon = 0.001200
 c15bf                                  6      0.0000       0.00000       A     3.31522e-01     4.13196e-01    ;  uncertainty sigma = 0.000004, epsilon = 0.000447
 c16bf                                  6      0.0000       0.00000       A     3.31519e-01     4.13337e-01    ;  uncertainty sigma = 0.000004, epsilon = 0.000604
 c17bf                                  6      0.0000       0.00000       A     3.39755e-01     4.50272e-01    ;  uncertainty sigma = 0.000025, epsilon = 0.001042
 o18bf                                  8      0.0000       0.00000       A     3.24292e-01     3.89709e-01    ;  uncertainty sigma = 0.000031, epsilon = 0.001714
 c19bf                                  6      0.0000       0.00000       A     3.39763e-01     4.50805e-01    ;  uncertainty sigma = 0.000004, epsilon = 0.000470
 c20bf                                  6      0.0000       0.00000       A     3.39763e-01     4.50805e-01    ;  uncertainty sigma = 0.000004, epsilon = 0.000470
 c21bf                                  6      0.0000       0.00000       A     3.39784e-01     4.51175e-01    ;  uncertainty sigma = 0.000002, epsilon = 0.000727
 h22bf                                  1      0.0000       0.00000       A     2.62560e-01     6.69323e-02    ;  uncertainty sigma = 0.000009, epsilon = 0.000446
 h23bf                                  1      0.0000       0.00000       A     2.62576e-01     6.69724e-02    ;  uncertainty sigma = 0.000009, epsilon = 0.000457
 h24bf                                  1      0.0000       0.00000       A     2.62560e-01     6.69779e-02    ;  uncertainty sigma = 0.000012, epsilon = 0.000618
 h25bf                                  1      0.0000       0.00000       A     1.10651e-01     4.13762e-02    ;  uncertainty sigma = 0.000058, epsilon = 0.001253
 h26bf                                  1      0.0000       0.00000       A     2.62567e-01     6.70632e-02    ;  uncertainty sigma = 0.000011, epsilon = 0.000557
 h27bf                                  1      0.0000       0.00000       A     2.62556e-01     6.70460e-02    ;  uncertainty sigma = 0.000009, epsilon = 0.000514
 h28bf                                  1      0.0000       0.00000       A     2.62556e-01     6.70460e-02    ;  uncertainty sigma = 0.000009, epsilon = 0.000514
 h29bf                                  1      0.0000       0.00000       A     2.62567e-01     6.70632e-02    ;  uncertainty sigma = 0.000011, epsilon = 0.000557
 h30bf                                  1      0.0000       0.00000       A     5.37866e-02     1.91555e-02    ;  uncertainty sigma = 0.000161, epsilon = 0.001189
 h31bf                                  1      0.0000       0.00000       A     2.60031e-01     8.67183e-02    ;  uncertainty sigma = 0.000009, epsilon = 0.000447
 h32bf                                  1      0.0000       0.00000       A     2.60031e-01     8.67183e-02    ;  uncertainty sigma = 0.000009, epsilon = 0.000447
 h33bf                                  1      0.0000       0.00000       A     2.60031e-01     8.67183e-02    ;  uncertainty sigma = 0.000009, epsilon = 0.000447
 h34bf                                  1      0.0000       0.00000       A     2.60031e-01     8.67183e-02    ;  uncertainty sigma = 0.000009, epsilon = 0.000447
 h35bf                                  1      0.0000       0.00000       A     2.60031e-01     8.67183e-02    ;  uncertainty sigma = 0.000009, epsilon = 0.000447
 h36bf                                  1      0.0000       0.00000       A     2.60031e-01     8.67183e-02    ;  uncertainty sigma = 0.000009, epsilon = 0.000447
 h37bf                                  1      0.0000       0.00000       A     2.60033e-01     8.66509e-02    ;  uncertainty sigma = 0.000010, epsilon = 0.000546
 h38bf                                  1      0.0000       0.00000       A     2.60033e-01     8.66509e-02    ;  uncertainty sigma = 0.000010, epsilon = 0.000546
 h39bf                                  1      0.0000       0.00000       A     2.60033e-01     8.66509e-02    ;  uncertainty sigma = 0.000010, epsilon = 0.000546

[ moleculetype ]
;name             nrexcl
 MOL                   3

[ atoms ]
;       nr            type      resi   res      atom      cgnr      charge          mass ; qtot
         1            c0bf         1   UNL        c0         1    -0.07047       12.0110 ; qtot   -0.070
         2            c1bf         1   UNL        c1         2     0.18668       12.0110 ; qtot    0.116
         3            c2bf         1   UNL        c2         3    -0.09552       12.0110 ; qtot    0.021
         4            c3bf         1   UNL        c3         4    -0.20127       12.0110 ; qtot   -0.181
         5            n4bf         1   UNL        n4         5    -0.62217       14.0070 ; qtot   -0.803
         6            c5bf         1   UNL        c5         6    -0.14576       12.0110 ; qtot   -0.949
         7            c6bf         1   UNL        c6         7    -0.06569       12.0110 ; qtot   -1.014
         8            c7bf         1   UNL        c7         8     0.71715       12.0110 ; qtot   -0.297
         9            n8bf         1   UNL        n8         9    -0.50682       14.0070 ; qtot   -0.804
        10            o9bf         1   UNL        o9        10    -0.60889       15.9990 ; qtot   -1.413
        11           c10bf         1   UNL       c10        11     0.56321       12.0110 ; qtot   -0.850
        12           c11bf         1   UNL       c11        12    -0.15139       12.0110 ; qtot   -1.001
        13           c12bf         1   UNL       c12        13    -0.08668       12.0110 ; qtot   -1.088
        14           c13bf         1   UNL       c13        14    -0.12388       12.0110 ; qtot   -1.212
        15           c14bf         1   UNL       c14        15    -0.08876       12.0110 ; qtot   -1.300
        16           c15bf         1   UNL       c15        16    -0.12388       12.0110 ; qtot   -1.424
        17           c16bf         1   UNL       c16        17    -0.08668       12.0110 ; qtot   -1.511
        18           c17bf         1   UNL       c17        18     0.20190       12.0110 ; qtot   -1.309
        19           o18bf         1   UNL       o18        19    -0.60342       15.9990 ; qtot   -1.912
        20           c19bf         1   UNL       c19        20    -0.10277       12.0110 ; qtot   -2.015
        21           c20bf         1   UNL       c20        21    -0.10277       12.0110 ; qtot   -2.118
        22           c21bf         1   UNL       c21        22    -0.03730       12.0110 ; qtot   -2.155
        23           h22bf         1   UNL       h22        23     0.13337        1.0080 ; qtot   -2.022
        24           h23bf         1   UNL       h23        24     0.13854        1.0080 ; qtot   -1.883
        25           h24bf         1   UNL       h24        25     0.15701        1.0080 ; qtot   -1.726
        26           h25bf         1   UNL       h25        26     0.33625        1.0080 ; qtot   -1.390
        27           h26bf         1   UNL       h26        27     0.14623        1.0080 ; qtot   -1.244
        28           h27bf         1   UNL       h27        28     0.14030        1.0080 ; qtot   -1.103
        29           h28bf         1   UNL       h28        29     0.14030        1.0080 ; qtot   -0.963
        30           h29bf         1   UNL       h29        30     0.14623        1.0080 ; qtot   -0.817
        31           h30bf         1   UNL       h30        31     0.40249        1.0080 ; qtot   -0.414
        32           h31bf         1   UNL       h31        32     0.04522        1.0080 ; qtot   -0.369
        33           h32bf         1   UNL       h32        33     0.04522        1.0080 ; qtot   -0.324
        34           h33bf         1   UNL       h33        34     0.04522        1.0080 ; qtot   -0.279
        35           h34bf         1   UNL       h34        35     0.04522        1.0080 ; qtot   -0.234
        36           h35bf         1   UNL       h35        36     0.04522        1.0080 ; qtot   -0.188
        37           h36bf         1   UNL       h36        37     0.04522        1.0080 ; qtot   -0.143
        38           h37bf         1   UNL       h37        38     0.04772        1.0080 ; qtot   -0.095
        39           h38bf         1   UNL       h38        39     0.04772        1.0080 ; qtot   -0.048
        40           h39bf         1   UNL       h39        40     0.04770        1.0080 ; qtot   -0.000

[ bonds ]
;       ai        aj funct               r               k
         1         2     1        0.141738   307912.240674    ;  uncertainty r = 0.000043, k = 23.098492
         1         3     1        0.139071   355738.547705    ;  uncertainty r = 0.000066, k = 6.092801
         1        22     1        0.150719   236309.991016    ;  uncertainty r = 0.000042, k = 2.953713
         2         4     1        0.141910   397573.899951    ;  uncertainty r = 0.000092, k = 12.720459
         2         5     1        0.138805   288698.911230    ;  uncertainty r = 0.000100, k = 25.797033
         3         6     1        0.140877   357835.220996    ;  uncertainty r = 0.000076, k = 2.503180
         3        23     1        0.108828   335293.231494    ;  uncertainty r = 0.000019, k = 0.727887
         4         7     1        0.140083   366331.800342    ;  uncertainty r = 0.000078, k = 5.298268
         4         8     1        0.146503   269255.569043    ;  uncertainty r = 0.000062, k = 8.410076
         5        11     1        0.129708   464193.348828    ;  uncertainty r = 0.000066, k = 10.155082
         6         7     1        0.138701   370826.408203    ;  uncertainty r = 0.000036, k = 3.361376
         6        24     1        0.108750   333838.101465    ;  uncertainty r = 0.000014, k = 1.920414
         7        25     1        0.108569   330738.917871    ;  uncertainty r = 0.000007, k = 1.133783
         8         9     1        0.140166   450601.375586    ;  uncertainty r = 0.000087, k = 16.269873
         8        10     1        0.123476   859457.544922    ;  uncertainty r = 0.000131, k = 11.894376
         9        11     1        0.138912   298725.904004    ;  uncertainty r = 0.000076, k = 21.073722
         9        26     1        0.102058   454589.659180    ;  uncertainty r = 0.000027, k = 4.102090
        11        12     1        0.147299   266765.266748    ;  uncertainty r = 0.000092, k = 12.319740
        12        13     1        0.139881   350469.118408    ;  uncertainty r = 0.000059, k = 3.608169
        12        17     1        0.139881   350469.118408    ;  uncertainty r = 0.000059, k = 3.608169
        13        14     1        0.139215   359042.641064    ;  uncertainty r = 0.000045, k = 3.009368
        13        27     1        0.108751   333157.997168    ;  uncertainty r = 0.000045, k = 1.128357
        14        15     1        0.139630   349504.479639    ;  uncertainty r = 0.000022, k = 3.365375
        14        28     1        0.108801   333642.308447    ;  uncertainty r = 0.000019, k = 1.144891
        15        16     1        0.139630   349504.479639    ;  uncertainty r = 0.000022, k = 3.365375
        15        18     1        0.152147   213548.803735    ;  uncertainty r = 0.000097, k = 3.797993
        16        17     1        0.139215   359042.692139    ;  uncertainty r = 0.000045, k = 3.009361
        16        29     1        0.108801   333642.308447    ;  uncertainty r = 0.000019, k = 1.144891
        17        30     1        0.108751   333157.971631    ;  uncertainty r = 0.000045, k = 1.128363
        18        19     1        0.144782   263188.513672    ;  uncertainty r = 0.000100, k = 11.942343
        18        20     1        0.153487   207492.767627    ;  uncertainty r = 0.000036, k = 5.323968
        18        21     1        0.153487   207492.767627    ;  uncertainty r = 0.000036, k = 5.323966
        19        31     1        0.097230   467409.339160    ;  uncertainty r = 0.000030, k = 3.616173
        20        32     1        0.109572   309908.553125    ;  uncertainty r = 0.000020, k = 1.196961
        20        33     1        0.109572   309908.553125    ;  uncertainty r = 0.000020, k = 1.196961
        20        34     1        0.109572   309908.553125    ;  uncertainty r = 0.000020, k = 1.196961
        21        35     1        0.109572   309908.578662    ;  uncertainty r = 0.000020, k = 1.196954
        21        36     1        0.109572   309908.578662    ;  uncertainty r = 0.000020, k = 1.196954
        21        37     1        0.109572   309908.578662    ;  uncertainty r = 0.000020, k = 1.196954
        22        38     1        0.109449   308986.714551    ;  uncertainty r = 0.000007, k = 1.804046
        22        39     1        0.109449   308986.714551    ;  uncertainty r = 0.000007, k = 1.804045
        22        40     1        0.109449   308986.714551    ;  uncertainty r = 0.000007, k = 1.804045

[ angles ]
;       ai        aj        ak funct           theta             cth
         1         2         4     1      121.450302      405.523359    ;  uncertainty theta = 0.003053, k = 0.140991
         1         2         5     1      117.951584      468.660606    ;  uncertainty theta = 0.008224, k = 0.131915
         1         3         6     1      122.603867      529.343929    ;  uncertainty theta = 0.003439, k = 0.061531
         1         3        23     1      117.796555      280.916630    ;  uncertainty theta = 0.001243, k = 0.091823
         1        22        38     1      109.617905      399.343124    ;  uncertainty theta = 0.001438, k = 0.070879
         1        22        39     1      109.617905      399.343124    ;  uncertainty theta = 0.001438, k = 0.070879
         1        22        40     1      109.617905      399.343124    ;  uncertainty theta = 0.001438, k = 0.070879
         2         1         3     1      118.727745      482.436951    ;  uncertainty theta = 0.002464, k = 0.203324
         2         1        22     1      118.901833      410.452309    ;  uncertainty theta = 0.004797, k = 0.257871
         2         4         7     1      122.089699      442.345796    ;  uncertainty theta = 0.001439, k = 0.141541
         2         4         8     1      117.582741      487.712312    ;  uncertainty theta = 0.003066, k = 0.266968
         2         5        11     1      116.334366      415.763996    ;  uncertainty theta = 0.004825, k = 0.417027
         3         1        22     1      121.790268      434.751060    ;  uncertainty theta = 0.001651, k = 0.188728
         3         6         7     1      120.503334      531.522500    ;  uncertainty theta = 0.001526, k = 0.064109
         3         6        24     1      120.343285      287.466324    ;  uncertainty theta = 0.000960, k = 0.034602
         4         2         5     1      122.970421      563.794830    ;  uncertainty theta = 0.006405, k = 0.080248
         4         7         6     1      119.380043      512.750841    ;  uncertainty theta = 0.001061, k = 0.145588
         4         7        25     1      119.266296      248.176237    ;  uncertainty theta = 0.002200, k = 0.166056
         4         8         9     1      109.129456      389.916323    ;  uncertainty theta = 0.007321, k = 0.293789
         4         8        10     1      128.112076      512.534893    ;  uncertainty theta = 0.003081, k = 0.117085
         5        11         9     1      123.546104      675.013921    ;  uncertainty theta = 0.006250, k = 0.156742
         5        11        12     1      122.622452      444.036608    ;  uncertainty theta = 0.003558, k = 0.173159
         6         3        23     1      119.746498      289.224267    ;  uncertainty theta = 0.001358, k = 0.093116
         6         7        25     1      121.540604      278.287042    ;  uncertainty theta = 0.001758, k = 0.078146
         7         4         8     1      118.236290      404.020309    ;  uncertainty theta = 0.004249, k = 0.145640
         7         6        24     1      120.229477      286.290245    ;  uncertainty theta = 0.001687, k = 0.069467
         8         9        11     1      120.644775      497.915089    ;  uncertainty theta = 0.003124, k = 0.157719
         8         9        26     1      115.479149      354.368571    ;  uncertainty theta = 0.007416, k = 0.127168
         9         8        10     1      124.916077      817.875789    ;  uncertainty theta = 0.002988, k = 0.076415
         9        11        12     1      116.755844      514.526691    ;  uncertainty theta = 0.005048, k = 0.245005
        11         9        26     1      116.878708      330.011947    ;  uncertainty theta = 0.006468, k = 0.213208
        11        12        13     1      117.899368      401.664000    ;  uncertainty theta = 0.002675, k = 0.113742
        11        12        17     1      117.899368      401.664000    ;  uncertainty theta = 0.002675, k = 0.113742
        12        13        14     1      121.936867      513.032419    ;  uncertainty theta = 0.001595, k = 0.037410
        12        13        27     1      118.373268      267.332069    ;  uncertainty theta = 0.002929, k = 0.046096
        12        17        16     1      121.936867      513.032419    ;  uncertainty theta = 0.001595, k = 0.037410
        12        17        30     1      118.373268      267.332069    ;  uncertainty theta = 0.002929, k = 0.046096
        13        12        17     1      120.778748      421.634435    ;  uncertainty theta = 0.002896, k = 0.258077
        13        14        15     1      121.733681      516.745292    ;  uncertainty theta = 0.002295, k = 0.052086
        13        14        28     1      119.605568      285.026126    ;  uncertainty theta = 0.002260, k = 0.028336
        14        13        27     1      120.211563      284.749144    ;  uncertainty theta = 0.002936, k = 0.063323
        14        15        16     1      119.700928      459.849474    ;  uncertainty theta = 0.002192, k = 0.105996
        14        15        18     1      119.835281      368.426622    ;  uncertainty theta = 0.004163, k = 0.173853
        15        14        28     1      118.678185      262.012993    ;  uncertainty theta = 0.001113, k = 0.066500
        15        16        17     1      121.733681      516.745292    ;  uncertainty theta = 0.002295, k = 0.052086
        15        16        29     1      118.678185      262.012993    ;  uncertainty theta = 0.001113, k = 0.066500
        15        18        19     1      109.685776      703.897222    ;  uncertainty theta = 0.001965, k = 0.142449
        15        18        20     1      109.715744      550.550008    ;  uncertainty theta = 0.001726, k = 0.033764
        15        18        21     1      109.715744      550.550008    ;  uncertainty theta = 0.001726, k = 0.033765
        16        15        18     1      119.835281      368.426622    ;  uncertainty theta = 0.004163, k = 0.173853
        16        17        30     1      120.211563      284.749144    ;  uncertainty theta = 0.002936, k = 0.063323
        17        16        29     1      119.605568      285.026126    ;  uncertainty theta = 0.002260, k = 0.028336
        18        19        31     1      107.710533      483.511457    ;  uncertainty theta = 0.002078, k = 0.098569
        18        20        32     1      107.275742      375.507488    ;  uncertainty theta = 0.000927, k = 0.039228
        18        20        33     1      107.275742      375.507488    ;  uncertainty theta = 0.000927, k = 0.039228
        18        20        34     1      107.275742      375.507488    ;  uncertainty theta = 0.000927, k = 0.039228
        18        21        35     1      107.275742      375.507520    ;  uncertainty theta = 0.000927, k = 0.039228
        18        21        36     1      107.275742      375.507520    ;  uncertainty theta = 0.000927, k = 0.039228
        18        21        37     1      107.275742      375.507520    ;  uncertainty theta = 0.000927, k = 0.039228
        19        18        20     1      108.829308      692.110441    ;  uncertainty theta = 0.002464, k = 0.098427
        19        18        21     1      108.829308      692.110441    ;  uncertainty theta = 0.002464, k = 0.098428
        20        18        21     1      110.087318      564.121513    ;  uncertainty theta = 0.001573, k = 0.073265
        32        20        33     1      105.686974      317.730736    ;  uncertainty theta = 0.001105, k = 0.008156
        32        20        34     1      105.686974      317.730736    ;  uncertainty theta = 0.001105, k = 0.008156
        33        20        34     1      105.686974      317.730736    ;  uncertainty theta = 0.001105, k = 0.008156
        35        21        36     1      105.686974      317.730768    ;  uncertainty theta = 0.001105, k = 0.008156
        35        21        37     1      105.686974      317.730768    ;  uncertainty theta = 0.001105, k = 0.008156
        36        21        37     1      105.686974      317.730768    ;  uncertainty theta = 0.001105, k = 0.008156
        38        22        39     1      106.779495      316.138561    ;  uncertainty theta = 0.001089, k = 0.030287
        38        22        40     1      106.779495      316.138593    ;  uncertainty theta = 0.001089, k = 0.030288
        39        22        40     1      106.779495      316.138561    ;  uncertainty theta = 0.001089, k = 0.030287

[ dihedrals ] ; propers for gromacs 4.5 or higher, use funct 9
;       ai        aj        ak        al funct           phase               k        pn
         1         2         4         7     9        0.000000        0.047532         1    ;  uncertainty k = 0.366195
         1         2         4         7     9      180.000000        6.667402         2    ;  uncertainty k = 0.864927
         1         2         4         7     9        0.000000        0.315917         3    ;  uncertainty k = 0.190557
         1         2         4         7     9      180.000000        1.360707         4    ;  uncertainty k = 0.284162
         1         2         4         8     9        0.000000       -0.011711         1    ;  uncertainty k = 0.602352
         1         2         4         8     9      180.000000        6.096519         2    ;  uncertainty k = 0.888000
         1         2         4         8     9        0.000000        0.932056         3    ;  uncertainty k = 0.256381
         1         2         4         8     9      180.000000        1.484526         4    ;  uncertainty k = 0.171713
         1         2         5        11     9        0.000000        1.580886         1    ;  uncertainty k = 2.277416
         1         2         5        11     9      180.000000        5.116707         2    ;  uncertainty k = 1.501216
         1         2         5        11     9        0.000000        2.176133         3    ;  uncertainty k = 0.390485
         1         2         5        11     9      180.000000        0.168372         4    ;  uncertainty k = 0.456386
         1         3         6         7     9        0.000000       -0.035743         1    ;  uncertainty k = 0.382801
         1         3         6         7     9      180.000000       12.014897         2    ;  uncertainty k = 0.559009
         1         3         6         7     9        0.000000       -0.797182         3    ;  uncertainty k = 0.644419
         1         3         6         7     9      180.000000        0.728619         4    ;  uncertainty k = 0.246854
         1         3         6        24     9        0.000000        0.067603         1    ;  uncertainty k = 0.252013
         1         3         6        24     9      180.000000        6.522071         2    ;  uncertainty k = 0.434693
         1         3         6        24     9        0.000000        1.439816         3    ;  uncertainty k = 0.232439
         1         3         6        24     9      180.000000        1.637474         4    ;  uncertainty k = 0.084674
         2         1         3         6     9        0.000000        0.014395         1    ;  uncertainty k = 0.240529
         2         1         3         6     9      180.000000       13.777914         2    ;  uncertainty k = 0.404128
         2         1         3         6     9        0.000000        0.140758         3    ;  uncertainty k = 0.234678
         2         1         3         6     9      180.000000        0.918716         4    ;  uncertainty k = 0.299229
         2         1         3        23     9        0.000000        0.257626         1    ;  uncertainty k = 0.230206
         2         1         3        23     9      180.000000        9.778915         2    ;  uncertainty k = 0.463148
         2         1         3        23     9        0.000000        1.451834         3    ;  uncertainty k = 0.183238
         2         1         3        23     9      180.000000        1.523298         4    ;  uncertainty k = 0.151481
         2         1        22        38     9        0.000000        0.059214         1    ;  uncertainty k = 0.233330
         2         1        22        38     9      180.000000        2.944323         2    ;  uncertainty k = 0.476216
         2         1        22        38     9        0.000000        0.417807         3    ;  uncertainty k = 0.092128
         2         1        22        38     9      180.000000        0.369626         4    ;  uncertainty k = 0.041520
         2         1        22        39     9        0.000000        0.059214         1    ;  uncertainty k = 0.233330
         2         1        22        39     9      180.000000        2.944323         2    ;  uncertainty k = 0.476216
         2         1        22        39     9        0.000000        0.417807         3    ;  uncertainty k = 0.092128
         2         1        22        39     9      180.000000        0.369626         4    ;  uncertainty k = 0.041520
         2         1        22        40     9        0.000000        0.059214         1    ;  uncertainty k = 0.233330
         2         1        22        40     9      180.000000        2.944323         2    ;  uncertainty k = 0.476216
         2         1        22        40     9        0.000000        0.417807         3    ;  uncertainty k = 0.092128
         2         1        22        40     9      180.000000        0.369626         4    ;  uncertainty k = 0.041520
         2         4         7         6     9        0.000000       -0.049242         1    ;  uncertainty k = 0.270441
         2         4         7         6     9      180.000000       12.026745         2    ;  uncertainty k = 0.405950
         2         4         7         6     9        0.000000       -0.688249         3    ;  uncertainty k = 0.454218
         2         4         7         6     9      180.000000        0.861551         4    ;  uncertainty k = 0.251164
         2         4         7        25     9        0.000000       -0.006439         1    ;  uncertainty k = 0.462319
         2         4         7        25     9      180.000000        7.278916         2    ;  uncertainty k = 0.701248
         2         4         7        25     9        0.000000        1.293258         3    ;  uncertainty k = 0.321341
         2         4         7        25     9      180.000000        1.357855         4    ;  uncertainty k = 0.118613
         2         4         8         9     9        0.000000       -1.404658         1    ;  uncertainty k = 0.938073
         2         4         8         9     9      180.000000        2.340867         2    ;  uncertainty k = 0.978771
         2         4         8         9     9        0.000000       -0.266389         3    ;  uncertainty k = 0.630016
         2         4         8         9     9      180.000000        0.581200         4    ;  uncertainty k = 0.267038
         2         4         8        10     9        0.000000       -2.568665         1    ;  uncertainty k = 0.850257
         2         4         8        10     9      180.000000        5.371529         2    ;  uncertainty k = 0.652503
         2         4         8        10     9        0.000000        0.250903         3    ;  uncertainty k = 0.260608
         2         4         8        10     9      180.000000       -0.174954         4    ;  uncertainty k = 0.199256
         2         5        11         9     9        0.000000       -0.767105         1    ;  uncertainty k = 0.419809
         2         5        11         9     9      180.000000       23.722077         2    ;  uncertainty k = 0.154935
         2         5        11         9     9        0.000000        1.754487         3    ;  uncertainty k = 0.307717
         2         5        11         9     9      180.000000        1.472405         4    ;  uncertainty k = 0.412782
         2         5        11        12     9        0.000000       -0.574235         1    ;  uncertainty k = 0.562556
         2         5        11        12     9      180.000000       18.877219         2    ;  uncertainty k = 0.446408
         2         5        11        12     9        0.000000        2.723252         3    ;  uncertainty k = 0.432582
         2         5        11        12     9      180.000000        1.344824         4    ;  uncertainty k = 0.361836
         3         1         2         4     9        0.000000        0.422753         1    ;  uncertainty k = 0.818773
         3         1         2         4     9      180.000000        6.433210         2    ;  uncertainty k = 0.808558
         3         1         2         4     9        0.000000        0.304019         3    ;  uncertainty k = 0.254842
         3         1         2         4     9      180.000000        1.040381         4    ;  uncertainty k = 0.314373
         3         1         2         5     9        0.000000        0.332247         1    ;  uncertainty k = 0.495006
         3         1         2         5     9      180.000000        8.996617         2    ;  uncertainty k = 0.208856
         3         1         2         5     9        0.000000        0.943767         3    ;  uncertainty k = 0.129600
         3         1         2         5     9      180.000000        1.385474         4    ;  uncertainty k = 0.231915
         3         1        22        38     9        0.000000       -0.047764         1    ;  uncertainty k = 0.145731
         3         1        22        38     9      180.000000        1.950878         2    ;  uncertainty k = 0.311027
         3         1        22        38     9        0.000000        0.315822         3    ;  uncertainty k = 0.067026
         3         1        22        38     9      180.000000        0.240063         4    ;  uncertainty k = 0.020901
         3         1        22        39     9        0.000000       -0.047764         1    ;  uncertainty k = 0.145731
         3         1        22        39     9      180.000000        1.950878         2    ;  uncertainty k = 0.311027
         3         1        22        39     9        0.000000        0.315822         3    ;  uncertainty k = 0.067026
         3         1        22        39     9      180.000000        0.240063         4    ;  uncertainty k = 0.020901
         3         1        22        40     9        0.000000       -0.047764         1    ;  uncertainty k = 0.145731
         3         1        22        40     9      180.000000        1.950878         2    ;  uncertainty k = 0.311027
         3         1        22        40     9        0.000000        0.315822         3    ;  uncertainty k = 0.067026
         3         1        22        40     9      180.000000        0.240063         4    ;  uncertainty k = 0.020901
         3         6         7         4     9        0.000000       -0.074681         1    ;  uncertainty k = 0.293891
         3         6         7         4     9      180.000000       14.159655         2    ;  uncertainty k = 0.374114
         3         6         7         4     9        0.000000       -0.717903         3    ;  uncertainty k = 0.624111
         3         6         7         4     9      180.000000        0.850078         4    ;  uncertainty k = 0.350595
         3         6         7        25     9        0.000000        0.165520         1    ;  uncertainty k = 0.042778
         3         6         7        25     9      180.000000        8.504079         2    ;  uncertainty k = 0.413068
         3         6         7        25     9        0.000000        1.375754         3    ;  uncertainty k = 0.319410
         3         6         7        25     9      180.000000        1.772425         4    ;  uncertainty k = 0.177637
         4         2         1        22     9        0.000000        0.233172         1    ;  uncertainty k = 0.449120
         4         2         1        22     9      180.000000        6.329709         2    ;  uncertainty k = 0.437007
         4         2         1        22     9        0.000000        1.251360         3    ;  uncertainty k = 0.313825
         4         2         1        22     9      180.000000        1.370314         4    ;  uncertainty k = 0.196422
         4         2         5        11     9        0.000000        1.309356         1    ;  uncertainty k = 2.176118
         4         2         5        11     9      180.000000        3.933248         2    ;  uncertainty k = 1.602010
         4         2         5        11     9        0.000000        1.594058         3    ;  uncertainty k = 0.722155
         4         2         5        11     9      180.000000        0.344617         4    ;  uncertainty k = 0.499964
         4         7         6        24     9        0.000000        0.231781         1    ;  uncertainty k = 0.262675
         4         7         6        24     9      180.000000        9.025422         2    ;  uncertainty k = 0.232992
         4         7         6        24     9        0.000000        1.521182         3    ;  uncertainty k = 0.255362
         4         7         6        24     9      180.000000        1.802680         4    ;  uncertainty k = 0.140911
         4         8         9        11     9        0.000000        0.214289         1    ;  uncertainty k = 1.621725
         4         8         9        11     9      180.000000        3.974299         2    ;  uncertainty k = 1.258285
         4         8         9        11     9        0.000000        0.605569         3    ;  uncertainty k = 0.240822
         4         8         9        11     9      180.000000        0.493586         4    ;  uncertainty k = 0.358384
         4         8         9        26     9        0.000000        2.517521         1    ;  uncertainty k = 2.357763
         4         8         9        26     9      180.000000        5.067290         2    ;  uncertainty k = 0.927286
         4         8         9        26     9        0.000000        1.748426         3    ;  uncertainty k = 0.090933
         4         8         9        26     9      180.000000        0.004645         4    ;  uncertainty k = 0.107152
         5         2         1        22     9        0.000000        0.059296         1    ;  uncertainty k = 0.059105
         5         2         1        22     9      180.000000       10.105367         2    ;  uncertainty k = 0.303807
         5         2         1        22     9        0.000000        0.940227         3    ;  uncertainty k = 0.320521
         5         2         1        22     9      180.000000        1.213179         4    ;  uncertainty k = 0.317096
         5         2         4         7     9        0.000000        0.100416         1    ;  uncertainty k = 0.435412
         5         2         4         7     9      180.000000        8.337836         2    ;  uncertainty k = 0.514894
         5         2         4         7     9        0.000000        0.762152         3    ;  uncertainty k = 0.313231
         5         2         4         7     9      180.000000        1.477393         4    ;  uncertainty k = 0.162322
         5         2         4         8     9        0.000000       -0.290192         1    ;  uncertainty k = 0.445392
         5         2         4         8     9      180.000000        7.258814         2    ;  uncertainty k = 0.788676
         5         2         4         8     9        0.000000        1.057288         3    ;  uncertainty k = 0.449428
         5         2         4         8     9      180.000000        1.584673         4    ;  uncertainty k = 0.181674
         5        11         9         8     9        0.000000        0.227605         1    ;  uncertainty k = 0.771949
         5        11         9         8     9      180.000000        7.225994         2    ;  uncertainty k = 0.707303
         5        11         9         8     9        0.000000        0.552128         3    ;  uncertainty k = 0.714951
         5        11         9         8     9      180.000000        0.383782         4    ;  uncertainty k = 0.217501
         5        11         9        26     9        0.000000        6.065384         1    ;  uncertainty k = 1.650690
         5        11         9        26     9      180.000000       11.046837         2    ;  uncertainty k = 0.751346
         5        11         9        26     9        0.000000        1.163981         3    ;  uncertainty k = 0.602529
         5        11         9        26     9      180.000000       -0.243028         4    ;  uncertainty k = 0.111389
         5        11        12        13     9        0.000000        0.849539         1    ;  uncertainty k = 0.689938
         5        11        12        13     9      180.000000        3.947750         2    ;  uncertainty k = 0.270916
         5        11        12        13     9        0.000000        0.583736         3    ;  uncertainty k = 0.193985
         5        11        12        13     9      180.000000       -0.119244         4    ;  uncertainty k = 0.160217
         5        11        12        17     9        0.000000        0.849539         1    ;  uncertainty k = 0.689938
         5        11        12        17     9      180.000000        3.947750         2    ;  uncertainty k = 0.270916
         5        11        12        17     9        0.000000        0.583736         3    ;  uncertainty k = 0.193985
         5        11        12        17     9      180.000000       -0.119244         4    ;  uncertainty k = 0.160217
         6         3         1        22     9        0.000000        0.184478         1    ;  uncertainty k = 0.280102
         6         3         1        22     9      180.000000       12.189432         2    ;  uncertainty k = 0.514821
         6         3         1        22     9        0.000000        1.325771         3    ;  uncertainty k = 0.398430
         6         3         1        22     9      180.000000        1.760195         4    ;  uncertainty k = 0.278931
         6         7         4         8     9        0.000000        0.005113         1    ;  uncertainty k = 0.367741
         6         7         4         8     9      180.000000        9.414878         2    ;  uncertainty k = 0.792515
         6         7         4         8     9        0.000000        1.158748         3    ;  uncertainty k = 0.248665
         6         7         4         8     9      180.000000        1.799242         4    ;  uncertainty k = 0.320880
         7         4         8         9     9        0.000000       -0.084199         1    ;  uncertainty k = 0.931776
         7         4         8         9     9      180.000000        2.938540         2    ;  uncertainty k = 0.611662
         7         4         8         9     9        0.000000        0.579230         3    ;  uncertainty k = 0.354229
         7         4         8         9     9      180.000000        0.550684         4    ;  uncertainty k = 0.230356
         7         4         8        10     9        0.000000       -1.940548         1    ;  uncertainty k = 0.702272
         7         4         8        10     9      180.000000        5.354042         2    ;  uncertainty k = 0.701247
         7         4         8        10     9        0.000000        0.580405         3    ;  uncertainty k = 0.288890
         7         4         8        10     9      180.000000       -0.162385         4    ;  uncertainty k = 0.106068
         7         6         3        23     9        0.000000        0.084907         1    ;  uncertainty k = 0.404980
         7         6         3        23     9      180.000000        7.172958         2    ;  uncertainty k = 0.309181
         7         6         3        23     9        0.000000        1.425098         3    ;  uncertainty k = 0.202911
         7         6         3        23     9      180.000000        1.608171         4    ;  uncertainty k = 0.068978
         8         4         7        25     9        0.000000       -0.424572         1    ;  uncertainty k = 0.646725
         8         4         7        25     9      180.000000        7.924597         2    ;  uncertainty k = 0.286669
         8         4         7        25     9        0.000000        0.992467         3    ;  uncertainty k = 0.239763
         8         4         7        25     9      180.000000        1.197947         4    ;  uncertainty k = 0.110683
         8         9        11        12     9        0.000000        1.041340         1    ;  uncertainty k = 0.762506
         8         9        11        12     9      180.000000        5.581587         2    ;  uncertainty k = 0.762292
         8         9        11        12     9        0.000000        0.539251         3    ;  uncertainty k = 0.338213
         8         9        11        12     9      180.000000       -0.096052         4    ;  uncertainty k = 0.324527
         9        11        12        13     9        0.000000       -0.040931         1    ;  uncertainty k = 0.337416
         9        11        12        13     9      180.000000        4.137388         2    ;  uncertainty k = 0.396930
         9        11        12        13     9        0.000000        0.554333         3    ;  uncertainty k = 0.127249
         9        11        12        13     9      180.000000       -0.118801         4    ;  uncertainty k = 0.033161
         9        11        12        17     9        0.000000       -0.040931         1    ;  uncertainty k = 0.337416
         9        11        12        17     9      180.000000        4.137388         2    ;  uncertainty k = 0.396930
         9        11        12        17     9        0.000000        0.554333         3    ;  uncertainty k = 0.127249
         9        11        12        17     9      180.000000       -0.118801         4    ;  uncertainty k = 0.033161
        10         8         9        11     9        0.000000        0.181614         1    ;  uncertainty k = 1.161335
        10         8         9        11     9      180.000000       11.159465         2    ;  uncertainty k = 0.457053
        10         8         9        11     9        0.000000        1.308694         3    ;  uncertainty k = 0.362854
        10         8         9        11     9      180.000000       -0.491811         4    ;  uncertainty k = 0.402392
        10         8         9        26     9        0.000000        1.569851         1    ;  uncertainty k = 2.560978
        10         8         9        26     9      180.000000        9.183518         2    ;  uncertainty k = 0.598066
        10         8         9        26     9        0.000000        0.745363         3    ;  uncertainty k = 0.514766
        10         8         9        26     9      180.000000       -0.107224         4    ;  uncertainty k = 0.058170
        11        12        13        14     9        0.000000        0.103896         1    ;  uncertainty k = 0.171614
        11        12        13        14     9      180.000000        9.075489         2    ;  uncertainty k = 0.620616
        11        12        13        14     9        0.000000        1.342468         3    ;  uncertainty k = 0.277439
        11        12        13        14     9      180.000000        1.695511         4    ;  uncertainty k = 0.188755
        11        12        13        27     9        0.000000       -0.281779         1    ;  uncertainty k = 0.189176
        11        12        13        27     9      180.000000        7.205591         2    ;  uncertainty k = 0.258555
        11        12        13        27     9        0.000000        0.706769         3    ;  uncertainty k = 0.159388
        11        12        13        27     9      180.000000        1.047481         4    ;  uncertainty k = 0.162862
        11        12        17        16     9        0.000000        0.103896         1    ;  uncertainty k = 0.171614
        11        12        17        16     9      180.000000        9.075489         2    ;  uncertainty k = 0.620616
        11        12        17        16     9        0.000000        1.342468         3    ;  uncertainty k = 0.277439
        11        12        17        16     9      180.000000        1.695511         4    ;  uncertainty k = 0.188755
        11        12        17        30     9        0.000000       -0.281779         1    ;  uncertainty k = 0.189176
        11        12        17        30     9      180.000000        7.205591         2    ;  uncertainty k = 0.258555
        11        12        17        30     9        0.000000        0.706769         3    ;  uncertainty k = 0.159388
        11        12        17        30     9      180.000000        1.047481         4    ;  uncertainty k = 0.162862
        12        11         9        26     9        0.000000        0.920198         1    ;  uncertainty k = 0.137885
        12        11         9        26     9      180.000000        4.697666         2    ;  uncertainty k = 0.897646
        12        11         9        26     9        0.000000        1.357235         3    ;  uncertainty k = 0.258734
        12        11         9        26     9      180.000000       -0.075011         4    ;  uncertainty k = 0.266243
        12        13        14        15     9        0.000000       -0.133648         1    ;  uncertainty k = 0.232408
        12        13        14        15     9      180.000000       12.534119         2    ;  uncertainty k = 0.264132
        12        13        14        15     9        0.000000       -0.659583         3    ;  uncertainty k = 0.473408
        12        13        14        15     9      180.000000        0.896721         4    ;  uncertainty k = 0.301178
        12        13        14        28     9        0.000000        0.104452         1    ;  uncertainty k = 0.123159
        12        13        14        28     9      180.000000        8.153177         2    ;  uncertainty k = 0.285565
        12        13        14        28     9        0.000000        1.386423         3    ;  uncertainty k = 0.199866
        12        13        14        28     9      180.000000        1.841381         4    ;  uncertainty k = 0.178837
        12        17        16        15     9        0.000000       -0.133648         1    ;  uncertainty k = 0.232408
        12        17        16        15     9      180.000000       12.534119         2    ;  uncertainty k = 0.264132
        12        17        16        15     9        0.000000       -0.659583         3    ;  uncertainty k = 0.473408
        12        17        16        15     9      180.000000        0.896721         4    ;  uncertainty k = 0.301178
        12        17        16        29     9        0.000000        0.104452         1    ;  uncertainty k = 0.123159
        12        17        16        29     9      180.000000        8.153177         2    ;  uncertainty k = 0.285565
        12        17        16        29     9        0.000000        1.386423         3    ;  uncertainty k = 0.199866
        12        17        16        29     9      180.000000        1.841381         4    ;  uncertainty k = 0.178837
        13        12        17        16     9        0.000000        0.055276         1    ;  uncertainty k = 0.149139
        13        12        17        16     9      180.000000       10.940930         2    ;  uncertainty k = 0.285081
        13        12        17        16     9        0.000000       -0.595107         3    ;  uncertainty k = 0.165960
        13        12        17        16     9      180.000000        0.949928         4    ;  uncertainty k = 0.261174
        13        12        17        30     9        0.000000        0.065425         1    ;  uncertainty k = 0.154407
        13        12        17        30     9      180.000000        6.880288         2    ;  uncertainty k = 0.569492
        13        12        17        30     9        0.000000        1.307045         3    ;  uncertainty k = 0.238388
        13        12        17        30     9      180.000000        1.580984         4    ;  uncertainty k = 0.264455
        13        14        15        16     9        0.000000       -0.145838         1    ;  uncertainty k = 0.090645
        13        14        15        16     9      180.000000       11.057201         2    ;  uncertainty k = 0.371394
        13        14        15        16     9        0.000000       -0.343350         3    ;  uncertainty k = 0.267016
        13        14        15        16     9      180.000000        0.889288         4    ;  uncertainty k = 0.302073
        13        14        15        18     9        0.000000        0.213012         1    ;  uncertainty k = 0.165870
        13        14        15        18     9      180.000000        8.409903         2    ;  uncertainty k = 0.512358
        13        14        15        18     9        0.000000        1.391291         3    ;  uncertainty k = 0.345930
        13        14        15        18     9      180.000000        1.926967         4    ;  uncertainty k = 0.263557
        14        13        12        17     9        0.000000        0.055276         1    ;  uncertainty k = 0.149139
        14        13        12        17     9      180.000000       10.940930         2    ;  uncertainty k = 0.285081
        14        13        12        17     9        0.000000       -0.595107         3    ;  uncertainty k = 0.165960
        14        13        12        17     9      180.000000        0.949928         4    ;  uncertainty k = 0.261174
        14        15        16        17     9        0.000000       -0.145838         1    ;  uncertainty k = 0.090645
        14        15        16        17     9      180.000000       11.057201         2    ;  uncertainty k = 0.371394
        14        15        16        17     9        0.000000       -0.343350         3    ;  uncertainty k = 0.267016
        14        15        16        17     9      180.000000        0.889288         4    ;  uncertainty k = 0.302073
        14        15        16        29     9        0.000000        0.099411         1    ;  uncertainty k = 0.169149
        14        15        16        29     9      180.000000        7.277331         2    ;  uncertainty k = 0.487638
        14        15        16        29     9        0.000000        1.399666         3    ;  uncertainty k = 0.329314
        14        15        16        29     9      180.000000        1.678522         4    ;  uncertainty k = 0.191976
        14        15        18        19     9        0.000000       -1.219996         1    ;  uncertainty k = 0.274824
        14        15        18        19     9      180.000000        3.868486         2    ;  uncertainty k = 0.116802
        14        15        18        19     9        0.000000        0.651180         3    ;  uncertainty k = 0.135170
        14        15        18        19     9      180.000000        0.512033         4    ;  uncertainty k = 0.043839
        14        15        18        20     9        0.000000       -0.409205         1    ;  uncertainty k = 0.095578
        14        15        18        20     9      180.000000        2.717205         2    ;  uncertainty k = 0.115248
        14        15        18        20     9        0.000000        0.444820         3    ;  uncertainty k = 0.108148
        14        15        18        20     9      180.000000        0.287592         4    ;  uncertainty k = 0.049350
        14        15        18        21     9        0.000000       -0.409205         1    ;  uncertainty k = 0.095576
        14        15        18        21     9      180.000000        2.717206         2    ;  uncertainty k = 0.115248
        14        15        18        21     9        0.000000        0.444819         3    ;  uncertainty k = 0.108147
        14        15        18        21     9      180.000000        0.287592         4    ;  uncertainty k = 0.049350
        15        14        13        27     9        0.000000       -0.030725         1    ;  uncertainty k = 0.185677
        15        14        13        27     9      180.000000        7.531826         2    ;  uncertainty k = 0.200235
        15        14        13        27     9        0.000000        1.277586         3    ;  uncertainty k = 0.254720
        15        14        13        27     9      180.000000        1.862935         4    ;  uncertainty k = 0.207129
        15        16        17        30     9        0.000000       -0.030725         1    ;  uncertainty k = 0.185677
        15        16        17        30     9      180.000000        7.531826         2    ;  uncertainty k = 0.200235
        15        16        17        30     9        0.000000        1.277586         3    ;  uncertainty k = 0.254720
        15        16        17        30     9      180.000000        1.862935         4    ;  uncertainty k = 0.207129
        15        18        19        31     9        0.000000       14.991890         1    ;  uncertainty k = 0.177214
        15        18        19        31     9      180.000000       -3.682074         2    ;  uncertainty k = 0.239405
        15        18        19        31     9        0.000000        0.980423         3    ;  uncertainty k = 0.057177
        15        18        19        31     9      180.000000        0.176294         4    ;  uncertainty k = 0.044986
        15        18        20        32     9        0.000000        0.351769         1    ;  uncertainty k = 0.319275
        15        18        20        32     9      180.000000       -0.223482         2    ;  uncertainty k = 0.173252
        15        18        20        32     9        0.000000        0.715962         3    ;  uncertainty k = 0.098047
        15        18        20        32     9      180.000000       -0.000790         4    ;  uncertainty k = 0.041032
        15        18        20        33     9        0.000000        0.351769         1    ;  uncertainty k = 0.319275
        15        18        20        33     9      180.000000       -0.223482         2    ;  uncertainty k = 0.173252
        15        18        20        33     9        0.000000        0.715962         3    ;  uncertainty k = 0.098047
        15        18        20        33     9      180.000000       -0.000790         4    ;  uncertainty k = 0.041032
        15        18        20        34     9        0.000000        0.351769         1    ;  uncertainty k = 0.319275
        15        18        20        34     9      180.000000       -0.223482         2    ;  uncertainty k = 0.173252
        15        18        20        34     9        0.000000        0.715962         3    ;  uncertainty k = 0.098047
        15        18        20        34     9      180.000000       -0.000790         4    ;  uncertainty k = 0.041032
        15        18        21        35     9        0.000000        0.351770         1    ;  uncertainty k = 0.319275
        15        18        21        35     9      180.000000       -0.223483         2    ;  uncertainty k = 0.173254
        15        18        21        35     9        0.000000        0.715961         3    ;  uncertainty k = 0.098047
        15        18        21        35     9      180.000000       -0.000790         4    ;  uncertainty k = 0.041032
        15        18        21        36     9        0.000000        0.351770         1    ;  uncertainty k = 0.319275
        15        18        21        36     9      180.000000       -0.223483         2    ;  uncertainty k = 0.173254
        15        18        21        36     9        0.000000        0.715961         3    ;  uncertainty k = 0.098047
        15        18        21        36     9      180.000000       -0.000790         4    ;  uncertainty k = 0.041032
        15        18        21        37     9        0.000000        0.351770         1    ;  uncertainty k = 0.319275
        15        18        21        37     9      180.000000       -0.223483         2    ;  uncertainty k = 0.173254
        15        18        21        37     9        0.000000        0.715961         3    ;  uncertainty k = 0.098047
        15        18        21        37     9      180.000000       -0.000790         4    ;  uncertainty k = 0.041032
        16        15        14        28     9        0.000000        0.099411         1    ;  uncertainty k = 0.169149
        16        15        14        28     9      180.000000        7.277331         2    ;  uncertainty k = 0.487638
        16        15        14        28     9        0.000000        1.399666         3    ;  uncertainty k = 0.329314
        16        15        14        28     9      180.000000        1.678522         4    ;  uncertainty k = 0.191976
        16        15        18        19     9        0.000000       -1.219996         1    ;  uncertainty k = 0.274824
        16        15        18        19     9      180.000000        3.868486         2    ;  uncertainty k = 0.116802
        16        15        18        19     9        0.000000        0.651180         3    ;  uncertainty k = 0.135170
        16        15        18        19     9      180.000000        0.512033         4    ;  uncertainty k = 0.043839
        16        15        18        20     9        0.000000       -0.409205         1    ;  uncertainty k = 0.095578
        16        15        18        20     9      180.000000        2.717205         2    ;  uncertainty k = 0.115248
        16        15        18        20     9        0.000000        0.444820         3    ;  uncertainty k = 0.108148
        16        15        18        20     9      180.000000        0.287592         4    ;  uncertainty k = 0.049350
        16        15        18        21     9        0.000000       -0.409205         1    ;  uncertainty k = 0.095576
        16        15        18        21     9      180.000000        2.717206         2    ;  uncertainty k = 0.115248
        16        15        18        21     9        0.000000        0.444819         3    ;  uncertainty k = 0.108147
        16        15        18        21     9      180.000000        0.287592         4    ;  uncertainty k = 0.049350
        17        12        13        27     9        0.000000        0.065425         1    ;  uncertainty k = 0.154407
        17        12        13        27     9      180.000000        6.880288         2    ;  uncertainty k = 0.569492
        17        12        13        27     9        0.000000        1.307045         3    ;  uncertainty k = 0.238388
        17        12        13        27     9      180.000000        1.580984         4    ;  uncertainty k = 0.264455
        17        16        15        18     9        0.000000        0.213012         1    ;  uncertainty k = 0.165870
        17        16        15        18     9      180.000000        8.409903         2    ;  uncertainty k = 0.512358
        17        16        15        18     9        0.000000        1.391291         3    ;  uncertainty k = 0.345930
        17        16        15        18     9      180.000000        1.926967         4    ;  uncertainty k = 0.263557
        18        15        14        28     9        0.000000       -0.074274         1    ;  uncertainty k = 0.468916
        18        15        14        28     9      180.000000        7.722559         2    ;  uncertainty k = 0.204459
        18        15        14        28     9        0.000000        0.599783         3    ;  uncertainty k = 0.298353
        18        15        14        28     9      180.000000        0.966283         4    ;  uncertainty k = 0.105372
        18        15        16        29     9        0.000000       -0.074274         1    ;  uncertainty k = 0.468916
        18        15        16        29     9      180.000000        7.722559         2    ;  uncertainty k = 0.204459
        18        15        16        29     9        0.000000        0.599783         3    ;  uncertainty k = 0.298353
        18        15        16        29     9      180.000000        0.966283         4    ;  uncertainty k = 0.105372
        19        18        20        32     9        0.000000       -1.961844         1    ;  uncertainty k = 0.551180
        19        18        20        32     9      180.000000       -0.960261         2    ;  uncertainty k = 0.282479
        19        18        20        32     9        0.000000        0.831230         3    ;  uncertainty k = 0.087292
        19        18        20        32     9      180.000000       -0.214593         4    ;  uncertainty k = 0.050561
        19        18        20        33     9        0.000000       -1.961844         1    ;  uncertainty k = 0.551180
        19        18        20        33     9      180.000000       -0.960261         2    ;  uncertainty k = 0.282479
        19        18        20        33     9        0.000000        0.831230         3    ;  uncertainty k = 0.087292
        19        18        20        33     9      180.000000       -0.214593         4    ;  uncertainty k = 0.050561
        19        18        20        34     9        0.000000       -1.961844         1    ;  uncertainty k = 0.551180
        19        18        20        34     9      180.000000       -0.960261         2    ;  uncertainty k = 0.282479
        19        18        20        34     9        0.000000        0.831230         3    ;  uncertainty k = 0.087292
        19        18        20        34     9      180.000000       -0.214593         4    ;  uncertainty k = 0.050561
        19        18        21        35     9        0.000000       -1.961844         1    ;  uncertainty k = 0.551181
        19        18        21        35     9      180.000000       -0.960261         2    ;  uncertainty k = 0.282481
        19        18        21        35     9        0.000000        0.831230         3    ;  uncertainty k = 0.087293
        19        18        21        35     9      180.000000       -0.214593         4    ;  uncertainty k = 0.050560
        19        18        21        36     9        0.000000       -1.961844         1    ;  uncertainty k = 0.551181
        19        18        21        36     9      180.000000       -0.960261         2    ;  uncertainty k = 0.282481
        19        18        21        36     9        0.000000        0.831230         3    ;  uncertainty k = 0.087293
        19        18        21        36     9      180.000000       -0.214593         4    ;  uncertainty k = 0.050560
        19        18        21        37     9        0.000000       -1.961844         1    ;  uncertainty k = 0.551181
        19        18        21        37     9      180.000000       -0.960261         2    ;  uncertainty k = 0.282481
        19        18        21        37     9        0.000000        0.831230         3    ;  uncertainty k = 0.087293
        19        18        21        37     9      180.000000       -0.214593         4    ;  uncertainty k = 0.050560
        20        18        19        31     9        0.000000       12.662223         1    ;  uncertainty k = 0.317843
        20        18        19        31     9      180.000000       -1.675062         2    ;  uncertainty k = 0.239562
        20        18        19        31     9        0.000000        1.060161         3    ;  uncertainty k = 0.149525
        20        18        19        31     9      180.000000        0.360746         4    ;  uncertainty k = 0.102772
        20        18        21        35     9        0.000000       -1.125962         1    ;  uncertainty k = 0.230766
        20        18        21        35     9      180.000000       -0.047879         2    ;  uncertainty k = 0.090864
        20        18        21        35     9        0.000000        0.742644         3    ;  uncertainty k = 0.072669
        20        18        21        35     9      180.000000       -0.033077         4    ;  uncertainty k = 0.054935
        20        18        21        36     9        0.000000       -1.125962         1    ;  uncertainty k = 0.230766
        20        18        21        36     9      180.000000       -0.047879         2    ;  uncertainty k = 0.090864
        20        18        21        36     9        0.000000        0.742644         3    ;  uncertainty k = 0.072669
        20        18        21        36     9      180.000000       -0.033077         4    ;  uncertainty k = 0.054935
        20        18        21        37     9        0.000000       -1.125962         1    ;  uncertainty k = 0.230766
        20        18        21        37     9      180.000000       -0.047879         2    ;  uncertainty k = 0.090864
        20        18        21        37     9        0.000000        0.742644         3    ;  uncertainty k = 0.072669
        20        18        21        37     9      180.000000       -0.033077         4    ;  uncertainty k = 0.054935
        21        18        19        31     9        0.000000       12.662224         1    ;  uncertainty k = 0.317843
        21        18        19        31     9      180.000000       -1.675061         2    ;  uncertainty k = 0.239562
        21        18        19        31     9        0.000000        1.060161         3    ;  uncertainty k = 0.149525
        21        18        19        31     9      180.000000        0.360746         4    ;  uncertainty k = 0.102772
        21        18        20        32     9        0.000000       -1.125962         1    ;  uncertainty k = 0.230766
        21        18        20        32     9      180.000000       -0.047877         2    ;  uncertainty k = 0.090862
        21        18        20        32     9        0.000000        0.742644         3    ;  uncertainty k = 0.072669
        21        18        20        32     9      180.000000       -0.033077         4    ;  uncertainty k = 0.054936
        21        18        20        33     9        0.000000       -1.125962         1    ;  uncertainty k = 0.230766
        21        18        20        33     9      180.000000       -0.047877         2    ;  uncertainty k = 0.090862
        21        18        20        33     9        0.000000        0.742644         3    ;  uncertainty k = 0.072669
        21        18        20        33     9      180.000000       -0.033077         4    ;  uncertainty k = 0.054936
        21        18        20        34     9        0.000000       -1.125962         1    ;  uncertainty k = 0.230766
        21        18        20        34     9      180.000000       -0.047877         2    ;  uncertainty k = 0.090862
        21        18        20        34     9        0.000000        0.742644         3    ;  uncertainty k = 0.072669
        21        18        20        34     9      180.000000       -0.033077         4    ;  uncertainty k = 0.054936
        22         1         3        23     9        0.000000       -0.423571         1    ;  uncertainty k = 0.416310
        22         1         3        23     9      180.000000        9.481536         2    ;  uncertainty k = 0.500181
        22         1         3        23     9        0.000000        0.695037         3    ;  uncertainty k = 0.223566
        22         1         3        23     9      180.000000        1.135192         4    ;  uncertainty k = 0.248869
        23         3         6        24     9        0.000000       -0.068748         1    ;  uncertainty k = 0.277529
        23         3         6        24     9      180.000000        7.652409         2    ;  uncertainty k = 0.509087
        23         3         6        24     9        0.000000       -0.347498         3    ;  uncertainty k = 0.331660
        23         3         6        24     9      180.000000        0.088218         4    ;  uncertainty k = 0.160751
        24         6         7        25     9        0.000000       -0.083760         1    ;  uncertainty k = 0.151320
        24         6         7        25     9      180.000000        7.940563         2    ;  uncertainty k = 0.596465
        24         6         7        25     9        0.000000       -0.299161         3    ;  uncertainty k = 0.281330
        24         6         7        25     9      180.000000        0.164852         4    ;  uncertainty k = 0.165917
        27        13        14        28     9        0.000000       -0.117735         1    ;  uncertainty k = 0.210280
        27        13        14        28     9      180.000000        8.002242         2    ;  uncertainty k = 0.460743
        27        13        14        28     9        0.000000       -0.392489         3    ;  uncertainty k = 0.200264
        27        13        14        28     9      180.000000        0.296121         4    ;  uncertainty k = 0.231306
        29        16        17        30     9        0.000000       -0.117735         1    ;  uncertainty k = 0.210280
        29        16        17        30     9      180.000000        8.002242         2    ;  uncertainty k = 0.460743
        29        16        17        30     9        0.000000       -0.392489         3    ;  uncertainty k = 0.200264
        29        16        17        30     9      180.000000        0.296121         4    ;  uncertainty k = 0.231306

[ dihedrals ] ; impropers
;       ai        aj        ak        al funct           phase               k        pn
         1         2         3        22     4      180.000000       13.839945         2    ;  uncertainty k = 0.119652
         1         3        22         2     4      180.000000       13.839945         2    ;  uncertainty k = 0.119652
         1        22         2         3     4      180.000000       13.839945         2    ;  uncertainty k = 0.119652
         2         1         4         5     4      180.000000       22.429115         2    ;  uncertainty k = 0.086289
         2         4         5         1     4      180.000000       22.429115         2    ;  uncertainty k = 0.086289
         2         5         1         4     4      180.000000       22.429115         2    ;  uncertainty k = 0.086289
         3         1         6        23     4      180.000000        4.858833         2    ;  uncertainty k = 0.090514
         3         6        23         1     4      180.000000        4.858833         2    ;  uncertainty k = 0.090514
         3        23         1         6     4      180.000000        4.858833         2    ;  uncertainty k = 0.090514
         4         2         7         8     4      180.000000        5.344514         2    ;  uncertainty k = 0.248046
         4         7         8         2     4      180.000000        5.344514         2    ;  uncertainty k = 0.248046
         4         8         2         7     4      180.000000        5.344514         2    ;  uncertainty k = 0.248046
         6         3         7        24     4      180.000000        4.007854         2    ;  uncertainty k = 0.127680
         6         7        24         3     4      180.000000        4.007854         2    ;  uncertainty k = 0.127680
         6        24         3         7     4      180.000000        4.007854         2    ;  uncertainty k = 0.127680
         7         4         6        25     4      180.000000        5.277811         2    ;  uncertainty k = 0.105686
         7         6        25         4     4      180.000000        5.277811         2    ;  uncertainty k = 0.105686
         7        25         4         6     4      180.000000        5.277811         2    ;  uncertainty k = 0.105686
         8         4         9        10     4      180.000000       50.577171         2    ;  uncertainty k = 0.010789
         8         9        10         4     4      180.000000       50.577171         2    ;  uncertainty k = 0.010789
         8        10         4         9     4      180.000000       50.577171         2    ;  uncertainty k = 0.010789
         9         8        11        26     4      180.000000        0.651357         2    ;  uncertainty k = 0.509756
         9        11        26         8     4      180.000000        0.651357         2    ;  uncertainty k = 0.509756
         9        26         8        11     4      180.000000        0.651357         2    ;  uncertainty k = 0.509756
        11         5         9        12     4      180.000000       30.094869         2    ;  uncertainty k = 0.040032
        11         9        12         5     4      180.000000       30.094869         2    ;  uncertainty k = 0.040032
        11        12         5         9     4      180.000000       30.094869         2    ;  uncertainty k = 0.040032
        12        11        13        17     4      180.000000        8.929751         2    ;  uncertainty k = 0.240647
        12        13        17        11     4      180.000000        8.929751         2    ;  uncertainty k = 0.240647
        12        17        11        13     4      180.000000        8.929751         2    ;  uncertainty k = 0.240647
        13        12        14        27     4      180.000000        4.118158         2    ;  uncertainty k = 0.143895
        13        14        27        12     4      180.000000        4.118158         2    ;  uncertainty k = 0.143895
        13        27        12        14     4      180.000000        4.118158         2    ;  uncertainty k = 0.143895
        14        13        15        28     4      180.000000        3.498636         2    ;  uncertainty k = 0.120340
        14        15        28        13     4      180.000000        3.498636         2    ;  uncertainty k = 0.120340
        14        28        13        15     4      180.000000        3.498636         2    ;  uncertainty k = 0.120340
        15        14        16        18     4      180.000000       13.022908         2    ;  uncertainty k = 0.059644
        15        16        18        14     4      180.000000       13.022908         2    ;  uncertainty k = 0.059644
        15        18        14        16     4      180.000000       13.022908         2    ;  uncertainty k = 0.059644
        16        15        17        29     4      180.000000        3.498636         2    ;  uncertainty k = 0.120340
        16        17        29        15     4      180.000000        3.498636         2    ;  uncertainty k = 0.120340
        16        29        15        17     4      180.000000        3.498636         2    ;  uncertainty k = 0.120340
        17        12        16        30     4      180.000000        4.118158         2    ;  uncertainty k = 0.143895
        17        16        30        12     4      180.000000        4.118158         2    ;  uncertainty k = 0.143895
        17        30        12        16     4      180.000000        4.118158         2    ;  uncertainty k = 0.143895

[ pairs ]
;       ai        aj funct
         1         7     1
         1         8     1
         1        11     1
         1        24     1
         2         6     1
         2         9     1
         2        10     1
         2        12     1
         2        23     1
         2        25     1
         2        38     1
         2        39     1
         2        40     1
         3         4     1
         3         5     1
         3        25     1
         3        38     1
         3        39     1
         3        40     1
         4        11     1
         4        22     1
         4        24     1
         4        26     1
         5         7     1
         5         8     1
         5        13     1
         5        17     1
         5        22     1
         5        26     1
         6         8     1
         6        22     1
         7         9     1
         7        10     1
         7        23     1
         8        12     1
         8        25     1
         9        13     1
         9        17     1
        10        11     1
        10        26     1
        11        14     1
        11        16     1
        11        27     1
        11        30     1
        12        15     1
        12        26     1
        12        28     1
        12        29     1
        13        16     1
        13        18     1
        13        30     1
        14        17     1
        14        19     1
        14        20     1
        14        21     1
        14        29     1
        15        27     1
        15        30     1
        15        31     1
        15        32     1
        15        33     1
        15        34     1
        15        35     1
        15        36     1
        15        37     1
        16        19     1
        16        20     1
        16        21     1
        16        28     1
        17        18     1
        17        27     1
        18        28     1
        18        29     1
        19        32     1
        19        33     1
        19        34     1
        19        35     1
        19        36     1
        19        37     1
        20        31     1
        20        35     1
        20        36     1
        20        37     1
        21        31     1
        21        32     1
        21        33     1
        21        34     1
        22        23     1
        23        24     1
        24        25     1
        27        28     1
        29        30     1
