; ITP file created by ByteFF-joint-25, 2026-02-17 09:50:32.542146

[ atomtypes ]
;name           bonded.type        at.num        mass        charge   ptype           sigma         epsilon
 c0bf                                   6      0.0000       0.00000       A     3.31512e-01     4.13567e-01    ;  uncertainty sigma = 0.000006, epsilon = 0.000585
 c1bf                                   6      0.0000       0.00000       A     3.31544e-01     4.12908e-01    ;  uncertainty sigma = 0.000012, epsilon = 0.001109
 c2bf                                   6      0.0000       0.00000       A     3.31525e-01     4.13242e-01    ;  uncertainty sigma = 0.000003, epsilon = 0.000704
 c3bf                                   6      0.0000       0.00000       A     3.31554e-01     4.13748e-01    ;  uncertainty sigma = 0.000015, epsilon = 0.001551
 n4bf                                   7      0.0000       0.00000       A     3.38420e-01     3.93601e-01    ;  uncertainty sigma = 0.000016, epsilon = 0.001577
 c5bf                                   6      0.0000       0.00000       A     3.31535e-01     4.13483e-01    ;  uncertainty sigma = 0.000012, epsilon = 0.000847
 c6bf                                   6      0.0000       0.00000       A     3.31524e-01     4.13570e-01    ;  uncertainty sigma = 0.000010, epsilon = 0.001378
 c7bf                                   6      0.0000       0.00000       A     3.31561e-01     4.13488e-01    ;  uncertainty sigma = 0.000011, epsilon = 0.001051
 n8bf                                   7      0.0000       0.00000       A     3.26959e-01     4.90529e-01    ;  uncertainty sigma = 0.000067, epsilon = 0.003013
 o9bf                                   8      0.0000       0.00000       A     3.04794e-01     6.11791e-01    ;  uncertainty sigma = 0.000015, epsilon = 0.001761
 c10bf                                  6      0.0000       0.00000       A     3.31512e-01     4.12851e-01    ;  uncertainty sigma = 0.000012, epsilon = 0.001342
 c11bf                                  6      0.0000       0.00000       A     3.31501e-01     4.12880e-01    ;  uncertainty sigma = 0.000017, epsilon = 0.001089
 c12bf                                  6      0.0000       0.00000       A     3.31519e-01     4.13337e-01    ;  uncertainty sigma = 0.000004, epsilon = 0.000604
 c13bf                                  6      0.0000       0.00000       A     3.31522e-01     4.13196e-01    ;  uncertainty sigma = 0.000004, epsilon = 0.000447
 c14bf                                  6      0.0000       0.00000       A     3.31544e-01     4.13202e-01    ;  uncertainty sigma = 0.000004, epsilon = 0.001200
 c15bf                                  6      0.0000       0.00000       A     3.31522e-01     4.13196e-01    ;  uncertainty sigma = 0.000004, epsilon = 0.000447
 c16bf                                  6      0.0000       0.00000       A     3.31519e-01     4.13337e-01    ;  uncertainty sigma = 0.000004, epsilon = 0.000604
 c17bf                                  6      0.0000       0.00000       A     3.39755e-01     4.50272e-01    ;  uncertainty sigma = 0.000025, epsilon = 0.001042
 o18bf                                  8      0.0000       0.00000       A     3.24292e-01     3.89709e-01    ;  uncertainty sigma = 0.000031, epsilon = 0.001714
 f19bf                                  9      0.0000       0.00000       A     3.03425e-01     3.48052e-01    ;  uncertainty sigma = 0.000022, epsilon = 0.000736
 f20bf                                  9      0.0000       0.00000       A     3.03480e-01     3.47852e-01    ;  uncertainty sigma = 0.000030, epsilon = 0.001365
 c21bf                                  6      0.0000       0.00000       A     3.39763e-01     4.50805e-01    ;  uncertainty sigma = 0.000004, epsilon = 0.000470
 c22bf                                  6      0.0000       0.00000       A     3.39763e-01     4.50805e-01    ;  uncertainty sigma = 0.000004, epsilon = 0.000470
 h23bf                                  1      0.0000       0.00000       A     2.62558e-01     6.69933e-02    ;  uncertainty sigma = 0.000012, epsilon = 0.000629
 h24bf                                  1      0.0000       0.00000       A     2.62562e-01     6.70353e-02    ;  uncertainty sigma = 0.000007, epsilon = 0.000516
 h25bf                                  1      0.0000       0.00000       A     1.10651e-01     4.13762e-02    ;  uncertainty sigma = 0.000058, epsilon = 0.001253
 h26bf                                  1      0.0000       0.00000       A     2.62567e-01     6.70632e-02    ;  uncertainty sigma = 0.000011, epsilon = 0.000557
 h27bf                                  1      0.0000       0.00000       A     2.62556e-01     6.70460e-02    ;  uncertainty sigma = 0.000009, epsilon = 0.000514
 h28bf                                  1      0.0000       0.00000       A     2.62556e-01     6.70460e-02    ;  uncertainty sigma = 0.000009, epsilon = 0.000514
 h29bf                                  1      0.0000       0.00000       A     2.62567e-01     6.70633e-02    ;  uncertainty sigma = 0.000011, epsilon = 0.000557
 h30bf                                  1      0.0000       0.00000       A     5.37866e-02     1.91555e-02    ;  uncertainty sigma = 0.000161, epsilon = 0.001189
 h31bf                                  1      0.0000       0.00000       A     2.60031e-01     8.67183e-02    ;  uncertainty sigma = 0.000009, epsilon = 0.000447
 h32bf                                  1      0.0000       0.00000       A     2.60031e-01     8.67183e-02    ;  uncertainty sigma = 0.000009, epsilon = 0.000447
 h33bf                                  1      0.0000       0.00000       A     2.60031e-01     8.67183e-02    ;  uncertainty sigma = 0.000009, epsilon = 0.000447
 h34bf                                  1      0.0000       0.00000       A     2.60031e-01     8.67183e-02    ;  uncertainty sigma = 0.000009, epsilon = 0.000447
 h35bf                                  1      0.0000       0.00000       A     2.60031e-01     8.67183e-02    ;  uncertainty sigma = 0.000009, epsilon = 0.000447
 h36bf                                  1      0.0000       0.00000       A     2.60031e-01     8.67183e-02    ;  uncertainty sigma = 0.000009, epsilon = 0.000447

[ moleculetype ]
;name             nrexcl
 MOL                   3

[ atoms ]
;       nr            type      resi   res      atom      cgnr      charge          mass ; qtot
         1            c0bf         1   UNL        c0         1    -0.12048       12.0110 ; qtot   -0.120
         2            c1bf         1   UNL        c1         2     0.20144       12.0110 ; qtot    0.081
         3            c2bf         1   UNL        c2         3    -0.10111       12.0110 ; qtot   -0.020
         4            c3bf         1   UNL        c3         4    -0.22592       12.0110 ; qtot   -0.246
         5            n4bf         1   UNL        n4         5    -0.62907       14.0070 ; qtot   -0.875
         6            c5bf         1   UNL        c5         6     0.06200       12.0110 ; qtot   -0.813
         7            c6bf         1   UNL        c6         7     0.17369       12.0110 ; qtot   -0.639
         8            c7bf         1   UNL        c7         8     0.72312       12.0110 ; qtot    0.084
         9            n8bf         1   UNL        n8         9    -0.50902       14.0070 ; qtot   -0.425
        10            o9bf         1   UNL        o9        10    -0.58110       15.9990 ; qtot   -1.006
        11           c10bf         1   UNL       c10        11     0.57644       12.0110 ; qtot   -0.430
        12           c11bf         1   UNL       c11        12    -0.15129       12.0110 ; qtot   -0.581
        13           c12bf         1   UNL       c12        13    -0.08668       12.0110 ; qtot   -0.668
        14           c13bf         1   UNL       c13        14    -0.12388       12.0110 ; qtot   -0.792
        15           c14bf         1   UNL       c14        15    -0.08876       12.0110 ; qtot   -0.881
        16           c15bf         1   UNL       c15        16    -0.12388       12.0110 ; qtot   -1.005
        17           c16bf         1   UNL       c16        17    -0.08668       12.0110 ; qtot   -1.091
        18           c17bf         1   UNL       c17        18     0.20190       12.0110 ; qtot   -0.889
        19           o18bf         1   UNL       o18        19    -0.60342       15.9990 ; qtot   -1.493
        20           f19bf         1   UNL       f19        20    -0.11736       18.9980 ; qtot   -1.610
        21           f20bf         1   UNL       f20        21    -0.09338       18.9980 ; qtot   -1.703
        22           c21bf         1   UNL       c21        22    -0.10277       12.0110 ; qtot   -1.806
        23           c22bf         1   UNL       c22        23    -0.10277       12.0110 ; qtot   -1.909
        24           h23bf         1   UNL       h23        24     0.16406        1.0080 ; qtot   -1.745
        25           h24bf         1   UNL       h24        25     0.15973        1.0080 ; qtot   -1.585
        26           h25bf         1   UNL       h25        26     0.33836        1.0080 ; qtot   -1.247
        27           h26bf         1   UNL       h26        27     0.14623        1.0080 ; qtot   -1.101
        28           h27bf         1   UNL       h27        28     0.14030        1.0080 ; qtot   -0.960
        29           h28bf         1   UNL       h28        29     0.14030        1.0080 ; qtot   -0.820
        30           h29bf         1   UNL       h29        30     0.14623        1.0080 ; qtot   -0.674
        31           h30bf         1   UNL       h30        31     0.40249        1.0080 ; qtot   -0.271
        32           h31bf         1   UNL       h31        32     0.04522        1.0080 ; qtot   -0.226
        33           h32bf         1   UNL       h32        33     0.04522        1.0080 ; qtot   -0.181
        34           h33bf         1   UNL       h33        34     0.04522        1.0080 ; qtot   -0.136
        35           h34bf         1   UNL       h34        35     0.04522        1.0080 ; qtot   -0.090
        36           h35bf         1   UNL       h35        36     0.04522        1.0080 ; qtot   -0.045
        37           h36bf         1   UNL       h36        37     0.04518        1.0080 ; qtot   -0.000

[ bonds ]
;       ai        aj funct               r               k
         1         2     1        0.140783   355034.744971    ;  uncertainty r = 0.000082, k = 3.909038
         1         3     1        0.138259   385256.917969    ;  uncertainty r = 0.000034, k = 4.421706
         1        24     1        0.108663   336729.387451    ;  uncertainty r = 0.000023, k = 2.079663
         2         4     1        0.142499   378075.474219    ;  uncertainty r = 0.000142, k = 31.065448
         2         5     1        0.138596   303890.631152    ;  uncertainty r = 0.000183, k = 30.127464
         3         6     1        0.139995   354311.380811    ;  uncertainty r = 0.000067, k = 5.418478
         3        25     1        0.108701   335736.555713    ;  uncertainty r = 0.000023, k = 1.858808
         4         7     1        0.140196   345407.050439    ;  uncertainty r = 0.000166, k = 11.586131
         4         8     1        0.147094   246929.776709    ;  uncertainty r = 0.000138, k = 17.215057
         5        11     1        0.129883   471497.370703    ;  uncertainty r = 0.000053, k = 10.745734
         6         7     1        0.138743   350564.703809    ;  uncertainty r = 0.000112, k = 10.845234
         6        20     1        0.134709   339615.285107    ;  uncertainty r = 0.000080, k = 3.944097
         7        21     1        0.133649   337728.526855    ;  uncertainty r = 0.000208, k = 16.238626
         8         9     1        0.140879   445815.670215    ;  uncertainty r = 0.000135, k = 6.598913
         8        10     1        0.123343   830973.606348    ;  uncertainty r = 0.000177, k = 19.044471
         9        11     1        0.138741   301518.489063    ;  uncertainty r = 0.000081, k = 18.414455
         9        26     1        0.102046   453472.206348    ;  uncertainty r = 0.000020, k = 4.304456
        11        12     1        0.147341   266941.958008    ;  uncertainty r = 0.000109, k = 11.708942
        12        13     1        0.139881   350469.118408    ;  uncertainty r = 0.000059, k = 3.608169
        12        17     1        0.139881   350469.118408    ;  uncertainty r = 0.000059, k = 3.608169
        13        14     1        0.139215   359042.692139    ;  uncertainty r = 0.000045, k = 3.009361
        13        27     1        0.108751   333157.971631    ;  uncertainty r = 0.000045, k = 1.128363
        14        15     1        0.139630   349504.479639    ;  uncertainty r = 0.000022, k = 3.365375
        14        28     1        0.108801   333642.308447    ;  uncertainty r = 0.000019, k = 1.144891
        15        16     1        0.139630   349504.479639    ;  uncertainty r = 0.000022, k = 3.365375
        15        18     1        0.152147   213548.803735    ;  uncertainty r = 0.000097, k = 3.797993
        16        17     1        0.139215   359042.692139    ;  uncertainty r = 0.000045, k = 3.009361
        16        29     1        0.108801   333642.308447    ;  uncertainty r = 0.000019, k = 1.144913
        17        30     1        0.108751   333157.997168    ;  uncertainty r = 0.000045, k = 1.128360
        18        19     1        0.144782   263188.513672    ;  uncertainty r = 0.000100, k = 11.942343
        18        22     1        0.153487   207492.767627    ;  uncertainty r = 0.000036, k = 5.323961
        18        23     1        0.153487   207492.767627    ;  uncertainty r = 0.000036, k = 5.323961
        19        31     1        0.097230   467409.339160    ;  uncertainty r = 0.000030, k = 3.616173
        22        32     1        0.109572   309908.578662    ;  uncertainty r = 0.000020, k = 1.196954
        22        33     1        0.109572   309908.578662    ;  uncertainty r = 0.000020, k = 1.196954
        22        34     1        0.109572   309908.578662    ;  uncertainty r = 0.000020, k = 1.196954
        23        35     1        0.109572   309908.578662    ;  uncertainty r = 0.000020, k = 1.196957
        23        36     1        0.109572   309908.578662    ;  uncertainty r = 0.000020, k = 1.196957
        23        37     1        0.109572   309908.578662    ;  uncertainty r = 0.000020, k = 1.196957

[ angles ]
;       ai        aj        ak funct           theta             cth
         1         2         4     1      120.416733      392.163685    ;  uncertainty theta = 0.006379, k = 0.252034
         1         2         5     1      119.565697      513.256380    ;  uncertainty theta = 0.006265, k = 0.092655
         1         3         6     1      120.365219      503.772536    ;  uncertainty theta = 0.000892, k = 0.086679
         1         3        25     1      120.753159      277.596040    ;  uncertainty theta = 0.000938, k = 0.087616
         2         1         3     1      118.565903      535.914244    ;  uncertainty theta = 0.001141, k = 0.082176
         2         1        24     1      120.174911      274.633991    ;  uncertainty theta = 0.003290, k = 0.130865
         2         4         7     1      121.902916      460.915648    ;  uncertainty theta = 0.006293, k = 0.240013
         2         4         8     1      118.924217      500.364162    ;  uncertainty theta = 0.005558, k = 0.288279
         2         5        11     1      115.272873      412.304611    ;  uncertainty theta = 0.004036, k = 0.419576
         3         1        24     1      121.327560      279.692541    ;  uncertainty theta = 0.001372, k = 0.028392
         3         6         7     1      123.780014      360.170379    ;  uncertainty theta = 0.005032, k = 0.196956
         3         6        20     1      119.530602      516.169940    ;  uncertainty theta = 0.001733, k = 0.113910
         4         2         5     1      123.579102      562.118893    ;  uncertainty theta = 0.009575, k = 0.163271
         4         7         6     1      123.111465      321.269541    ;  uncertainty theta = 0.006904, k = 0.357254
         4         7        21     1      117.980675      485.121636    ;  uncertainty theta = 0.006989, k = 0.226295
         4         8         9     1      109.241615      375.472630    ;  uncertainty theta = 0.005480, k = 0.223619
         4         8        10     1      126.115616      495.775558    ;  uncertainty theta = 0.005245, k = 0.120631
         5        11         9     1      123.486122      684.131244    ;  uncertainty theta = 0.005949, k = 0.154103
         5        11        12     1      122.650124      446.578572    ;  uncertainty theta = 0.004169, k = 0.164740
         6         3        25     1      119.146278      279.516941    ;  uncertainty theta = 0.001411, k = 0.079199
         6         7        21     1      117.640991      465.239081    ;  uncertainty theta = 0.004116, k = 0.205332
         7         4         8     1      118.178940      425.239700    ;  uncertainty theta = 0.004112, k = 0.283635
         7         6        20     1      117.307030      457.568627    ;  uncertainty theta = 0.001712, k = 0.178696
         8         9        11     1      121.789368      489.445068    ;  uncertainty theta = 0.002561, k = 0.220371
         8         9        26     1      114.962769      352.683952    ;  uncertainty theta = 0.005907, k = 0.128169
         9         8        10     1      124.857071      835.161667    ;  uncertainty theta = 0.002087, k = 0.135983
         9        11        12     1      116.770203      514.244762    ;  uncertainty theta = 0.005165, k = 0.221536
        11         9        26     1      116.941605      330.480425    ;  uncertainty theta = 0.006600, k = 0.221478
        11        12        13     1      117.981766      401.223070    ;  uncertainty theta = 0.002686, k = 0.115669
        11        12        17     1      117.981766      401.223070    ;  uncertainty theta = 0.002686, k = 0.115669
        12        13        14     1      121.936867      513.032419    ;  uncertainty theta = 0.001595, k = 0.037410
        12        13        27     1      118.373268      267.332069    ;  uncertainty theta = 0.002929, k = 0.046096
        12        17        16     1      121.936867      513.032419    ;  uncertainty theta = 0.001595, k = 0.037410
        12        17        30     1      118.373268      267.332037    ;  uncertainty theta = 0.002929, k = 0.046096
        13        12        17     1      120.778748      421.634435    ;  uncertainty theta = 0.002896, k = 0.258077
        13        14        15     1      121.733681      516.745292    ;  uncertainty theta = 0.002295, k = 0.052086
        13        14        28     1      119.605568      285.026126    ;  uncertainty theta = 0.002260, k = 0.028336
        14        13        27     1      120.211563      284.749144    ;  uncertainty theta = 0.002936, k = 0.063323
        14        15        16     1      119.700928      459.849474    ;  uncertainty theta = 0.002192, k = 0.105996
        14        15        18     1      119.835281      368.426622    ;  uncertainty theta = 0.004163, k = 0.173853
        15        14        28     1      118.678185      262.012993    ;  uncertainty theta = 0.001113, k = 0.066500
        15        16        17     1      121.733681      516.745292    ;  uncertainty theta = 0.002295, k = 0.052086
        15        16        29     1      118.678185      262.012993    ;  uncertainty theta = 0.001113, k = 0.066500
        15        18        19     1      109.685776      703.897222    ;  uncertainty theta = 0.001965, k = 0.142449
        15        18        22     1      109.715744      550.550008    ;  uncertainty theta = 0.001726, k = 0.033765
        15        18        23     1      109.715744      550.550008    ;  uncertainty theta = 0.001726, k = 0.033765
        16        15        18     1      119.835281      368.426622    ;  uncertainty theta = 0.004163, k = 0.173853
        16        17        30     1      120.211563      284.749144    ;  uncertainty theta = 0.002936, k = 0.063322
        17        16        29     1      119.605568      285.026158    ;  uncertainty theta = 0.002260, k = 0.028336
        18        19        31     1      107.710533      483.511457    ;  uncertainty theta = 0.002078, k = 0.098569
        18        22        32     1      107.275742      375.507520    ;  uncertainty theta = 0.000927, k = 0.039228
        18        22        33     1      107.275742      375.507520    ;  uncertainty theta = 0.000927, k = 0.039228
        18        22        34     1      107.275742      375.507520    ;  uncertainty theta = 0.000927, k = 0.039228
        18        23        35     1      107.275742      375.507520    ;  uncertainty theta = 0.000927, k = 0.039228
        18        23        36     1      107.275742      375.507520    ;  uncertainty theta = 0.000927, k = 0.039228
        18        23        37     1      107.275742      375.507520    ;  uncertainty theta = 0.000927, k = 0.039228
        19        18        22     1      108.829308      692.110441    ;  uncertainty theta = 0.002464, k = 0.098428
        19        18        23     1      108.829308      692.110441    ;  uncertainty theta = 0.002464, k = 0.098428
        22        18        23     1      110.087318      564.121450    ;  uncertainty theta = 0.001573, k = 0.073265
        32        22        33     1      105.686974      317.730768    ;  uncertainty theta = 0.001105, k = 0.008156
        32        22        34     1      105.686974      317.730768    ;  uncertainty theta = 0.001105, k = 0.008156
        33        22        34     1      105.686974      317.730768    ;  uncertainty theta = 0.001105, k = 0.008156
        35        23        36     1      105.686974      317.730768    ;  uncertainty theta = 0.001105, k = 0.008156
        35        23        37     1      105.686974      317.730768    ;  uncertainty theta = 0.001105, k = 0.008156
        36        23        37     1      105.686974      317.730768    ;  uncertainty theta = 0.001105, k = 0.008156

[ dihedrals ] ; propers for gromacs 4.5 or higher, use funct 9
;       ai        aj        ak        al funct           phase               k        pn
         1         2         4         7     9        0.000000        0.080354         1    ;  uncertainty k = 0.409500
         1         2         4         7     9      180.000000        6.548043         2    ;  uncertainty k = 0.693606
         1         2         4         7     9        0.000000        0.355647         3    ;  uncertainty k = 0.365871
         1         2         4         7     9      180.000000        1.391056         4    ;  uncertainty k = 0.258655
         1         2         4         8     9        0.000000        0.146032         1    ;  uncertainty k = 0.486681
         1         2         4         8     9      180.000000        5.750432         2    ;  uncertainty k = 0.590475
         1         2         4         8     9        0.000000        0.968880         3    ;  uncertainty k = 0.114352
         1         2         4         8     9      180.000000        1.434810         4    ;  uncertainty k = 0.128241
         1         2         5        11     9        0.000000        1.867914         1    ;  uncertainty k = 2.197908
         1         2         5        11     9      180.000000        5.545989         2    ;  uncertainty k = 0.963186
         1         2         5        11     9        0.000000        2.290158         3    ;  uncertainty k = 0.225106
         1         2         5        11     9      180.000000        0.431876         4    ;  uncertainty k = 0.413726
         1         3         6         7     9        0.000000       -0.010677         1    ;  uncertainty k = 0.396283
         1         3         6         7     9      180.000000        6.881668         2    ;  uncertainty k = 0.535537
         1         3         6         7     9        0.000000        0.417640         3    ;  uncertainty k = 0.404175
         1         3         6         7     9      180.000000        1.360562         4    ;  uncertainty k = 0.169627
         1         3         6        20     9        0.000000       -0.050326         1    ;  uncertainty k = 0.218480
         1         3         6        20     9      180.000000       11.286347         2    ;  uncertainty k = 0.516118
         1         3         6        20     9        0.000000        1.491454         3    ;  uncertainty k = 0.445523
         1         3         6        20     9      180.000000        1.577086         4    ;  uncertainty k = 0.285456
         2         1         3         6     9        0.000000       -0.090347         1    ;  uncertainty k = 0.243391
         2         1         3         6     9      180.000000       15.213459         2    ;  uncertainty k = 0.143324
         2         1         3         6     9        0.000000       -0.122527         3    ;  uncertainty k = 0.516137
         2         1         3         6     9      180.000000        1.080991         4    ;  uncertainty k = 0.200928
         2         1         3        25     9        0.000000        0.128799         1    ;  uncertainty k = 0.198211
         2         1         3        25     9      180.000000        9.800775         2    ;  uncertainty k = 0.216249
         2         1         3        25     9        0.000000        1.439961         3    ;  uncertainty k = 0.186954
         2         1         3        25     9      180.000000        1.651079         4    ;  uncertainty k = 0.061773
         2         4         7         6     9        0.000000        0.256753         1    ;  uncertainty k = 0.353997
         2         4         7         6     9      180.000000        6.151749         2    ;  uncertainty k = 1.297224
         2         4         7         6     9        0.000000        0.546690         3    ;  uncertainty k = 0.244051
         2         4         7         6     9      180.000000        1.369832         4    ;  uncertainty k = 0.248569
         2         4         7        21     9        0.000000       -0.026747         1    ;  uncertainty k = 0.545877
         2         4         7        21     9      180.000000       10.171277         2    ;  uncertainty k = 0.522529
         2         4         7        21     9        0.000000        1.711720         3    ;  uncertainty k = 0.424119
         2         4         7        21     9      180.000000        1.588249         4    ;  uncertainty k = 0.308063
         2         4         8         9     9        0.000000       -1.088014         1    ;  uncertainty k = 1.580610
         2         4         8         9     9      180.000000        2.131599         2    ;  uncertainty k = 0.673337
         2         4         8         9     9        0.000000        0.138794         3    ;  uncertainty k = 0.342666
         2         4         8         9     9      180.000000        0.447418         4    ;  uncertainty k = 0.252615
         2         4         8        10     9        0.000000       -2.159378         1    ;  uncertainty k = 1.392998
         2         4         8        10     9      180.000000        4.451624         2    ;  uncertainty k = 0.484079
         2         4         8        10     9        0.000000        0.332360         3    ;  uncertainty k = 0.336867
         2         4         8        10     9      180.000000       -0.023622         4    ;  uncertainty k = 0.227179
         2         5        11         9     9        0.000000       -0.839078         1    ;  uncertainty k = 0.435053
         2         5        11         9     9      180.000000       23.690928         2    ;  uncertainty k = 0.134217
         2         5        11         9     9        0.000000        1.779663         3    ;  uncertainty k = 0.231734
         2         5        11         9     9      180.000000        1.399056         4    ;  uncertainty k = 0.451882
         2         5        11        12     9        0.000000       -0.514227         1    ;  uncertainty k = 1.017924
         2         5        11        12     9      180.000000       19.006389         2    ;  uncertainty k = 0.567728
         2         5        11        12     9        0.000000        2.798955         3    ;  uncertainty k = 0.500510
         2         5        11        12     9      180.000000        1.339731         4    ;  uncertainty k = 0.323259
         3         1         2         4     9        0.000000        0.310334         1    ;  uncertainty k = 0.387675
         3         1         2         4     9      180.000000        8.649181         2    ;  uncertainty k = 0.515847
         3         1         2         4     9        0.000000       -0.279449         3    ;  uncertainty k = 0.273644
         3         1         2         4     9      180.000000        1.128251         4    ;  uncertainty k = 0.168712
         3         1         2         5     9        0.000000        0.070270         1    ;  uncertainty k = 0.428959
         3         1         2         5     9      180.000000       10.915860         2    ;  uncertainty k = 0.437595
         3         1         2         5     9        0.000000        0.812426         3    ;  uncertainty k = 0.291268
         3         1         2         5     9      180.000000        1.456684         4    ;  uncertainty k = 0.167868
         3         6         7         4     9        0.000000       -0.289376         1    ;  uncertainty k = 0.707379
         3         6         7         4     9      180.000000        4.162567         2    ;  uncertainty k = 1.219853
         3         6         7         4     9        0.000000        0.558392         3    ;  uncertainty k = 0.334740
         3         6         7         4     9      180.000000        1.293865         4    ;  uncertainty k = 0.227106
         3         6         7        21     9        0.000000        0.180466         1    ;  uncertainty k = 0.293621
         3         6         7        21     9      180.000000        9.027590         2    ;  uncertainty k = 0.446536
         3         6         7        21     9        0.000000        1.426898         3    ;  uncertainty k = 0.241336
         3         6         7        21     9      180.000000        1.697004         4    ;  uncertainty k = 0.134160
         4         2         1        24     9        0.000000        0.075004         1    ;  uncertainty k = 0.402060
         4         2         1        24     9      180.000000        5.418574         2    ;  uncertainty k = 0.321435
         4         2         1        24     9        0.000000        1.357583         3    ;  uncertainty k = 0.335386
         4         2         1        24     9      180.000000        1.152279         4    ;  uncertainty k = 0.204633
         4         2         5        11     9        0.000000        1.976896         1    ;  uncertainty k = 2.008954
         4         2         5        11     9      180.000000        3.824597         2    ;  uncertainty k = 1.536354
         4         2         5        11     9        0.000000        1.283532         3    ;  uncertainty k = 0.556528
         4         2         5        11     9      180.000000        0.434858         4    ;  uncertainty k = 0.510333
         4         7         6        20     9        0.000000        0.039468         1    ;  uncertainty k = 0.584780
         4         7         6        20     9      180.000000        8.852676         2    ;  uncertainty k = 0.317099
         4         7         6        20     9        0.000000        1.569186         3    ;  uncertainty k = 0.366674
         4         7         6        20     9      180.000000        1.673586         4    ;  uncertainty k = 0.072499
         4         8         9        11     9        0.000000        0.260151         1    ;  uncertainty k = 1.834540
         4         8         9        11     9      180.000000        3.698349         2    ;  uncertainty k = 0.904158
         4         8         9        11     9        0.000000        0.877019         3    ;  uncertainty k = 0.290740
         4         8         9        11     9      180.000000        0.459937         4    ;  uncertainty k = 0.377145
         4         8         9        26     9        0.000000        2.013344         1    ;  uncertainty k = 2.239278
         4         8         9        26     9      180.000000        4.881749         2    ;  uncertainty k = 1.101856
         4         8         9        26     9        0.000000        1.613270         3    ;  uncertainty k = 0.320854
         4         8         9        26     9      180.000000       -0.118709         4    ;  uncertainty k = 0.099692
         5         2         1        24     9        0.000000       -0.440175         1    ;  uncertainty k = 0.545282
         5         2         1        24     9      180.000000        7.817015         2    ;  uncertainty k = 0.320478
         5         2         1        24     9        0.000000        1.258478         3    ;  uncertainty k = 0.361327
         5         2         1        24     9      180.000000        1.255934         4    ;  uncertainty k = 0.175266
         5         2         4         7     9        0.000000       -0.001265         1    ;  uncertainty k = 0.345646
         5         2         4         7     9      180.000000        7.626098         2    ;  uncertainty k = 0.761509
         5         2         4         7     9        0.000000        0.766732         3    ;  uncertainty k = 0.171760
         5         2         4         7     9      180.000000        1.531217         4    ;  uncertainty k = 0.281410
         5         2         4         8     9        0.000000       -0.087399         1    ;  uncertainty k = 0.610993
         5         2         4         8     9      180.000000        6.967109         2    ;  uncertainty k = 0.610896
         5         2         4         8     9        0.000000        1.151848         3    ;  uncertainty k = 0.299106
         5         2         4         8     9      180.000000        1.542094         4    ;  uncertainty k = 0.128770
         5        11         9         8     9        0.000000        0.096210         1    ;  uncertainty k = 1.084589
         5        11         9         8     9      180.000000        7.564268         2    ;  uncertainty k = 0.574760
         5        11         9         8     9        0.000000        0.582260         3    ;  uncertainty k = 0.679331
         5        11         9         8     9      180.000000        0.358223         4    ;  uncertainty k = 0.241132
         5        11         9        26     9        0.000000        5.486044         1    ;  uncertainty k = 1.517641
         5        11         9        26     9      180.000000       11.332094         2    ;  uncertainty k = 0.611776
         5        11         9        26     9        0.000000        1.241411         3    ;  uncertainty k = 0.640881
         5        11         9        26     9      180.000000       -0.316963         4    ;  uncertainty k = 0.167071
         5        11        12        13     9        0.000000        0.902233         1    ;  uncertainty k = 0.723715
         5        11        12        13     9      180.000000        4.018690         2    ;  uncertainty k = 0.283471
         5        11        12        13     9        0.000000        0.570073         3    ;  uncertainty k = 0.157001
         5        11        12        13     9      180.000000       -0.130814         4    ;  uncertainty k = 0.162138
         5        11        12        17     9        0.000000        0.902233         1    ;  uncertainty k = 0.723715
         5        11        12        17     9      180.000000        4.018690         2    ;  uncertainty k = 0.283471
         5        11        12        17     9        0.000000        0.570073         3    ;  uncertainty k = 0.157001
         5        11        12        17     9      180.000000       -0.130814         4    ;  uncertainty k = 0.162138
         6         3         1        24     9        0.000000        0.059927         1    ;  uncertainty k = 0.223615
         6         3         1        24     9      180.000000        9.182648         2    ;  uncertainty k = 0.477447
         6         3         1        24     9        0.000000        1.357593         3    ;  uncertainty k = 0.423026
         6         3         1        24     9      180.000000        1.948983         4    ;  uncertainty k = 0.231841
         6         7         4         8     9        0.000000        0.461279         1    ;  uncertainty k = 0.622309
         6         7         4         8     9      180.000000        5.163962         2    ;  uncertainty k = 0.640296
         6         7         4         8     9        0.000000        1.418888         3    ;  uncertainty k = 0.386802
         6         7         4         8     9      180.000000        1.694576         4    ;  uncertainty k = 0.175091
         7         4         8         9     9        0.000000        0.008979         1    ;  uncertainty k = 1.270763
         7         4         8         9     9      180.000000        2.320437         2    ;  uncertainty k = 0.650316
         7         4         8         9     9        0.000000        0.456872         3    ;  uncertainty k = 0.428355
         7         4         8         9     9      180.000000        0.488793         4    ;  uncertainty k = 0.238758
         7         4         8        10     9        0.000000       -2.041191         1    ;  uncertainty k = 1.073735
         7         4         8        10     9      180.000000        4.900079         2    ;  uncertainty k = 0.817238
         7         4         8        10     9        0.000000        0.511945         3    ;  uncertainty k = 0.242150
         7         4         8        10     9      180.000000       -0.070573         4    ;  uncertainty k = 0.232696
         7         6         3        25     9        0.000000       -0.109980         1    ;  uncertainty k = 0.308279
         7         6         3        25     9      180.000000        5.338623         2    ;  uncertainty k = 0.889400
         7         6         3        25     9        0.000000        1.133537         3    ;  uncertainty k = 0.297324
         7         6         3        25     9      180.000000        1.342478         4    ;  uncertainty k = 0.210643
         8         4         7        21     9        0.000000       -0.151435         1    ;  uncertainty k = 0.099518
         8         4         7        21     9      180.000000        8.734184         2    ;  uncertainty k = 0.573130
         8         4         7        21     9        0.000000        1.672528         3    ;  uncertainty k = 0.347413
         8         4         7        21     9      180.000000        1.520329         4    ;  uncertainty k = 0.163015
         8         9        11        12     9        0.000000        1.133691         1    ;  uncertainty k = 0.839244
         8         9        11        12     9      180.000000        5.460716         2    ;  uncertainty k = 0.872493
         8         9        11        12     9        0.000000        0.528274         3    ;  uncertainty k = 0.190875
         8         9        11        12     9      180.000000       -0.122443         4    ;  uncertainty k = 0.352597
         9        11        12        13     9        0.000000       -0.056622         1    ;  uncertainty k = 0.329455
         9        11        12        13     9      180.000000        4.160733         2    ;  uncertainty k = 0.358590
         9        11        12        13     9        0.000000        0.535427         3    ;  uncertainty k = 0.114724
         9        11        12        13     9      180.000000       -0.131673         4    ;  uncertainty k = 0.038131
         9        11        12        17     9        0.000000       -0.056622         1    ;  uncertainty k = 0.329455
         9        11        12        17     9      180.000000        4.160733         2    ;  uncertainty k = 0.358590
         9        11        12        17     9        0.000000        0.535427         3    ;  uncertainty k = 0.114724
         9        11        12        17     9      180.000000       -0.131673         4    ;  uncertainty k = 0.038131
        10         8         9        11     9        0.000000        0.126424         1    ;  uncertainty k = 1.291443
        10         8         9        11     9      180.000000       11.608808         2    ;  uncertainty k = 0.542893
        10         8         9        11     9        0.000000        1.319334         3    ;  uncertainty k = 0.330736
        10         8         9        11     9      180.000000       -0.540952         4    ;  uncertainty k = 0.389508
        10         8         9        26     9        0.000000        1.727894         1    ;  uncertainty k = 2.964860
        10         8         9        26     9      180.000000        9.381259         2    ;  uncertainty k = 0.692584
        10         8         9        26     9        0.000000        0.731743         3    ;  uncertainty k = 0.480218
        10         8         9        26     9      180.000000       -0.100145         4    ;  uncertainty k = 0.083769
        11        12        13        14     9        0.000000        0.101901         1    ;  uncertainty k = 0.156371
        11        12        13        14     9      180.000000        9.094351         2    ;  uncertainty k = 0.632402
        11        12        13        14     9        0.000000        1.349215         3    ;  uncertainty k = 0.287092
        11        12        13        14     9      180.000000        1.700277         4    ;  uncertainty k = 0.195318
        11        12        13        27     9        0.000000       -0.275866         1    ;  uncertainty k = 0.208465
        11        12        13        27     9      180.000000        7.223174         2    ;  uncertainty k = 0.260369
        11        12        13        27     9        0.000000        0.706164         3    ;  uncertainty k = 0.161256
        11        12        13        27     9      180.000000        1.048776         4    ;  uncertainty k = 0.162566
        11        12        17        16     9        0.000000        0.101901         1    ;  uncertainty k = 0.156371
        11        12        17        16     9      180.000000        9.094351         2    ;  uncertainty k = 0.632402
        11        12        17        16     9        0.000000        1.349215         3    ;  uncertainty k = 0.287092
        11        12        17        16     9      180.000000        1.700277         4    ;  uncertainty k = 0.195318
        11        12        17        30     9        0.000000       -0.275866         1    ;  uncertainty k = 0.208465
        11        12        17        30     9      180.000000        7.223174         2    ;  uncertainty k = 0.260371
        11        12        17        30     9        0.000000        0.706164         3    ;  uncertainty k = 0.161255
        11        12        17        30     9      180.000000        1.048775         4    ;  uncertainty k = 0.162566
        12        11         9        26     9        0.000000        0.935294         1    ;  uncertainty k = 0.183836
        12        11         9        26     9      180.000000        4.764559         2    ;  uncertainty k = 0.912455
        12        11         9        26     9        0.000000        1.372297         3    ;  uncertainty k = 0.242006
        12        11         9        26     9      180.000000       -0.090101         4    ;  uncertainty k = 0.269759
        12        13        14        15     9        0.000000       -0.133648         1    ;  uncertainty k = 0.232408
        12        13        14        15     9      180.000000       12.534119         2    ;  uncertainty k = 0.264132
        12        13        14        15     9        0.000000       -0.659583         3    ;  uncertainty k = 0.473408
        12        13        14        15     9      180.000000        0.896721         4    ;  uncertainty k = 0.301178
        12        13        14        28     9        0.000000        0.104452         1    ;  uncertainty k = 0.123159
        12        13        14        28     9      180.000000        8.153177         2    ;  uncertainty k = 0.285565
        12        13        14        28     9        0.000000        1.386423         3    ;  uncertainty k = 0.199866
        12        13        14        28     9      180.000000        1.841381         4    ;  uncertainty k = 0.178837
        12        17        16        15     9        0.000000       -0.133648         1    ;  uncertainty k = 0.232408
        12        17        16        15     9      180.000000       12.534119         2    ;  uncertainty k = 0.264132
        12        17        16        15     9        0.000000       -0.659583         3    ;  uncertainty k = 0.473408
        12        17        16        15     9      180.000000        0.896721         4    ;  uncertainty k = 0.301178
        12        17        16        29     9        0.000000        0.104451         1    ;  uncertainty k = 0.123158
        12        17        16        29     9      180.000000        8.153176         2    ;  uncertainty k = 0.285563
        12        17        16        29     9        0.000000        1.386423         3    ;  uncertainty k = 0.199867
        12        17        16        29     9      180.000000        1.841381         4    ;  uncertainty k = 0.178837
        13        12        17        16     9        0.000000        0.055276         1    ;  uncertainty k = 0.149139
        13        12        17        16     9      180.000000       10.940930         2    ;  uncertainty k = 0.285081
        13        12        17        16     9        0.000000       -0.595107         3    ;  uncertainty k = 0.165960
        13        12        17        16     9      180.000000        0.949928         4    ;  uncertainty k = 0.261174
        13        12        17        30     9        0.000000        0.065424         1    ;  uncertainty k = 0.154406
        13        12        17        30     9      180.000000        6.880289         2    ;  uncertainty k = 0.569493
        13        12        17        30     9        0.000000        1.307045         3    ;  uncertainty k = 0.238387
        13        12        17        30     9      180.000000        1.580984         4    ;  uncertainty k = 0.264455
        13        14        15        16     9        0.000000       -0.145838         1    ;  uncertainty k = 0.090645
        13        14        15        16     9      180.000000       11.057201         2    ;  uncertainty k = 0.371394
        13        14        15        16     9        0.000000       -0.343350         3    ;  uncertainty k = 0.267016
        13        14        15        16     9      180.000000        0.889288         4    ;  uncertainty k = 0.302073
        13        14        15        18     9        0.000000        0.213012         1    ;  uncertainty k = 0.165870
        13        14        15        18     9      180.000000        8.409903         2    ;  uncertainty k = 0.512358
        13        14        15        18     9        0.000000        1.391291         3    ;  uncertainty k = 0.345930
        13        14        15        18     9      180.000000        1.926967         4    ;  uncertainty k = 0.263557
        14        13        12        17     9        0.000000        0.055276         1    ;  uncertainty k = 0.149139
        14        13        12        17     9      180.000000       10.940930         2    ;  uncertainty k = 0.285081
        14        13        12        17     9        0.000000       -0.595107         3    ;  uncertainty k = 0.165960
        14        13        12        17     9      180.000000        0.949928         4    ;  uncertainty k = 0.261174
        14        15        16        17     9        0.000000       -0.145838         1    ;  uncertainty k = 0.090645
        14        15        16        17     9      180.000000       11.057201         2    ;  uncertainty k = 0.371394
        14        15        16        17     9        0.000000       -0.343350         3    ;  uncertainty k = 0.267016
        14        15        16        17     9      180.000000        0.889288         4    ;  uncertainty k = 0.302073
        14        15        16        29     9        0.000000        0.099411         1    ;  uncertainty k = 0.169149
        14        15        16        29     9      180.000000        7.277332         2    ;  uncertainty k = 0.487638
        14        15        16        29     9        0.000000        1.399667         3    ;  uncertainty k = 0.329314
        14        15        16        29     9      180.000000        1.678522         4    ;  uncertainty k = 0.191976
        14        15        18        19     9        0.000000       -1.219996         1    ;  uncertainty k = 0.274824
        14        15        18        19     9      180.000000        3.868486         2    ;  uncertainty k = 0.116802
        14        15        18        19     9        0.000000        0.651180         3    ;  uncertainty k = 0.135170
        14        15        18        19     9      180.000000        0.512033         4    ;  uncertainty k = 0.043839
        14        15        18        22     9        0.000000       -0.409205         1    ;  uncertainty k = 0.095576
        14        15        18        22     9      180.000000        2.717206         2    ;  uncertainty k = 0.115248
        14        15        18        22     9        0.000000        0.444819         3    ;  uncertainty k = 0.108147
        14        15        18        22     9      180.000000        0.287592         4    ;  uncertainty k = 0.049350
        14        15        18        23     9        0.000000       -0.409205         1    ;  uncertainty k = 0.095576
        14        15        18        23     9      180.000000        2.717206         2    ;  uncertainty k = 0.115248
        14        15        18        23     9        0.000000        0.444819         3    ;  uncertainty k = 0.108147
        14        15        18        23     9      180.000000        0.287592         4    ;  uncertainty k = 0.049350
        15        14        13        27     9        0.000000       -0.030725         1    ;  uncertainty k = 0.185677
        15        14        13        27     9      180.000000        7.531826         2    ;  uncertainty k = 0.200235
        15        14        13        27     9        0.000000        1.277586         3    ;  uncertainty k = 0.254720
        15        14        13        27     9      180.000000        1.862935         4    ;  uncertainty k = 0.207129
        15        16        17        30     9        0.000000       -0.030722         1    ;  uncertainty k = 0.185677
        15        16        17        30     9      180.000000        7.531827         2    ;  uncertainty k = 0.200235
        15        16        17        30     9        0.000000        1.277587         3    ;  uncertainty k = 0.254720
        15        16        17        30     9      180.000000        1.862935         4    ;  uncertainty k = 0.207130
        15        18        19        31     9        0.000000       14.991890         1    ;  uncertainty k = 0.177214
        15        18        19        31     9      180.000000       -3.682074         2    ;  uncertainty k = 0.239405
        15        18        19        31     9        0.000000        0.980423         3    ;  uncertainty k = 0.057177
        15        18        19        31     9      180.000000        0.176294         4    ;  uncertainty k = 0.044986
        15        18        22        32     9        0.000000        0.351770         1    ;  uncertainty k = 0.319275
        15        18        22        32     9      180.000000       -0.223483         2    ;  uncertainty k = 0.173254
        15        18        22        32     9        0.000000        0.715961         3    ;  uncertainty k = 0.098047
        15        18        22        32     9      180.000000       -0.000790         4    ;  uncertainty k = 0.041032
        15        18        22        33     9        0.000000        0.351770         1    ;  uncertainty k = 0.319275
        15        18        22        33     9      180.000000       -0.223483         2    ;  uncertainty k = 0.173254
        15        18        22        33     9        0.000000        0.715961         3    ;  uncertainty k = 0.098047
        15        18        22        33     9      180.000000       -0.000790         4    ;  uncertainty k = 0.041032
        15        18        22        34     9        0.000000        0.351770         1    ;  uncertainty k = 0.319275
        15        18        22        34     9      180.000000       -0.223483         2    ;  uncertainty k = 0.173254
        15        18        22        34     9        0.000000        0.715961         3    ;  uncertainty k = 0.098047
        15        18        22        34     9      180.000000       -0.000790         4    ;  uncertainty k = 0.041032
        15        18        23        35     9        0.000000        0.351770         1    ;  uncertainty k = 0.319275
        15        18        23        35     9      180.000000       -0.223483         2    ;  uncertainty k = 0.173254
        15        18        23        35     9        0.000000        0.715961         3    ;  uncertainty k = 0.098047
        15        18        23        35     9      180.000000       -0.000790         4    ;  uncertainty k = 0.041032
        15        18        23        36     9        0.000000        0.351770         1    ;  uncertainty k = 0.319275
        15        18        23        36     9      180.000000       -0.223483         2    ;  uncertainty k = 0.173254
        15        18        23        36     9        0.000000        0.715961         3    ;  uncertainty k = 0.098047
        15        18        23        36     9      180.000000       -0.000790         4    ;  uncertainty k = 0.041032
        15        18        23        37     9        0.000000        0.351770         1    ;  uncertainty k = 0.319275
        15        18        23        37     9      180.000000       -0.223483         2    ;  uncertainty k = 0.173254
        15        18        23        37     9        0.000000        0.715961         3    ;  uncertainty k = 0.098047
        15        18        23        37     9      180.000000       -0.000790         4    ;  uncertainty k = 0.041032
        16        15        14        28     9        0.000000        0.099411         1    ;  uncertainty k = 0.169149
        16        15        14        28     9      180.000000        7.277331         2    ;  uncertainty k = 0.487638
        16        15        14        28     9        0.000000        1.399666         3    ;  uncertainty k = 0.329314
        16        15        14        28     9      180.000000        1.678522         4    ;  uncertainty k = 0.191976
        16        15        18        19     9        0.000000       -1.219996         1    ;  uncertainty k = 0.274824
        16        15        18        19     9      180.000000        3.868486         2    ;  uncertainty k = 0.116802
        16        15        18        19     9        0.000000        0.651180         3    ;  uncertainty k = 0.135170
        16        15        18        19     9      180.000000        0.512033         4    ;  uncertainty k = 0.043839
        16        15        18        22     9        0.000000       -0.409205         1    ;  uncertainty k = 0.095576
        16        15        18        22     9      180.000000        2.717206         2    ;  uncertainty k = 0.115248
        16        15        18        22     9        0.000000        0.444819         3    ;  uncertainty k = 0.108147
        16        15        18        22     9      180.000000        0.287592         4    ;  uncertainty k = 0.049350
        16        15        18        23     9        0.000000       -0.409205         1    ;  uncertainty k = 0.095576
        16        15        18        23     9      180.000000        2.717206         2    ;  uncertainty k = 0.115248
        16        15        18        23     9        0.000000        0.444819         3    ;  uncertainty k = 0.108147
        16        15        18        23     9      180.000000        0.287592         4    ;  uncertainty k = 0.049350
        17        12        13        27     9        0.000000        0.065425         1    ;  uncertainty k = 0.154407
        17        12        13        27     9      180.000000        6.880288         2    ;  uncertainty k = 0.569492
        17        12        13        27     9        0.000000        1.307045         3    ;  uncertainty k = 0.238388
        17        12        13        27     9      180.000000        1.580984         4    ;  uncertainty k = 0.264455
        17        16        15        18     9        0.000000        0.213012         1    ;  uncertainty k = 0.165870
        17        16        15        18     9      180.000000        8.409903         2    ;  uncertainty k = 0.512358
        17        16        15        18     9        0.000000        1.391291         3    ;  uncertainty k = 0.345930
        17        16        15        18     9      180.000000        1.926967         4    ;  uncertainty k = 0.263557
        18        15        14        28     9        0.000000       -0.074274         1    ;  uncertainty k = 0.468916
        18        15        14        28     9      180.000000        7.722559         2    ;  uncertainty k = 0.204459
        18        15        14        28     9        0.000000        0.599783         3    ;  uncertainty k = 0.298353
        18        15        14        28     9      180.000000        0.966283         4    ;  uncertainty k = 0.105372
        18        15        16        29     9        0.000000       -0.074274         1    ;  uncertainty k = 0.468916
        18        15        16        29     9      180.000000        7.722559         2    ;  uncertainty k = 0.204459
        18        15        16        29     9        0.000000        0.599783         3    ;  uncertainty k = 0.298353
        18        15        16        29     9      180.000000        0.966283         4    ;  uncertainty k = 0.105372
        19        18        22        32     9        0.000000       -1.961844         1    ;  uncertainty k = 0.551181
        19        18        22        32     9      180.000000       -0.960261         2    ;  uncertainty k = 0.282481
        19        18        22        32     9        0.000000        0.831230         3    ;  uncertainty k = 0.087293
        19        18        22        32     9      180.000000       -0.214593         4    ;  uncertainty k = 0.050560
        19        18        22        33     9        0.000000       -1.961844         1    ;  uncertainty k = 0.551181
        19        18        22        33     9      180.000000       -0.960261         2    ;  uncertainty k = 0.282481
        19        18        22        33     9        0.000000        0.831230         3    ;  uncertainty k = 0.087293
        19        18        22        33     9      180.000000       -0.214593         4    ;  uncertainty k = 0.050560
        19        18        22        34     9        0.000000       -1.961844         1    ;  uncertainty k = 0.551181
        19        18        22        34     9      180.000000       -0.960261         2    ;  uncertainty k = 0.282481
        19        18        22        34     9        0.000000        0.831230         3    ;  uncertainty k = 0.087293
        19        18        22        34     9      180.000000       -0.214593         4    ;  uncertainty k = 0.050560
        19        18        23        35     9        0.000000       -1.961844         1    ;  uncertainty k = 0.551181
        19        18        23        35     9      180.000000       -0.960261         2    ;  uncertainty k = 0.282481
        19        18        23        35     9        0.000000        0.831230         3    ;  uncertainty k = 0.087293
        19        18        23        35     9      180.000000       -0.214593         4    ;  uncertainty k = 0.050560
        19        18        23        36     9        0.000000       -1.961844         1    ;  uncertainty k = 0.551181
        19        18        23        36     9      180.000000       -0.960261         2    ;  uncertainty k = 0.282481
        19        18        23        36     9        0.000000        0.831230         3    ;  uncertainty k = 0.087293
        19        18        23        36     9      180.000000       -0.214593         4    ;  uncertainty k = 0.050560
        19        18        23        37     9        0.000000       -1.961844         1    ;  uncertainty k = 0.551181
        19        18        23        37     9      180.000000       -0.960261         2    ;  uncertainty k = 0.282481
        19        18        23        37     9        0.000000        0.831230         3    ;  uncertainty k = 0.087293
        19        18        23        37     9      180.000000       -0.214593         4    ;  uncertainty k = 0.050560
        20         6         3        25     9        0.000000       -0.107598         1    ;  uncertainty k = 0.602060
        20         6         3        25     9      180.000000        8.743348         2    ;  uncertainty k = 0.539819
        20         6         3        25     9        0.000000        0.770505         3    ;  uncertainty k = 0.239675
        20         6         3        25     9      180.000000        0.941084         4    ;  uncertainty k = 0.169237
        20         6         7        21     9        0.000000        0.149210         1    ;  uncertainty k = 0.301067
        20         6         7        21     9      180.000000       13.902985         2    ;  uncertainty k = 0.446094
        20         6         7        21     9        0.000000        1.407228         3    ;  uncertainty k = 0.571793
        20         6         7        21     9      180.000000        1.276100         4    ;  uncertainty k = 0.393105
        22        18        19        31     9        0.000000       12.662224         1    ;  uncertainty k = 0.317843
        22        18        19        31     9      180.000000       -1.675061         2    ;  uncertainty k = 0.239562
        22        18        19        31     9        0.000000        1.060161         3    ;  uncertainty k = 0.149525
        22        18        19        31     9      180.000000        0.360746         4    ;  uncertainty k = 0.102772
        22        18        23        35     9        0.000000       -1.125963         1    ;  uncertainty k = 0.230765
        22        18        23        35     9      180.000000       -0.047878         2    ;  uncertainty k = 0.090864
        22        18        23        35     9        0.000000        0.742644         3    ;  uncertainty k = 0.072669
        22        18        23        35     9      180.000000       -0.033077         4    ;  uncertainty k = 0.054936
        22        18        23        36     9        0.000000       -1.125963         1    ;  uncertainty k = 0.230765
        22        18        23        36     9      180.000000       -0.047878         2    ;  uncertainty k = 0.090864
        22        18        23        36     9        0.000000        0.742644         3    ;  uncertainty k = 0.072669
        22        18        23        36     9      180.000000       -0.033077         4    ;  uncertainty k = 0.054936
        22        18        23        37     9        0.000000       -1.125963         1    ;  uncertainty k = 0.230765
        22        18        23        37     9      180.000000       -0.047878         2    ;  uncertainty k = 0.090864
        22        18        23        37     9        0.000000        0.742644         3    ;  uncertainty k = 0.072669
        22        18        23        37     9      180.000000       -0.033077         4    ;  uncertainty k = 0.054936
        23        18        19        31     9        0.000000       12.662224         1    ;  uncertainty k = 0.317843
        23        18        19        31     9      180.000000       -1.675061         2    ;  uncertainty k = 0.239562
        23        18        19        31     9        0.000000        1.060161         3    ;  uncertainty k = 0.149525
        23        18        19        31     9      180.000000        0.360746         4    ;  uncertainty k = 0.102772
        23        18        22        32     9        0.000000       -1.125963         1    ;  uncertainty k = 0.230765
        23        18        22        32     9      180.000000       -0.047878         2    ;  uncertainty k = 0.090864
        23        18        22        32     9        0.000000        0.742644         3    ;  uncertainty k = 0.072669
        23        18        22        32     9      180.000000       -0.033077         4    ;  uncertainty k = 0.054936
        23        18        22        33     9        0.000000       -1.125963         1    ;  uncertainty k = 0.230765
        23        18        22        33     9      180.000000       -0.047878         2    ;  uncertainty k = 0.090864
        23        18        22        33     9        0.000000        0.742644         3    ;  uncertainty k = 0.072669
        23        18        22        33     9      180.000000       -0.033077         4    ;  uncertainty k = 0.054936
        23        18        22        34     9        0.000000       -1.125963         1    ;  uncertainty k = 0.230765
        23        18        22        34     9      180.000000       -0.047878         2    ;  uncertainty k = 0.090864
        23        18        22        34     9        0.000000        0.742644         3    ;  uncertainty k = 0.072669
        23        18        22        34     9      180.000000       -0.033077         4    ;  uncertainty k = 0.054936
        24         1         3        25     9        0.000000       -0.119192         1    ;  uncertainty k = 0.249835
        24         1         3        25     9      180.000000        8.332967         2    ;  uncertainty k = 0.361771
        24         1         3        25     9        0.000000       -0.192349         3    ;  uncertainty k = 0.318174
        24         1         3        25     9      180.000000        0.227299         4    ;  uncertainty k = 0.166348
        27        13        14        28     9        0.000000       -0.117735         1    ;  uncertainty k = 0.210280
        27        13        14        28     9      180.000000        8.002242         2    ;  uncertainty k = 0.460743
        27        13        14        28     9        0.000000       -0.392489         3    ;  uncertainty k = 0.200264
        27        13        14        28     9      180.000000        0.296121         4    ;  uncertainty k = 0.231306
        29        16        17        30     9        0.000000       -0.117735         1    ;  uncertainty k = 0.210280
        29        16        17        30     9      180.000000        8.002243         2    ;  uncertainty k = 0.460743
        29        16        17        30     9        0.000000       -0.392489         3    ;  uncertainty k = 0.200264
        29        16        17        30     9      180.000000        0.296121         4    ;  uncertainty k = 0.231306

[ dihedrals ] ; impropers
;       ai        aj        ak        al funct           phase               k        pn
         1         2         3        24     4      180.000000        2.327931         2    ;  uncertainty k = 0.404864
         1         3        24         2     4      180.000000        2.327931         2    ;  uncertainty k = 0.404864
         1        24         2         3     4      180.000000        2.327931         2    ;  uncertainty k = 0.404864
         2         1         4         5     4      180.000000       22.207447         2    ;  uncertainty k = 0.066712
         2         4         5         1     4      180.000000       22.207447         2    ;  uncertainty k = 0.066712
         2         5         1         4     4      180.000000       22.207447         2    ;  uncertainty k = 0.066712
         3         1         6        25     4      180.000000        3.637033         2    ;  uncertainty k = 0.176955
         3         6        25         1     4      180.000000        3.637033         2    ;  uncertainty k = 0.176955
         3        25         1         6     4      180.000000        3.637033         2    ;  uncertainty k = 0.176955
         4         2         7         8     4      180.000000        4.914416         2    ;  uncertainty k = 0.491389
         4         7         8         2     4      180.000000        4.914416         2    ;  uncertainty k = 0.491389
         4         8         2         7     4      180.000000        4.914416         2    ;  uncertainty k = 0.491389
         6         3         7        20     4      180.000000       12.670424         2    ;  uncertainty k = 0.134623
         6         7        20         3     4      180.000000       12.670424         2    ;  uncertainty k = 0.134623
         6        20         3         7     4      180.000000       12.670424         2    ;  uncertainty k = 0.134623
         7         4         6        21     4      180.000000       16.042227         2    ;  uncertainty k = 0.178441
         7         6        21         4     4      180.000000       16.042227         2    ;  uncertainty k = 0.178441
         7        21         4         6     4      180.000000       16.042227         2    ;  uncertainty k = 0.178441
         8         4         9        10     4      180.000000       51.527290         2    ;  uncertainty k = 0.021956
         8         9        10         4     4      180.000000       51.527290         2    ;  uncertainty k = 0.021956
         8        10         4         9     4      180.000000       51.527290         2    ;  uncertainty k = 0.021956
         9         8        11        26     4      180.000000        0.699949         2    ;  uncertainty k = 0.675727
         9        11        26         8     4      180.000000        0.699949         2    ;  uncertainty k = 0.675727
         9        26         8        11     4      180.000000        0.699949         2    ;  uncertainty k = 0.675727
        11         5         9        12     4      180.000000       30.940913         2    ;  uncertainty k = 0.033068
        11         9        12         5     4      180.000000       30.940913         2    ;  uncertainty k = 0.033068
        11        12         5         9     4      180.000000       30.940913         2    ;  uncertainty k = 0.033068
        12        11        13        17     4      180.000000        8.897301         2    ;  uncertainty k = 0.236668
        12        13        17        11     4      180.000000        8.897301         2    ;  uncertainty k = 0.236668
        12        17        11        13     4      180.000000        8.897301         2    ;  uncertainty k = 0.236668
        13        12        14        27     4      180.000000        4.118158         2    ;  uncertainty k = 0.143895
        13        14        27        12     4      180.000000        4.118158         2    ;  uncertainty k = 0.143895
        13        27        12        14     4      180.000000        4.118158         2    ;  uncertainty k = 0.143895
        14        13        15        28     4      180.000000        3.498636         2    ;  uncertainty k = 0.120340
        14        15        28        13     4      180.000000        3.498636         2    ;  uncertainty k = 0.120340
        14        28        13        15     4      180.000000        3.498636         2    ;  uncertainty k = 0.120340
        15        14        16        18     4      180.000000       13.022908         2    ;  uncertainty k = 0.059644
        15        16        18        14     4      180.000000       13.022908         2    ;  uncertainty k = 0.059644
        15        18        14        16     4      180.000000       13.022908         2    ;  uncertainty k = 0.059644
        16        15        17        29     4      180.000000        3.498636         2    ;  uncertainty k = 0.120340
        16        17        29        15     4      180.000000        3.498636         2    ;  uncertainty k = 0.120340
        16        29        15        17     4      180.000000        3.498636         2    ;  uncertainty k = 0.120340
        17        12        16        30     4      180.000000        4.118156         2    ;  uncertainty k = 0.143895
        17        16        30        12     4      180.000000        4.118156         2    ;  uncertainty k = 0.143895
        17        30        12        16     4      180.000000        4.118156         2    ;  uncertainty k = 0.143895

[ pairs ]
;       ai        aj funct
         1         7     1
         1         8     1
         1        11     1
         1        20     1
         2         6     1
         2         9     1
         2        10     1
         2        12     1
         2        21     1
         2        25     1
         3         4     1
         3         5     1
         3        21     1
         4        11     1
         4        20     1
         4        24     1
         4        26     1
         5         7     1
         5         8     1
         5        13     1
         5        17     1
         5        24     1
         5        26     1
         6         8     1
         6        24     1
         7         9     1
         7        10     1
         7        25     1
         8        12     1
         8        21     1
         9        13     1
         9        17     1
        10        11     1
        10        26     1
        11        14     1
        11        16     1
        11        27     1
        11        30     1
        12        15     1
        12        26     1
        12        28     1
        12        29     1
        13        16     1
        13        18     1
        13        30     1
        14        17     1
        14        19     1
        14        22     1
        14        23     1
        14        29     1
        15        27     1
        15        30     1
        15        31     1
        15        32     1
        15        33     1
        15        34     1
        15        35     1
        15        36     1
        15        37     1
        16        19     1
        16        22     1
        16        23     1
        16        28     1
        17        18     1
        17        27     1
        18        28     1
        18        29     1
        19        32     1
        19        33     1
        19        34     1
        19        35     1
        19        36     1
        19        37     1
        20        21     1
        20        25     1
        22        31     1
        22        35     1
        22        36     1
        22        37     1
        23        31     1
        23        32     1
        23        33     1
        23        34     1
        24        25     1
        27        28     1
        29        30     1
