; ITP file created by ByteFF-joint-25, 2026-02-17 09:51:57.936431

[ atomtypes ]
;name           bonded.type        at.num        mass        charge   ptype           sigma         epsilon
 c0bf                                   6      0.0000       0.00000       A     3.31501e-01     4.12880e-01    ;  uncertainty sigma = 0.000017, epsilon = 0.001089
 c1bf                                   6      0.0000       0.00000       A     3.31519e-01     4.13337e-01    ;  uncertainty sigma = 0.000004, epsilon = 0.000604
 c2bf                                   6      0.0000       0.00000       A     3.31519e-01     4.13337e-01    ;  uncertainty sigma = 0.000004, epsilon = 0.000604
 c3bf                                   6      0.0000       0.00000       A     3.31522e-01     4.13196e-01    ;  uncertainty sigma = 0.000004, epsilon = 0.000446
 c4bf                                   6      0.0000       0.00000       A     3.31522e-01     4.13196e-01    ;  uncertainty sigma = 0.000004, epsilon = 0.000446
 n5bf                                   7      0.0000       0.00000       A     3.38439e-01     3.94160e-01    ;  uncertainty sigma = 0.000023, epsilon = 0.001770
 c6bf                                   6      0.0000       0.00000       A     3.31544e-01     4.13202e-01    ;  uncertainty sigma = 0.000004, epsilon = 0.001200
 c7bf                                   6      0.0000       0.00000       A     3.39755e-01     4.50272e-01    ;  uncertainty sigma = 0.000025, epsilon = 0.001042
 c8bf                                   6      0.0000       0.00000       A     3.31556e-01     4.13478e-01    ;  uncertainty sigma = 0.000011, epsilon = 0.001075
 n9bf                                   7      0.0000       0.00000       A     3.26959e-01     4.90529e-01    ;  uncertainty sigma = 0.000067, epsilon = 0.003013
 c10bf                                  6      0.0000       0.00000       A     3.31510e-01     4.13013e-01    ;  uncertainty sigma = 0.000015, epsilon = 0.001151
 o11bf                                  8      0.0000       0.00000       A     3.04794e-01     6.11791e-01    ;  uncertainty sigma = 0.000015, epsilon = 0.001761
 c12bf                                  6      0.0000       0.00000       A     3.39763e-01     4.50805e-01    ;  uncertainty sigma = 0.000004, epsilon = 0.000471
 o13bf                                  8      0.0000       0.00000       A     3.24292e-01     3.89709e-01    ;  uncertainty sigma = 0.000031, epsilon = 0.001714
 c14bf                                  6      0.0000       0.00000       A     3.39763e-01     4.50805e-01    ;  uncertainty sigma = 0.000004, epsilon = 0.000471
 c15bf                                  6      0.0000       0.00000       A     3.31544e-01     4.12465e-01    ;  uncertainty sigma = 0.000006, epsilon = 0.000924
 c16bf                                  6      0.0000       0.00000       A     3.31536e-01     4.13336e-01    ;  uncertainty sigma = 0.000021, epsilon = 0.001482
 c17bf                                  6      0.0000       0.00000       A     3.31541e-01     4.13367e-01    ;  uncertainty sigma = 0.000008, epsilon = 0.002011
 c18bf                                  6      0.0000       0.00000       A     3.31513e-01     4.13134e-01    ;  uncertainty sigma = 0.000005, epsilon = 0.000701
 c19bf                                  6      0.0000       0.00000       A     3.31515e-01     4.13363e-01    ;  uncertainty sigma = 0.000004, epsilon = 0.000847
 c20bf                                  6      0.0000       0.00000       A     3.31551e-01     4.12799e-01    ;  uncertainty sigma = 0.000011, epsilon = 0.001246
 f21bf                                  9      0.0000       0.00000       A     3.03383e-01     3.48288e-01    ;  uncertainty sigma = 0.000018, epsilon = 0.000839
 f22bf                                  9      0.0000       0.00000       A     3.03479e-01     3.47746e-01    ;  uncertainty sigma = 0.000053, epsilon = 0.001878
 h23bf                                  1      0.0000       0.00000       A     2.62567e-01     6.70633e-02    ;  uncertainty sigma = 0.000011, epsilon = 0.000557
 h24bf                                  1      0.0000       0.00000       A     2.62567e-01     6.70633e-02    ;  uncertainty sigma = 0.000011, epsilon = 0.000557
 h25bf                                  1      0.0000       0.00000       A     2.62556e-01     6.70460e-02    ;  uncertainty sigma = 0.000009, epsilon = 0.000514
 h26bf                                  1      0.0000       0.00000       A     2.62556e-01     6.70460e-02    ;  uncertainty sigma = 0.000009, epsilon = 0.000514
 h27bf                                  1      0.0000       0.00000       A     1.10651e-01     4.13761e-02    ;  uncertainty sigma = 0.000058, epsilon = 0.001253
 h28bf                                  1      0.0000       0.00000       A     2.60031e-01     8.67182e-02    ;  uncertainty sigma = 0.000009, epsilon = 0.000447
 h29bf                                  1      0.0000       0.00000       A     2.60031e-01     8.67182e-02    ;  uncertainty sigma = 0.000009, epsilon = 0.000447
 h30bf                                  1      0.0000       0.00000       A     2.60031e-01     8.67182e-02    ;  uncertainty sigma = 0.000009, epsilon = 0.000447
 h31bf                                  1      0.0000       0.00000       A     5.37866e-02     1.91555e-02    ;  uncertainty sigma = 0.000161, epsilon = 0.001189
 h32bf                                  1      0.0000       0.00000       A     2.60031e-01     8.67182e-02    ;  uncertainty sigma = 0.000009, epsilon = 0.000447
 h33bf                                  1      0.0000       0.00000       A     2.60031e-01     8.67182e-02    ;  uncertainty sigma = 0.000009, epsilon = 0.000447
 h34bf                                  1      0.0000       0.00000       A     2.60031e-01     8.67182e-02    ;  uncertainty sigma = 0.000009, epsilon = 0.000447
 h35bf                                  1      0.0000       0.00000       A     2.62565e-01     6.69093e-02    ;  uncertainty sigma = 0.000010, epsilon = 0.000491
 h36bf                                  1      0.0000       0.00000       A     2.62562e-01     6.69206e-02    ;  uncertainty sigma = 0.000008, epsilon = 0.000459

[ moleculetype ]
;name             nrexcl
 MOL                   3

[ atoms ]
;       nr            type      resi   res      atom      cgnr      charge          mass ; qtot
         1            c0bf         1   UNL        c0         1    -0.15331       12.0110 ; qtot   -0.153
         2            c1bf         1   UNL        c1         2    -0.08668       12.0110 ; qtot   -0.240
         3            c2bf         1   UNL        c2         3    -0.08668       12.0110 ; qtot   -0.327
         4            c3bf         1   UNL        c3         4    -0.12388       12.0110 ; qtot   -0.451
         5            c4bf         1   UNL        c4         5    -0.12388       12.0110 ; qtot   -0.574
         6            n5bf         1   UNL        n5         6    -0.61103       14.0070 ; qtot   -1.185
         7            c6bf         1   UNL        c6         7    -0.08876       12.0110 ; qtot   -1.274
         8            c7bf         1   UNL        c7         8     0.20190       12.0110 ; qtot   -1.072
         9            c8bf         1   UNL        c8         9     0.72129       12.0110 ; qtot   -0.351
        10            n9bf         1   UNL        n9        10    -0.50759       14.0070 ; qtot   -0.859
        11           c10bf         1   UNL       c10        11     0.57904       12.0110 ; qtot   -0.280
        12           o11bf         1   UNL       o11        12    -0.57985       15.9990 ; qtot   -0.859
        13           c12bf         1   UNL       c12        13    -0.10277       12.0110 ; qtot   -0.962
        14           o13bf         1   UNL       o13        14    -0.60342       15.9990 ; qtot   -1.566
        15           c14bf         1   UNL       c14        15    -0.10277       12.0110 ; qtot   -1.668
        16           c15bf         1   UNL       c15        16     0.18643       12.0110 ; qtot   -1.482
        17           c16bf         1   UNL       c16        17    -0.22499       12.0110 ; qtot   -1.707
        18           c17bf         1   UNL       c17        18     0.19187       12.0110 ; qtot   -1.515
        19           c18bf         1   UNL       c18        19    -0.17138       12.0110 ; qtot   -1.686
        20           c19bf         1   UNL       c19        20    -0.10443       12.0110 ; qtot   -1.791
        21           c20bf         1   UNL       c20        21     0.11097       12.0110 ; qtot   -1.680
        22           f21bf         1   UNL       f21        22    -0.11764       18.9980 ; qtot   -1.798
        23           f22bf         1   UNL       f22        23    -0.11100       18.9980 ; qtot   -1.909
        24           h23bf         1   UNL       h23        24     0.14623        1.0080 ; qtot   -1.762
        25           h24bf         1   UNL       h24        25     0.14623        1.0080 ; qtot   -1.616
        26           h25bf         1   UNL       h25        26     0.14030        1.0080 ; qtot   -1.476
        27           h26bf         1   UNL       h26        27     0.14030        1.0080 ; qtot   -1.335
        28           h27bf         1   UNL       h27        28     0.33836        1.0080 ; qtot   -0.997
        29           h28bf         1   UNL       h28        29     0.04522        1.0080 ; qtot   -0.952
        30           h29bf         1   UNL       h29        30     0.04522        1.0080 ; qtot   -0.907
        31           h30bf         1   UNL       h30        31     0.04522        1.0080 ; qtot   -0.861
        32           h31bf         1   UNL       h31        32     0.40249        1.0080 ; qtot   -0.459
        33           h32bf         1   UNL       h32        33     0.04522        1.0080 ; qtot   -0.414
        34           h33bf         1   UNL       h33        34     0.04522        1.0080 ; qtot   -0.369
        35           h34bf         1   UNL       h34        35     0.04522        1.0080 ; qtot   -0.323
        36           h35bf         1   UNL       h35        36     0.16317        1.0080 ; qtot   -0.160
        37           h36bf         1   UNL       h36        37     0.16016        1.0080 ; qtot    0.000

[ bonds ]
;       ai        aj funct               r               k
         1         2     1        0.139881   350469.169482    ;  uncertainty r = 0.000059, k = 3.608165
         1         3     1        0.139881   350469.169482    ;  uncertainty r = 0.000059, k = 3.608165
         1        11     1        0.147234   266184.169824    ;  uncertainty r = 0.000089, k = 12.194520
         2         4     1        0.139215   359042.641064    ;  uncertainty r = 0.000045, k = 3.009393
         2        24     1        0.108751   333157.997168    ;  uncertainty r = 0.000045, k = 1.128370
         3         5     1        0.139215   359042.641064    ;  uncertainty r = 0.000045, k = 3.009393
         3        25     1        0.108751   333157.997168    ;  uncertainty r = 0.000045, k = 1.128370
         4         7     1        0.139630   349504.479639    ;  uncertainty r = 0.000022, k = 3.365378
         4        26     1        0.108801   333642.333984    ;  uncertainty r = 0.000019, k = 1.144904
         5         7     1        0.139630   349504.479639    ;  uncertainty r = 0.000022, k = 3.365378
         5        27     1        0.108801   333642.333984    ;  uncertainty r = 0.000019, k = 1.144904
         6        11     1        0.129920   469113.124023    ;  uncertainty r = 0.000082, k = 8.217676
         6        16     1        0.137913   298398.313965    ;  uncertainty r = 0.000140, k = 30.059167
         7         8     1        0.152147   213548.803735    ;  uncertainty r = 0.000097, k = 3.797965
         8        13     1        0.153487   207492.767627    ;  uncertainty r = 0.000036, k = 5.323988
         8        14     1        0.144782   263188.488135    ;  uncertainty r = 0.000100, k = 11.942382
         8        15     1        0.153487   207492.767627    ;  uncertainty r = 0.000036, k = 5.323988
         9        10     1        0.140924   445210.032129    ;  uncertainty r = 0.000135, k = 9.272720
         9        12     1        0.123338   831790.334180    ;  uncertainty r = 0.000145, k = 18.504737
         9        17     1        0.147169   249885.416211    ;  uncertainty r = 0.000119, k = 14.773402
        10        11     1        0.138730   299259.578516    ;  uncertainty r = 0.000126, k = 21.340042
        10        28     1        0.102046   453472.206348    ;  uncertainty r = 0.000020, k = 4.304453
        13        29     1        0.109572   309908.578662    ;  uncertainty r = 0.000020, k = 1.196963
        13        30     1        0.109572   309908.578662    ;  uncertainty r = 0.000020, k = 1.196963
        13        31     1        0.109572   309908.578662    ;  uncertainty r = 0.000020, k = 1.196963
        14        32     1        0.097230   467409.288086    ;  uncertainty r = 0.000030, k = 3.616114
        15        33     1        0.109572   309908.578662    ;  uncertainty r = 0.000020, k = 1.196963
        15        34     1        0.109572   309908.578662    ;  uncertainty r = 0.000020, k = 1.196963
        15        35     1        0.109572   309908.578662    ;  uncertainty r = 0.000020, k = 1.196963
        16        17     1        0.142590   372926.248096    ;  uncertainty r = 0.000148, k = 16.529447
        16        21     1        0.140433   336905.057227    ;  uncertainty r = 0.000176, k = 24.471772
        17        18     1        0.140508   347875.135449    ;  uncertainty r = 0.000126, k = 12.443667
        18        19     1        0.138491   354691.602832    ;  uncertainty r = 0.000121, k = 8.819840
        18        23     1        0.134403   336979.932031    ;  uncertainty r = 0.000119, k = 10.004964
        19        20     1        0.139976   374936.120752    ;  uncertainty r = 0.000149, k = 8.513854
        19        36     1        0.108667   335712.780664    ;  uncertainty r = 0.000023, k = 1.606776
        20        21     1        0.138065   354172.790918    ;  uncertainty r = 0.000121, k = 5.631620
        20        37     1        0.108696   335845.471484    ;  uncertainty r = 0.000016, k = 1.486023
        21        22     1        0.134627   338380.591406    ;  uncertainty r = 0.000163, k = 5.325585

[ angles ]
;       ai        aj        ak funct           theta             cth
         1         2         4     1      121.936852      513.032355    ;  uncertainty theta = 0.001595, k = 0.037411
         1         2        24     1      118.373268      267.332069    ;  uncertainty theta = 0.002929, k = 0.046096
         1         3         5     1      121.936852      513.032355    ;  uncertainty theta = 0.001595, k = 0.037411
         1         3        25     1      118.373268      267.332069    ;  uncertainty theta = 0.002929, k = 0.046096
         1        11         6     1      122.595093      443.674779    ;  uncertainty theta = 0.004173, k = 0.217369
         1        11        10     1      116.884933      514.991307    ;  uncertainty theta = 0.004774, k = 0.241509
         2         1         3     1      120.778732      421.634403    ;  uncertainty theta = 0.002896, k = 0.258077
         2         1        11     1      117.746155      401.386667    ;  uncertainty theta = 0.003212, k = 0.117206
         2         4         7     1      121.733681      516.745355    ;  uncertainty theta = 0.002295, k = 0.052085
         2         4        26     1      119.605568      285.026158    ;  uncertainty theta = 0.002260, k = 0.028336
         3         1        11     1      117.746155      401.386667    ;  uncertainty theta = 0.003212, k = 0.117206
         3         5         7     1      121.733681      516.745355    ;  uncertainty theta = 0.002295, k = 0.052085
         3         5        27     1      119.605568      285.026158    ;  uncertainty theta = 0.002260, k = 0.028336
         4         2        24     1      120.211563      284.749080    ;  uncertainty theta = 0.002936, k = 0.063323
         4         7         5     1      119.700928      459.849442    ;  uncertainty theta = 0.002192, k = 0.105996
         4         7         8     1      119.835281      368.426622    ;  uncertainty theta = 0.004163, k = 0.173853
         5         3        25     1      120.211563      284.749080    ;  uncertainty theta = 0.002936, k = 0.063323
         5         7         8     1      119.835281      368.426622    ;  uncertainty theta = 0.004163, k = 0.173853
         6        11        10     1      123.569435      681.048595    ;  uncertainty theta = 0.005852, k = 0.177441
         6        16        17     1      124.850296      553.963043    ;  uncertainty theta = 0.007294, k = 0.108444
         6        16        21     1      117.058365      455.367328    ;  uncertainty theta = 0.004735, k = 0.228257
         7         4        26     1      118.678185      262.012993    ;  uncertainty theta = 0.001113, k = 0.066500
         7         5        27     1      118.678185      262.012993    ;  uncertainty theta = 0.001113, k = 0.066500
         7         8        13     1      109.715744      550.550008    ;  uncertainty theta = 0.001726, k = 0.033764
         7         8        14     1      109.685776      703.897222    ;  uncertainty theta = 0.001965, k = 0.142449
         7         8        15     1      109.715744      550.550008    ;  uncertainty theta = 0.001726, k = 0.033764
         8        13        29     1      107.275742      375.507488    ;  uncertainty theta = 0.000927, k = 0.039228
         8        13        30     1      107.275742      375.507488    ;  uncertainty theta = 0.000927, k = 0.039228
         8        13        31     1      107.275742      375.507488    ;  uncertainty theta = 0.000927, k = 0.039228
         8        14        32     1      107.710533      483.511457    ;  uncertainty theta = 0.002078, k = 0.098569
         8        15        33     1      107.275742      375.507488    ;  uncertainty theta = 0.000927, k = 0.039228
         8        15        34     1      107.275742      375.507488    ;  uncertainty theta = 0.000927, k = 0.039228
         8        15        35     1      107.275742      375.507488    ;  uncertainty theta = 0.000927, k = 0.039228
         9        10        11     1      121.510864      490.840097    ;  uncertainty theta = 0.002974, k = 0.201824
         9        10        28     1      115.054062      352.706871    ;  uncertainty theta = 0.006724, k = 0.124032
         9        17        16     1      118.382713      486.404397    ;  uncertainty theta = 0.005922, k = 0.263592
         9        17        18     1      118.946190      422.877804    ;  uncertainty theta = 0.001721, k = 0.362272
        10         9        12     1      124.910706      830.872454    ;  uncertainty theta = 0.001893, k = 0.122614
        10         9        17     1      109.570335      374.286750    ;  uncertainty theta = 0.005055, k = 0.241079
        11         6        16     1      115.298584      411.098174    ;  uncertainty theta = 0.004609, k = 0.432484
        11        10        28     1      116.906433      330.282831    ;  uncertainty theta = 0.006674, k = 0.180948
        12         9        17     1      126.019165      490.522766    ;  uncertainty theta = 0.005063, k = 0.092429
        13         8        14     1      108.829308      692.110313    ;  uncertainty theta = 0.002464, k = 0.098428
        13         8        15     1      110.087318      564.121450    ;  uncertainty theta = 0.001573, k = 0.073265
        14         8        15     1      108.829308      692.110313    ;  uncertainty theta = 0.002464, k = 0.098428
        16        17        18     1      121.826561      448.570148    ;  uncertainty theta = 0.009948, k = 0.176007
        16        21        20     1      122.497269      403.043004    ;  uncertainty theta = 0.004191, k = 0.322500
        16        21        22     1      116.434608      449.175090    ;  uncertainty theta = 0.003955, k = 0.328195
        17        16        21     1      119.150673      363.074012    ;  uncertainty theta = 0.011884, k = 0.340658
        17        18        19     1      124.359879      367.020038    ;  uncertainty theta = 0.006466, k = 0.352276
        17        18        23     1      116.653221      483.272781    ;  uncertainty theta = 0.007760, k = 0.174651
        18        19        20     1      120.273537      495.270689    ;  uncertainty theta = 0.002782, k = 0.099813
        18        19        36     1      119.739441      277.414056    ;  uncertainty theta = 0.002888, k = 0.143281
        19        18        23     1      118.588882      514.069354    ;  uncertainty theta = 0.003650, k = 0.144583
        19        20        21     1      120.295738      497.961471    ;  uncertainty theta = 0.002099, k = 0.084974
        19        20        37     1      120.745316      277.119486    ;  uncertainty theta = 0.002940, k = 0.057398
        20        19        36     1      121.314621      277.140139    ;  uncertainty theta = 0.002343, k = 0.064658
        20        21        22     1      119.591454      512.499492    ;  uncertainty theta = 0.002812, k = 0.321147
        21        20        37     1      119.267807      277.096885    ;  uncertainty theta = 0.004606, k = 0.069375
        29        13        30     1      105.686974      317.730736    ;  uncertainty theta = 0.001105, k = 0.008156
        29        13        31     1      105.686974      317.730736    ;  uncertainty theta = 0.001105, k = 0.008156
        30        13        31     1      105.686974      317.730736    ;  uncertainty theta = 0.001105, k = 0.008156
        33        15        34     1      105.686974      317.730736    ;  uncertainty theta = 0.001105, k = 0.008156
        33        15        35     1      105.686974      317.730736    ;  uncertainty theta = 0.001105, k = 0.008156
        34        15        35     1      105.686974      317.730736    ;  uncertainty theta = 0.001105, k = 0.008156

[ dihedrals ] ; propers for gromacs 4.5 or higher, use funct 9
;       ai        aj        ak        al funct           phase               k        pn
         1         2         4         7     9        0.000000       -0.133648         1    ;  uncertainty k = 0.232409
         1         2         4         7     9      180.000000       12.534119         2    ;  uncertainty k = 0.264133
         1         2         4         7     9        0.000000       -0.659583         3    ;  uncertainty k = 0.473407
         1         2         4         7     9      180.000000        0.896722         4    ;  uncertainty k = 0.301178
         1         2         4        26     9        0.000000        0.104451         1    ;  uncertainty k = 0.123158
         1         2         4        26     9      180.000000        8.153176         2    ;  uncertainty k = 0.285564
         1         2         4        26     9        0.000000        1.386423         3    ;  uncertainty k = 0.199866
         1         2         4        26     9      180.000000        1.841381         4    ;  uncertainty k = 0.178837
         1         3         5         7     9        0.000000       -0.133648         1    ;  uncertainty k = 0.232409
         1         3         5         7     9      180.000000       12.534119         2    ;  uncertainty k = 0.264133
         1         3         5         7     9        0.000000       -0.659583         3    ;  uncertainty k = 0.473407
         1         3         5         7     9      180.000000        0.896722         4    ;  uncertainty k = 0.301178
         1         3         5        27     9        0.000000        0.104451         1    ;  uncertainty k = 0.123158
         1         3         5        27     9      180.000000        8.153176         2    ;  uncertainty k = 0.285564
         1         3         5        27     9        0.000000        1.386423         3    ;  uncertainty k = 0.199866
         1         3         5        27     9      180.000000        1.841381         4    ;  uncertainty k = 0.178837
         1        11         6        16     9        0.000000       -0.284823         1    ;  uncertainty k = 0.679833
         1        11         6        16     9      180.000000       18.646154         2    ;  uncertainty k = 0.596035
         1        11         6        16     9        0.000000        2.875366         3    ;  uncertainty k = 0.456295
         1        11         6        16     9      180.000000        1.383855         4    ;  uncertainty k = 0.426031
         1        11        10         9     9        0.000000        1.173863         1    ;  uncertainty k = 0.863461
         1        11        10         9     9      180.000000        5.587678         2    ;  uncertainty k = 0.865012
         1        11        10         9     9        0.000000        0.535622         3    ;  uncertainty k = 0.196932
         1        11        10         9     9      180.000000       -0.134999         4    ;  uncertainty k = 0.362493
         1        11        10        28     9        0.000000        0.963756         1    ;  uncertainty k = 0.248533
         1        11        10        28     9      180.000000        4.848461         2    ;  uncertainty k = 0.893124
         1        11        10        28     9        0.000000        1.375195         3    ;  uncertainty k = 0.251481
         1        11        10        28     9      180.000000       -0.091810         4    ;  uncertainty k = 0.261270
         2         1         3         5     9        0.000000        0.055276         1    ;  uncertainty k = 0.149138
         2         1         3         5     9      180.000000       10.940931         2    ;  uncertainty k = 0.285082
         2         1         3         5     9        0.000000       -0.595107         3    ;  uncertainty k = 0.165961
         2         1         3         5     9      180.000000        0.949927         4    ;  uncertainty k = 0.261174
         2         1         3        25     9        0.000000        0.065425         1    ;  uncertainty k = 0.154407
         2         1         3        25     9      180.000000        6.880289         2    ;  uncertainty k = 0.569493
         2         1         3        25     9        0.000000        1.307046         3    ;  uncertainty k = 0.238388
         2         1         3        25     9      180.000000        1.580985         4    ;  uncertainty k = 0.264455
         2         1        11         6     9        0.000000        0.921313         1    ;  uncertainty k = 0.814369
         2         1        11         6     9      180.000000        4.150084         2    ;  uncertainty k = 0.307878
         2         1        11         6     9        0.000000        0.569389         3    ;  uncertainty k = 0.165798
         2         1        11         6     9      180.000000       -0.137758         4    ;  uncertainty k = 0.172802
         2         1        11        10     9        0.000000       -0.087028         1    ;  uncertainty k = 0.413670
         2         1        11        10     9      180.000000        4.193284         2    ;  uncertainty k = 0.374076
         2         1        11        10     9        0.000000        0.553401         3    ;  uncertainty k = 0.112703
         2         1        11        10     9      180.000000       -0.135707         4    ;  uncertainty k = 0.034022
         2         4         7         5     9        0.000000       -0.145837         1    ;  uncertainty k = 0.090644
         2         4         7         5     9      180.000000       11.057203         2    ;  uncertainty k = 0.371393
         2         4         7         5     9        0.000000       -0.343350         3    ;  uncertainty k = 0.267016
         2         4         7         5     9      180.000000        0.889288         4    ;  uncertainty k = 0.302074
         2         4         7         8     9        0.000000        0.213013         1    ;  uncertainty k = 0.165869
         2         4         7         8     9      180.000000        8.409903         2    ;  uncertainty k = 0.512358
         2         4         7         8     9        0.000000        1.391291         3    ;  uncertainty k = 0.345931
         2         4         7         8     9      180.000000        1.926967         4    ;  uncertainty k = 0.263557
         3         1         2         4     9        0.000000        0.055276         1    ;  uncertainty k = 0.149138
         3         1         2         4     9      180.000000       10.940931         2    ;  uncertainty k = 0.285082
         3         1         2         4     9        0.000000       -0.595107         3    ;  uncertainty k = 0.165961
         3         1         2         4     9      180.000000        0.949927         4    ;  uncertainty k = 0.261174
         3         1         2        24     9        0.000000        0.065425         1    ;  uncertainty k = 0.154407
         3         1         2        24     9      180.000000        6.880289         2    ;  uncertainty k = 0.569493
         3         1         2        24     9        0.000000        1.307046         3    ;  uncertainty k = 0.238388
         3         1         2        24     9      180.000000        1.580985         4    ;  uncertainty k = 0.264455
         3         1        11         6     9        0.000000        0.921313         1    ;  uncertainty k = 0.814369
         3         1        11         6     9      180.000000        4.150084         2    ;  uncertainty k = 0.307878
         3         1        11         6     9        0.000000        0.569389         3    ;  uncertainty k = 0.165798
         3         1        11         6     9      180.000000       -0.137758         4    ;  uncertainty k = 0.172802
         3         1        11        10     9        0.000000       -0.087028         1    ;  uncertainty k = 0.413670
         3         1        11        10     9      180.000000        4.193284         2    ;  uncertainty k = 0.374076
         3         1        11        10     9        0.000000        0.553401         3    ;  uncertainty k = 0.112703
         3         1        11        10     9      180.000000       -0.135707         4    ;  uncertainty k = 0.034022
         3         5         7         4     9        0.000000       -0.145837         1    ;  uncertainty k = 0.090644
         3         5         7         4     9      180.000000       11.057203         2    ;  uncertainty k = 0.371393
         3         5         7         4     9        0.000000       -0.343350         3    ;  uncertainty k = 0.267016
         3         5         7         4     9      180.000000        0.889288         4    ;  uncertainty k = 0.302074
         3         5         7         8     9        0.000000        0.213013         1    ;  uncertainty k = 0.165869
         3         5         7         8     9      180.000000        8.409903         2    ;  uncertainty k = 0.512358
         3         5         7         8     9        0.000000        1.391291         3    ;  uncertainty k = 0.345931
         3         5         7         8     9      180.000000        1.926967         4    ;  uncertainty k = 0.263557
         4         2         1        11     9        0.000000        0.090603         1    ;  uncertainty k = 0.155365
         4         2         1        11     9      180.000000        9.101391         2    ;  uncertainty k = 0.627679
         4         2         1        11     9        0.000000        1.339150         3    ;  uncertainty k = 0.268921
         4         2         1        11     9      180.000000        1.694430         4    ;  uncertainty k = 0.194966
         4         7         5        27     9        0.000000        0.099411         1    ;  uncertainty k = 0.169150
         4         7         5        27     9      180.000000        7.277331         2    ;  uncertainty k = 0.487638
         4         7         5        27     9        0.000000        1.399666         3    ;  uncertainty k = 0.329314
         4         7         5        27     9      180.000000        1.678522         4    ;  uncertainty k = 0.191976
         4         7         8        13     9        0.000000       -0.409207         1    ;  uncertainty k = 0.095577
         4         7         8        13     9      180.000000        2.717206         2    ;  uncertainty k = 0.115248
         4         7         8        13     9        0.000000        0.444820         3    ;  uncertainty k = 0.108147
         4         7         8        13     9      180.000000        0.287592         4    ;  uncertainty k = 0.049350
         4         7         8        14     9        0.000000       -1.219998         1    ;  uncertainty k = 0.274825
         4         7         8        14     9      180.000000        3.868486         2    ;  uncertainty k = 0.116802
         4         7         8        14     9        0.000000        0.651180         3    ;  uncertainty k = 0.135171
         4         7         8        14     9      180.000000        0.512033         4    ;  uncertainty k = 0.043839
         4         7         8        15     9        0.000000       -0.409207         1    ;  uncertainty k = 0.095577
         4         7         8        15     9      180.000000        2.717206         2    ;  uncertainty k = 0.115248
         4         7         8        15     9        0.000000        0.444820         3    ;  uncertainty k = 0.108147
         4         7         8        15     9      180.000000        0.287592         4    ;  uncertainty k = 0.049350
         5         3         1        11     9        0.000000        0.090603         1    ;  uncertainty k = 0.155365
         5         3         1        11     9      180.000000        9.101391         2    ;  uncertainty k = 0.627679
         5         3         1        11     9        0.000000        1.339150         3    ;  uncertainty k = 0.268921
         5         3         1        11     9      180.000000        1.694430         4    ;  uncertainty k = 0.194966
         5         7         4        26     9        0.000000        0.099411         1    ;  uncertainty k = 0.169150
         5         7         4        26     9      180.000000        7.277331         2    ;  uncertainty k = 0.487638
         5         7         4        26     9        0.000000        1.399666         3    ;  uncertainty k = 0.329314
         5         7         4        26     9      180.000000        1.678522         4    ;  uncertainty k = 0.191976
         5         7         8        13     9        0.000000       -0.409207         1    ;  uncertainty k = 0.095577
         5         7         8        13     9      180.000000        2.717206         2    ;  uncertainty k = 0.115248
         5         7         8        13     9        0.000000        0.444820         3    ;  uncertainty k = 0.108147
         5         7         8        13     9      180.000000        0.287592         4    ;  uncertainty k = 0.049350
         5         7         8        14     9        0.000000       -1.219998         1    ;  uncertainty k = 0.274825
         5         7         8        14     9      180.000000        3.868486         2    ;  uncertainty k = 0.116802
         5         7         8        14     9        0.000000        0.651180         3    ;  uncertainty k = 0.135171
         5         7         8        14     9      180.000000        0.512033         4    ;  uncertainty k = 0.043839
         5         7         8        15     9        0.000000       -0.409207         1    ;  uncertainty k = 0.095577
         5         7         8        15     9      180.000000        2.717206         2    ;  uncertainty k = 0.115248
         5         7         8        15     9        0.000000        0.444820         3    ;  uncertainty k = 0.108147
         5         7         8        15     9      180.000000        0.287592         4    ;  uncertainty k = 0.049350
         6        11        10         9     9        0.000000        0.061526         1    ;  uncertainty k = 0.986013
         6        11        10         9     9      180.000000        7.745241         2    ;  uncertainty k = 0.658385
         6        11        10         9     9        0.000000        0.588598         3    ;  uncertainty k = 0.692296
         6        11        10         9     9      180.000000        0.347858         4    ;  uncertainty k = 0.224786
         6        11        10        28     9        0.000000        5.470599         1    ;  uncertainty k = 1.575114
         6        11        10        28     9      180.000000       11.585835         2    ;  uncertainty k = 0.696691
         6        11        10        28     9        0.000000        1.227535         3    ;  uncertainty k = 0.722591
         6        11        10        28     9      180.000000       -0.314429         4    ;  uncertainty k = 0.224595
         6        16        17         9     9        0.000000       -0.214758         1    ;  uncertainty k = 0.535956
         6        16        17         9     9      180.000000        6.699356         2    ;  uncertainty k = 0.749003
         6        16        17         9     9        0.000000        1.142966         3    ;  uncertainty k = 0.327563
         6        16        17         9     9      180.000000        1.644976         4    ;  uncertainty k = 0.208576
         6        16        17        18     9        0.000000        0.217705         1    ;  uncertainty k = 0.557478
         6        16        17        18     9      180.000000        7.395645         2    ;  uncertainty k = 0.819653
         6        16        17        18     9        0.000000        0.917463         3    ;  uncertainty k = 0.210481
         6        16        17        18     9      180.000000        1.620511         4    ;  uncertainty k = 0.247121
         6        16        21        20     9        0.000000        0.071525         1    ;  uncertainty k = 0.435961
         6        16        21        20     9      180.000000        6.692120         2    ;  uncertainty k = 0.451605
         6        16        21        20     9        0.000000        0.886925         3    ;  uncertainty k = 0.124622
         6        16        21        20     9      180.000000        1.433553         4    ;  uncertainty k = 0.322612
         6        16        21        22     9        0.000000        0.022697         1    ;  uncertainty k = 0.509185
         6        16        21        22     9      180.000000       11.189426         2    ;  uncertainty k = 0.406313
         6        16        21        22     9        0.000000        1.226602         3    ;  uncertainty k = 0.593497
         6        16        21        22     9      180.000000        1.236998         4    ;  uncertainty k = 0.334295
         7         4         2        24     9        0.000000       -0.030724         1    ;  uncertainty k = 0.185676
         7         4         2        24     9      180.000000        7.531827         2    ;  uncertainty k = 0.200235
         7         4         2        24     9        0.000000        1.277586         3    ;  uncertainty k = 0.254720
         7         4         2        24     9      180.000000        1.862935         4    ;  uncertainty k = 0.207130
         7         5         3        25     9        0.000000       -0.030724         1    ;  uncertainty k = 0.185676
         7         5         3        25     9      180.000000        7.531827         2    ;  uncertainty k = 0.200235
         7         5         3        25     9        0.000000        1.277586         3    ;  uncertainty k = 0.254720
         7         5         3        25     9      180.000000        1.862935         4    ;  uncertainty k = 0.207130
         7         8        13        29     9        0.000000        0.351770         1    ;  uncertainty k = 0.319275
         7         8        13        29     9      180.000000       -0.223483         2    ;  uncertainty k = 0.173255
         7         8        13        29     9        0.000000        0.715961         3    ;  uncertainty k = 0.098048
         7         8        13        29     9      180.000000       -0.000790         4    ;  uncertainty k = 0.041032
         7         8        13        30     9        0.000000        0.351770         1    ;  uncertainty k = 0.319275
         7         8        13        30     9      180.000000       -0.223483         2    ;  uncertainty k = 0.173255
         7         8        13        30     9        0.000000        0.715961         3    ;  uncertainty k = 0.098048
         7         8        13        30     9      180.000000       -0.000790         4    ;  uncertainty k = 0.041032
         7         8        13        31     9        0.000000        0.351770         1    ;  uncertainty k = 0.319275
         7         8        13        31     9      180.000000       -0.223483         2    ;  uncertainty k = 0.173255
         7         8        13        31     9        0.000000        0.715961         3    ;  uncertainty k = 0.098048
         7         8        13        31     9      180.000000       -0.000790         4    ;  uncertainty k = 0.041032
         7         8        14        32     9        0.000000       14.991889         1    ;  uncertainty k = 0.177214
         7         8        14        32     9      180.000000       -3.682075         2    ;  uncertainty k = 0.239404
         7         8        14        32     9        0.000000        0.980423         3    ;  uncertainty k = 0.057176
         7         8        14        32     9      180.000000        0.176294         4    ;  uncertainty k = 0.044986
         7         8        15        33     9        0.000000        0.351770         1    ;  uncertainty k = 0.319275
         7         8        15        33     9      180.000000       -0.223483         2    ;  uncertainty k = 0.173255
         7         8        15        33     9        0.000000        0.715961         3    ;  uncertainty k = 0.098048
         7         8        15        33     9      180.000000       -0.000790         4    ;  uncertainty k = 0.041032
         7         8        15        34     9        0.000000        0.351770         1    ;  uncertainty k = 0.319275
         7         8        15        34     9      180.000000       -0.223483         2    ;  uncertainty k = 0.173255
         7         8        15        34     9        0.000000        0.715961         3    ;  uncertainty k = 0.098048
         7         8        15        34     9      180.000000       -0.000790         4    ;  uncertainty k = 0.041032
         7         8        15        35     9        0.000000        0.351770         1    ;  uncertainty k = 0.319275
         7         8        15        35     9      180.000000       -0.223483         2    ;  uncertainty k = 0.173255
         7         8        15        35     9        0.000000        0.715961         3    ;  uncertainty k = 0.098048
         7         8        15        35     9      180.000000       -0.000790         4    ;  uncertainty k = 0.041032
         8         7         4        26     9        0.000000       -0.074274         1    ;  uncertainty k = 0.468917
         8         7         4        26     9      180.000000        7.722560         2    ;  uncertainty k = 0.204460
         8         7         4        26     9        0.000000        0.599783         3    ;  uncertainty k = 0.298353
         8         7         4        26     9      180.000000        0.966282         4    ;  uncertainty k = 0.105372
         8         7         5        27     9        0.000000       -0.074274         1    ;  uncertainty k = 0.468917
         8         7         5        27     9      180.000000        7.722560         2    ;  uncertainty k = 0.204460
         8         7         5        27     9        0.000000        0.599783         3    ;  uncertainty k = 0.298353
         8         7         5        27     9      180.000000        0.966282         4    ;  uncertainty k = 0.105372
         9        17        16        21     9        0.000000        0.402301         1    ;  uncertainty k = 0.748762
         9        17        16        21     9      180.000000        4.990335         2    ;  uncertainty k = 0.605248
         9        17        16        21     9        0.000000        1.283469         3    ;  uncertainty k = 0.193734
         9        17        16        21     9      180.000000        1.535799         4    ;  uncertainty k = 0.088062
         9        17        18        19     9        0.000000        0.127453         1    ;  uncertainty k = 0.222047
         9        17        18        19     9      180.000000        5.724061         2    ;  uncertainty k = 0.383678
         9        17        18        19     9        0.000000        1.170102         3    ;  uncertainty k = 0.326755
         9        17        18        19     9      180.000000        1.577389         4    ;  uncertainty k = 0.247559
         9        17        18        23     9        0.000000       -0.184210         1    ;  uncertainty k = 0.316535
         9        17        18        23     9      180.000000        8.937562         2    ;  uncertainty k = 0.536415
         9        17        18        23     9        0.000000        1.735732         3    ;  uncertainty k = 0.344014
         9        17        18        23     9      180.000000        1.495987         4    ;  uncertainty k = 0.159416
        10         9        17        16     9        0.000000       -1.083866         1    ;  uncertainty k = 1.408770
        10         9        17        16     9      180.000000        2.063452         2    ;  uncertainty k = 1.007359
        10         9        17        16     9        0.000000        0.015179         3    ;  uncertainty k = 0.423235
        10         9        17        16     9      180.000000        0.500456         4    ;  uncertainty k = 0.306894
        10         9        17        18     9        0.000000       -0.409180         1    ;  uncertainty k = 1.233728
        10         9        17        18     9      180.000000        2.377725         2    ;  uncertainty k = 0.727357
        10         9        17        18     9        0.000000        0.475736         3    ;  uncertainty k = 0.412824
        10         9        17        18     9      180.000000        0.472082         4    ;  uncertainty k = 0.258030
        10        11         6        16     9        0.000000       -0.823348         1    ;  uncertainty k = 0.313394
        10        11         6        16     9      180.000000       23.376297         2    ;  uncertainty k = 0.203471
        10        11         6        16     9        0.000000        1.888739         3    ;  uncertainty k = 0.217798
        10        11         6        16     9      180.000000        1.467532         4    ;  uncertainty k = 0.485537
        11         1         2        24     9        0.000000       -0.292664         1    ;  uncertainty k = 0.201632
        11         1         2        24     9      180.000000        7.231705         2    ;  uncertainty k = 0.259579
        11         1         2        24     9        0.000000        0.705224         3    ;  uncertainty k = 0.164683
        11         1         2        24     9      180.000000        1.044690         4    ;  uncertainty k = 0.163139
        11         1         3        25     9        0.000000       -0.292664         1    ;  uncertainty k = 0.201632
        11         1         3        25     9      180.000000        7.231705         2    ;  uncertainty k = 0.259579
        11         1         3        25     9        0.000000        0.705224         3    ;  uncertainty k = 0.164683
        11         1         3        25     9      180.000000        1.044690         4    ;  uncertainty k = 0.163139
        11         6        16        17     9        0.000000        1.549504         1    ;  uncertainty k = 2.121625
        11         6        16        17     9      180.000000        3.498240         2    ;  uncertainty k = 1.513326
        11         6        16        17     9        0.000000        1.639430         3    ;  uncertainty k = 0.271688
        11         6        16        17     9      180.000000        0.363787         4    ;  uncertainty k = 0.520636
        11         6        16        21     9        0.000000        2.407569         1    ;  uncertainty k = 2.723382
        11         6        16        21     9      180.000000        4.552980         2    ;  uncertainty k = 1.727769
        11         6        16        21     9        0.000000        2.349464         3    ;  uncertainty k = 0.435888
        11         6        16        21     9      180.000000        0.302811         4    ;  uncertainty k = 0.459263
        11        10         9        12     9        0.000000        0.171734         1    ;  uncertainty k = 1.278956
        11        10         9        12     9      180.000000       11.507625         2    ;  uncertainty k = 0.561084
        11        10         9        12     9        0.000000        1.309419         3    ;  uncertainty k = 0.356303
        11        10         9        12     9      180.000000       -0.549208         4    ;  uncertainty k = 0.410446
        11        10         9        17     9        0.000000        0.294099         1    ;  uncertainty k = 1.928965
        11        10         9        17     9      180.000000        3.415535         2    ;  uncertainty k = 0.973348
        11        10         9        17     9        0.000000        0.807889         3    ;  uncertainty k = 0.207598
        11        10         9        17     9      180.000000        0.498014         4    ;  uncertainty k = 0.385443
        12         9        10        28     9        0.000000        1.778978         1    ;  uncertainty k = 3.012565
        12         9        10        28     9      180.000000        9.386550         2    ;  uncertainty k = 0.696367
        12         9        10        28     9        0.000000        0.718114         3    ;  uncertainty k = 0.473472
        12         9        10        28     9      180.000000       -0.090811         4    ;  uncertainty k = 0.077201
        12         9        17        16     9        0.000000       -2.196356         1    ;  uncertainty k = 1.052224
        12         9        17        16     9      180.000000        4.872204         2    ;  uncertainty k = 0.537569
        12         9        17        16     9        0.000000        0.362094         3    ;  uncertainty k = 0.334755
        12         9        17        16     9      180.000000       -0.061604         4    ;  uncertainty k = 0.239579
        12         9        17        18     9        0.000000       -1.580953         1    ;  uncertainty k = 0.992931
        12         9        17        18     9      180.000000        4.804283         2    ;  uncertainty k = 0.890564
        12         9        17        18     9        0.000000        0.542980         3    ;  uncertainty k = 0.206386
        12         9        17        18     9      180.000000       -0.111808         4    ;  uncertainty k = 0.206914
        13         8        14        32     9        0.000000       12.662226         1    ;  uncertainty k = 0.317843
        13         8        14        32     9      180.000000       -1.675063         2    ;  uncertainty k = 0.239567
        13         8        14        32     9        0.000000        1.060161         3    ;  uncertainty k = 0.149524
        13         8        14        32     9      180.000000        0.360746         4    ;  uncertainty k = 0.102772
        13         8        15        33     9        0.000000       -1.125963         1    ;  uncertainty k = 0.230766
        13         8        15        33     9      180.000000       -0.047879         2    ;  uncertainty k = 0.090864
        13         8        15        33     9        0.000000        0.742644         3    ;  uncertainty k = 0.072669
        13         8        15        33     9      180.000000       -0.033077         4    ;  uncertainty k = 0.054936
        13         8        15        34     9        0.000000       -1.125963         1    ;  uncertainty k = 0.230766
        13         8        15        34     9      180.000000       -0.047879         2    ;  uncertainty k = 0.090864
        13         8        15        34     9        0.000000        0.742644         3    ;  uncertainty k = 0.072669
        13         8        15        34     9      180.000000       -0.033077         4    ;  uncertainty k = 0.054936
        13         8        15        35     9        0.000000       -1.125963         1    ;  uncertainty k = 0.230766
        13         8        15        35     9      180.000000       -0.047879         2    ;  uncertainty k = 0.090864
        13         8        15        35     9        0.000000        0.742644         3    ;  uncertainty k = 0.072669
        13         8        15        35     9      180.000000       -0.033077         4    ;  uncertainty k = 0.054936
        14         8        13        29     9        0.000000       -1.961845         1    ;  uncertainty k = 0.551181
        14         8        13        29     9      180.000000       -0.960259         2    ;  uncertainty k = 0.282480
        14         8        13        29     9        0.000000        0.831230         3    ;  uncertainty k = 0.087292
        14         8        13        29     9      180.000000       -0.214593         4    ;  uncertainty k = 0.050561
        14         8        13        30     9        0.000000       -1.961845         1    ;  uncertainty k = 0.551181
        14         8        13        30     9      180.000000       -0.960259         2    ;  uncertainty k = 0.282480
        14         8        13        30     9        0.000000        0.831230         3    ;  uncertainty k = 0.087292
        14         8        13        30     9      180.000000       -0.214593         4    ;  uncertainty k = 0.050561
        14         8        13        31     9        0.000000       -1.961845         1    ;  uncertainty k = 0.551181
        14         8        13        31     9      180.000000       -0.960259         2    ;  uncertainty k = 0.282480
        14         8        13        31     9        0.000000        0.831230         3    ;  uncertainty k = 0.087292
        14         8        13        31     9      180.000000       -0.214593         4    ;  uncertainty k = 0.050561
        14         8        15        33     9        0.000000       -1.961845         1    ;  uncertainty k = 0.551181
        14         8        15        33     9      180.000000       -0.960259         2    ;  uncertainty k = 0.282480
        14         8        15        33     9        0.000000        0.831230         3    ;  uncertainty k = 0.087292
        14         8        15        33     9      180.000000       -0.214593         4    ;  uncertainty k = 0.050561
        14         8        15        34     9        0.000000       -1.961845         1    ;  uncertainty k = 0.551181
        14         8        15        34     9      180.000000       -0.960259         2    ;  uncertainty k = 0.282480
        14         8        15        34     9        0.000000        0.831230         3    ;  uncertainty k = 0.087292
        14         8        15        34     9      180.000000       -0.214593         4    ;  uncertainty k = 0.050561
        14         8        15        35     9        0.000000       -1.961845         1    ;  uncertainty k = 0.551181
        14         8        15        35     9      180.000000       -0.960259         2    ;  uncertainty k = 0.282480
        14         8        15        35     9        0.000000        0.831230         3    ;  uncertainty k = 0.087292
        14         8        15        35     9      180.000000       -0.214593         4    ;  uncertainty k = 0.050561
        15         8        13        29     9        0.000000       -1.125963         1    ;  uncertainty k = 0.230766
        15         8        13        29     9      180.000000       -0.047879         2    ;  uncertainty k = 0.090864
        15         8        13        29     9        0.000000        0.742644         3    ;  uncertainty k = 0.072669
        15         8        13        29     9      180.000000       -0.033077         4    ;  uncertainty k = 0.054936
        15         8        13        30     9        0.000000       -1.125963         1    ;  uncertainty k = 0.230766
        15         8        13        30     9      180.000000       -0.047879         2    ;  uncertainty k = 0.090864
        15         8        13        30     9        0.000000        0.742644         3    ;  uncertainty k = 0.072669
        15         8        13        30     9      180.000000       -0.033077         4    ;  uncertainty k = 0.054936
        15         8        13        31     9        0.000000       -1.125963         1    ;  uncertainty k = 0.230766
        15         8        13        31     9      180.000000       -0.047879         2    ;  uncertainty k = 0.090864
        15         8        13        31     9        0.000000        0.742644         3    ;  uncertainty k = 0.072669
        15         8        13        31     9      180.000000       -0.033077         4    ;  uncertainty k = 0.054936
        15         8        14        32     9        0.000000       12.662226         1    ;  uncertainty k = 0.317843
        15         8        14        32     9      180.000000       -1.675063         2    ;  uncertainty k = 0.239567
        15         8        14        32     9        0.000000        1.060161         3    ;  uncertainty k = 0.149524
        15         8        14        32     9      180.000000        0.360746         4    ;  uncertainty k = 0.102772
        16        17        18        19     9        0.000000       -0.023580         1    ;  uncertainty k = 0.333872
        16        17        18        19     9      180.000000        6.400462         2    ;  uncertainty k = 1.033455
        16        17        18        19     9        0.000000        0.159183         3    ;  uncertainty k = 0.410297
        16        17        18        19     9      180.000000        1.270254         4    ;  uncertainty k = 0.203520
        16        17        18        23     9        0.000000        0.039505         1    ;  uncertainty k = 0.511210
        16        17        18        23     9      180.000000       10.030681         2    ;  uncertainty k = 0.486107
        16        17        18        23     9        0.000000        1.721617         3    ;  uncertainty k = 0.520992
        16        17        18        23     9      180.000000        1.552570         4    ;  uncertainty k = 0.194786
        16        21        20        19     9        0.000000        0.263867         1    ;  uncertainty k = 0.297787
        16        21        20        19     9      180.000000        9.964905         2    ;  uncertainty k = 0.237612
        16        21        20        19     9        0.000000        0.446055         3    ;  uncertainty k = 0.441039
        16        21        20        19     9      180.000000        1.448307         4    ;  uncertainty k = 0.203262
        16        21        20        37     9        0.000000        0.172961         1    ;  uncertainty k = 0.501839
        16        21        20        37     9      180.000000        7.207168         2    ;  uncertainty k = 0.617036
        16        21        20        37     9        0.000000        1.354581         3    ;  uncertainty k = 0.356093
        16        21        20        37     9      180.000000        1.488974         4    ;  uncertainty k = 0.160766
        17         9        10        28     9        0.000000        2.074792         1    ;  uncertainty k = 2.264939
        17         9        10        28     9      180.000000        4.869109         2    ;  uncertainty k = 1.070214
        17         9        10        28     9        0.000000        1.610562         3    ;  uncertainty k = 0.258534
        17         9        10        28     9      180.000000       -0.108270         4    ;  uncertainty k = 0.110786
        17        16        21        20     9        0.000000       -0.315781         1    ;  uncertainty k = 0.813632
        17        16        21        20     9      180.000000        4.467164         2    ;  uncertainty k = 1.507218
        17        16        21        20     9        0.000000        0.186605         3    ;  uncertainty k = 0.228361
        17        16        21        20     9      180.000000        1.105984         4    ;  uncertainty k = 0.340922
        17        16        21        22     9        0.000000       -0.148613         1    ;  uncertainty k = 0.713526
        17        16        21        22     9      180.000000        7.507458         2    ;  uncertainty k = 0.422534
        17        16        21        22     9        0.000000        1.356695         3    ;  uncertainty k = 0.279701
        17        16        21        22     9      180.000000        1.436705         4    ;  uncertainty k = 0.156873
        17        18        19        20     9        0.000000       -0.007239         1    ;  uncertainty k = 0.237681
        17        18        19        20     9      180.000000        8.188605         2    ;  uncertainty k = 0.325378
        17        18        19        20     9        0.000000        0.470285         3    ;  uncertainty k = 0.430925
        17        18        19        20     9      180.000000        1.421123         4    ;  uncertainty k = 0.273445
        17        18        19        36     9        0.000000        0.186883         1    ;  uncertainty k = 0.561861
        17        18        19        36     9      180.000000        5.939108         2    ;  uncertainty k = 0.319013
        17        18        19        36     9        0.000000        1.446936         3    ;  uncertainty k = 0.314063
        17        18        19        36     9      180.000000        1.561781         4    ;  uncertainty k = 0.186852
        18        17        16        21     9        0.000000        0.339871         1    ;  uncertainty k = 0.331446
        18        17        16        21     9      180.000000        5.612420         2    ;  uncertainty k = 0.756237
        18        17        16        21     9        0.000000        0.696937         3    ;  uncertainty k = 0.453035
        18        17        16        21     9      180.000000        1.556084         4    ;  uncertainty k = 0.134715
        18        19        20        21     9        0.000000       -0.252487         1    ;  uncertainty k = 0.578189
        18        19        20        21     9      180.000000       11.743261         2    ;  uncertainty k = 0.236985
        18        19        20        21     9        0.000000       -0.548081         3    ;  uncertainty k = 0.659011
        18        19        20        21     9      180.000000        1.002232         4    ;  uncertainty k = 0.240031
        18        19        20        37     9        0.000000        0.075368         1    ;  uncertainty k = 0.322866
        18        19        20        37     9      180.000000        6.851097         2    ;  uncertainty k = 0.513509
        18        19        20        37     9        0.000000        1.401381         3    ;  uncertainty k = 0.298309
        18        19        20        37     9      180.000000        1.612903         4    ;  uncertainty k = 0.213766
        19        20        21        22     9        0.000000        0.304937         1    ;  uncertainty k = 0.443169
        19        20        21        22     9      180.000000       14.683308         2    ;  uncertainty k = 0.308633
        19        20        21        22     9        0.000000        1.373069         3    ;  uncertainty k = 0.278228
        19        20        21        22     9      180.000000        1.387499         4    ;  uncertainty k = 0.323735
        20        19        18        23     9        0.000000        0.213398         1    ;  uncertainty k = 0.446609
        20        19        18        23     9      180.000000       14.258345         2    ;  uncertainty k = 0.260579
        20        19        18        23     9        0.000000        1.237363         3    ;  uncertainty k = 0.291622
        20        19        18        23     9      180.000000        1.428332         4    ;  uncertainty k = 0.199162
        21        20        19        36     9        0.000000        0.143885         1    ;  uncertainty k = 0.302183
        21        20        19        36     9      180.000000        7.043298         2    ;  uncertainty k = 0.622588
        21        20        19        36     9        0.000000        1.370888         3    ;  uncertainty k = 0.383621
        21        20        19        36     9      180.000000        1.656680         4    ;  uncertainty k = 0.103596
        22        21        20        37     9        0.000000       -0.280905         1    ;  uncertainty k = 0.282770
        22        21        20        37     9      180.000000       11.214865         2    ;  uncertainty k = 0.507499
        22        21        20        37     9        0.000000        1.048984         3    ;  uncertainty k = 0.192274
        22        21        20        37     9      180.000000        1.169128         4    ;  uncertainty k = 0.341610
        23        18        19        36     9        0.000000       -0.188564         1    ;  uncertainty k = 0.379162
        23        18        19        36     9      180.000000       10.177549         2    ;  uncertainty k = 0.569085
        23        18        19        36     9        0.000000        0.994741         3    ;  uncertainty k = 0.237413
        23        18        19        36     9      180.000000        1.196607         4    ;  uncertainty k = 0.263893
        24         2         4        26     9        0.000000       -0.117736         1    ;  uncertainty k = 0.210279
        24         2         4        26     9      180.000000        8.002242         2    ;  uncertainty k = 0.460743
        24         2         4        26     9        0.000000       -0.392489         3    ;  uncertainty k = 0.200264
        24         2         4        26     9      180.000000        0.296121         4    ;  uncertainty k = 0.231305
        25         3         5        27     9        0.000000       -0.117736         1    ;  uncertainty k = 0.210279
        25         3         5        27     9      180.000000        8.002242         2    ;  uncertainty k = 0.460743
        25         3         5        27     9        0.000000       -0.392489         3    ;  uncertainty k = 0.200264
        25         3         5        27     9      180.000000        0.296121         4    ;  uncertainty k = 0.231305
        36        19        20        37     9        0.000000        0.019645         1    ;  uncertainty k = 0.487899
        36        19        20        37     9      180.000000        7.559376         2    ;  uncertainty k = 0.524542
        36        19        20        37     9        0.000000       -0.268265         3    ;  uncertainty k = 0.352164
        36        19        20        37     9      180.000000        0.063446         4    ;  uncertainty k = 0.278255

[ dihedrals ] ; impropers
;       ai        aj        ak        al funct           phase               k        pn
         1         2         3        11     4      180.000000        8.891802         2    ;  uncertainty k = 0.243441
         1         3        11         2     4      180.000000        8.891802         2    ;  uncertainty k = 0.243441
         1        11         2         3     4      180.000000        8.891802         2    ;  uncertainty k = 0.243441
         2         1         4        24     4      180.000000        4.118157         2    ;  uncertainty k = 0.143895
         2         4        24         1     4      180.000000        4.118157         2    ;  uncertainty k = 0.143895
         2        24         1         4     4      180.000000        4.118157         2    ;  uncertainty k = 0.143895
         3         1         5        25     4      180.000000        4.118157         2    ;  uncertainty k = 0.143895
         3         5        25         1     4      180.000000        4.118157         2    ;  uncertainty k = 0.143895
         3        25         1         5     4      180.000000        4.118157         2    ;  uncertainty k = 0.143895
         4         2         7        26     4      180.000000        3.498633         2    ;  uncertainty k = 0.120339
         4         7        26         2     4      180.000000        3.498633         2    ;  uncertainty k = 0.120339
         4        26         2         7     4      180.000000        3.498633         2    ;  uncertainty k = 0.120339
         5         3         7        27     4      180.000000        3.498633         2    ;  uncertainty k = 0.120339
         5         7        27         3     4      180.000000        3.498633         2    ;  uncertainty k = 0.120339
         5        27         3         7     4      180.000000        3.498633         2    ;  uncertainty k = 0.120339
         7         4         5         8     4      180.000000       13.022907         2    ;  uncertainty k = 0.059644
         7         5         8         4     4      180.000000       13.022907         2    ;  uncertainty k = 0.059644
         7         8         4         5     4      180.000000       13.022907         2    ;  uncertainty k = 0.059644
         9        10        12        17     4      180.000000       51.702362         2    ;  uncertainty k = 0.022586
         9        12        17        10     4      180.000000       51.702362         2    ;  uncertainty k = 0.022586
         9        17        10        12     4      180.000000       51.702362         2    ;  uncertainty k = 0.022586
        10         9        11        28     4      180.000000        0.673946         2    ;  uncertainty k = 0.666862
        10        11        28         9     4      180.000000        0.673946         2    ;  uncertainty k = 0.666862
        10        28         9        11     4      180.000000        0.673946         2    ;  uncertainty k = 0.666862
        11         1         6        10     4      180.000000       30.775914         2    ;  uncertainty k = 0.036943
        11         6        10         1     4      180.000000       30.775914         2    ;  uncertainty k = 0.036943
        11        10         1         6     4      180.000000       30.775914         2    ;  uncertainty k = 0.036943
        16         6        17        21     4      180.000000       20.369024         2    ;  uncertainty k = 0.037156
        16        17        21         6     4      180.000000       20.369024         2    ;  uncertainty k = 0.037156
        16        21         6        17     4      180.000000       20.369024         2    ;  uncertainty k = 0.037156
        17         9        16        18     4      180.000000        5.260793         2    ;  uncertainty k = 0.373231
        17        16        18         9     4      180.000000        5.260793         2    ;  uncertainty k = 0.373231
        17        18         9        16     4      180.000000        5.260793         2    ;  uncertainty k = 0.373231
        18        17        19        23     4      180.000000       18.348079         2    ;  uncertainty k = 0.153858
        18        19        23        17     4      180.000000       18.348079         2    ;  uncertainty k = 0.153858
        18        23        17        19     4      180.000000       18.348079         2    ;  uncertainty k = 0.153858
        19        18        20        36     4      180.000000        2.148745         2    ;  uncertainty k = 0.384096
        19        20        36        18     4      180.000000        2.148745         2    ;  uncertainty k = 0.384096
        19        36        18        20     4      180.000000        2.148745         2    ;  uncertainty k = 0.384096
        20        19        21        37     4      180.000000        3.485445         2    ;  uncertainty k = 0.171745
        20        21        37        19     4      180.000000        3.485445         2    ;  uncertainty k = 0.171745
        20        37        19        21     4      180.000000        3.485445         2    ;  uncertainty k = 0.171745
        21        16        20        22     4      180.000000       12.551230         2    ;  uncertainty k = 0.108717
        21        20        22        16     4      180.000000       12.551230         2    ;  uncertainty k = 0.108717
        21        22        16        20     4      180.000000       12.551230         2    ;  uncertainty k = 0.108717

[ pairs ]
;       ai        aj funct
         1         7     1
         1         9     1
         1        16     1
         1        26     1
         1        27     1
         1        28     1
         2         5     1
         2         6     1
         2         8     1
         2        10     1
         2        25     1
         3         4     1
         3         6     1
         3         8     1
         3        10     1
         3        24     1
         4        11     1
         4        13     1
         4        14     1
         4        15     1
         4        27     1
         5        11     1
         5        13     1
         5        14     1
         5        15     1
         5        26     1
         6         9     1
         6        18     1
         6        20     1
         6        22     1
         6        28     1
         7        24     1
         7        25     1
         7        29     1
         7        30     1
         7        31     1
         7        32     1
         7        33     1
         7        34     1
         7        35     1
         8        26     1
         8        27     1
         9        19     1
         9        21     1
         9        23     1
        10        16     1
        10        18     1
        11        12     1
        11        17     1
        11        21     1
        11        24     1
        11        25     1
        12        16     1
        12        18     1
        12        28     1
        13        32     1
        13        33     1
        13        34     1
        13        35     1
        14        29     1
        14        30     1
        14        31     1
        14        33     1
        14        34     1
        14        35     1
        15        29     1
        15        30     1
        15        31     1
        15        32     1
        16        19     1
        16        23     1
        16        37     1
        17        20     1
        17        22     1
        17        28     1
        17        36     1
        18        21     1
        18        37     1
        19        22     1
        20        23     1
        21        36     1
        22        37     1
        23        36     1
        24        26     1
        25        27     1
        36        37     1
