; ITP file created by ByteFF-joint-25, 2026-02-17 09:48:28.957089

[ atomtypes ]
;name           bonded.type        at.num        mass        charge   ptype           sigma         epsilon
 c0bf                                   6      0.0000       0.00000       A     3.31501e-01     4.12880e-01    ;  uncertainty sigma = 0.000017, epsilon = 0.001089
 c1bf                                   6      0.0000       0.00000       A     3.31519e-01     4.13337e-01    ;  uncertainty sigma = 0.000004, epsilon = 0.000604
 c2bf                                   6      0.0000       0.00000       A     3.31519e-01     4.13337e-01    ;  uncertainty sigma = 0.000004, epsilon = 0.000604
 c3bf                                   6      0.0000       0.00000       A     3.31522e-01     4.13196e-01    ;  uncertainty sigma = 0.000004, epsilon = 0.000446
 c4bf                                   6      0.0000       0.00000       A     3.31522e-01     4.13196e-01    ;  uncertainty sigma = 0.000004, epsilon = 0.000446
 n5bf                                   7      0.0000       0.00000       A     3.38451e-01     3.94289e-01    ;  uncertainty sigma = 0.000025, epsilon = 0.001873
 c6bf                                   6      0.0000       0.00000       A     3.31544e-01     4.13202e-01    ;  uncertainty sigma = 0.000004, epsilon = 0.001200
 c7bf                                   6      0.0000       0.00000       A     3.39755e-01     4.50272e-01    ;  uncertainty sigma = 0.000025, epsilon = 0.001042
 c8bf                                   6      0.0000       0.00000       A     3.31513e-01     4.13012e-01    ;  uncertainty sigma = 0.000012, epsilon = 0.000723
 c9bf                                   6      0.0000       0.00000       A     3.31553e-01     4.14094e-01    ;  uncertainty sigma = 0.000012, epsilon = 0.000786
 c10bf                                  6      0.0000       0.00000       A     3.31510e-01     4.13349e-01    ;  uncertainty sigma = 0.000006, epsilon = 0.000631
 c11bf                                  6      0.0000       0.00000       A     3.31510e-01     4.13281e-01    ;  uncertainty sigma = 0.000007, epsilon = 0.000662
 c12bf                                  6      0.0000       0.00000       A     3.31510e-01     4.13527e-01    ;  uncertainty sigma = 0.000008, epsilon = 0.000785
 c13bf                                  6      0.0000       0.00000       A     3.31504e-01     4.13224e-01    ;  uncertainty sigma = 0.000008, epsilon = 0.000825
 c14bf                                  6      0.0000       0.00000       A     3.31539e-01     4.13390e-01    ;  uncertainty sigma = 0.000009, epsilon = 0.001213
 n15bf                                  7      0.0000       0.00000       A     3.26867e-01     4.92512e-01    ;  uncertainty sigma = 0.000088, epsilon = 0.003430
 c16bf                                  6      0.0000       0.00000       A     3.31514e-01     4.12811e-01    ;  uncertainty sigma = 0.000013, epsilon = 0.001292
 o17bf                                  8      0.0000       0.00000       A     3.04814e-01     6.11899e-01    ;  uncertainty sigma = 0.000014, epsilon = 0.001624
 c18bf                                  6      0.0000       0.00000       A     3.39763e-01     4.50805e-01    ;  uncertainty sigma = 0.000004, epsilon = 0.000471
 o19bf                                  8      0.0000       0.00000       A     3.24292e-01     3.89709e-01    ;  uncertainty sigma = 0.000031, epsilon = 0.001714
 c20bf                                  6      0.0000       0.00000       A     3.39763e-01     4.50805e-01    ;  uncertainty sigma = 0.000004, epsilon = 0.000470
 c21bf                                  6      0.0000       0.00000       A     3.39784e-01     4.51160e-01    ;  uncertainty sigma = 0.000003, epsilon = 0.000717
 f22bf                                  9      0.0000       0.00000       A     3.03428e-01     3.47890e-01    ;  uncertainty sigma = 0.000015, epsilon = 0.000826
 h23bf                                  1      0.0000       0.00000       A     2.62567e-01     6.70633e-02    ;  uncertainty sigma = 0.000011, epsilon = 0.000557
 h24bf                                  1      0.0000       0.00000       A     2.62567e-01     6.70633e-02    ;  uncertainty sigma = 0.000011, epsilon = 0.000557
 h25bf                                  1      0.0000       0.00000       A     2.62556e-01     6.70460e-02    ;  uncertainty sigma = 0.000009, epsilon = 0.000514
 h26bf                                  1      0.0000       0.00000       A     2.62556e-01     6.70460e-02    ;  uncertainty sigma = 0.000009, epsilon = 0.000514
 h27bf                                  1      0.0000       0.00000       A     2.62557e-01     6.70748e-02    ;  uncertainty sigma = 0.000009, epsilon = 0.000429
 h28bf                                  1      0.0000       0.00000       A     2.62584e-01     6.68453e-02    ;  uncertainty sigma = 0.000019, epsilon = 0.000520
 h29bf                                  1      0.0000       0.00000       A     1.10651e-01     4.13760e-02    ;  uncertainty sigma = 0.000058, epsilon = 0.001253
 h30bf                                  1      0.0000       0.00000       A     2.60031e-01     8.67182e-02    ;  uncertainty sigma = 0.000009, epsilon = 0.000447
 h31bf                                  1      0.0000       0.00000       A     2.60031e-01     8.67182e-02    ;  uncertainty sigma = 0.000009, epsilon = 0.000447
 h32bf                                  1      0.0000       0.00000       A     2.60031e-01     8.67182e-02    ;  uncertainty sigma = 0.000009, epsilon = 0.000447
 h33bf                                  1      0.0000       0.00000       A     5.37866e-02     1.91555e-02    ;  uncertainty sigma = 0.000161, epsilon = 0.001189
 h34bf                                  1      0.0000       0.00000       A     2.60031e-01     8.67182e-02    ;  uncertainty sigma = 0.000009, epsilon = 0.000447
 h35bf                                  1      0.0000       0.00000       A     2.60031e-01     8.67182e-02    ;  uncertainty sigma = 0.000009, epsilon = 0.000447
 h36bf                                  1      0.0000       0.00000       A     2.60031e-01     8.67182e-02    ;  uncertainty sigma = 0.000009, epsilon = 0.000447
 h37bf                                  1      0.0000       0.00000       A     2.60033e-01     8.66509e-02    ;  uncertainty sigma = 0.000010, epsilon = 0.000546
 h38bf                                  1      0.0000       0.00000       A     2.60033e-01     8.66509e-02    ;  uncertainty sigma = 0.000010, epsilon = 0.000546
 h39bf                                  1      0.0000       0.00000       A     2.60033e-01     8.66509e-02    ;  uncertainty sigma = 0.000010, epsilon = 0.000546

[ moleculetype ]
;name             nrexcl
 MOL                   3

[ atoms ]
;       nr            type      resi   res      atom      cgnr      charge          mass ; qtot
         1            c0bf         1   UNL        c0         1    -0.15139       12.0110 ; qtot   -0.151
         2            c1bf         1   UNL        c1         2    -0.08668       12.0110 ; qtot   -0.238
         3            c2bf         1   UNL        c2         3    -0.08668       12.0110 ; qtot   -0.325
         4            c3bf         1   UNL        c3         4    -0.12388       12.0110 ; qtot   -0.449
         5            c4bf         1   UNL        c4         5    -0.12388       12.0110 ; qtot   -0.573
         6            n5bf         1   UNL        n5         6    -0.62118       14.0070 ; qtot   -1.194
         7            c6bf         1   UNL        c6         7    -0.08876       12.0110 ; qtot   -1.282
         8            c7bf         1   UNL        c7         8     0.20190       12.0110 ; qtot   -1.081
         9            c8bf         1   UNL        c8         9     0.17366       12.0110 ; qtot   -0.907
        10            c9bf         1   UNL        c9        10    -0.17592       12.0110 ; qtot   -1.083
        11           c10bf         1   UNL       c10        11     0.11459       12.0110 ; qtot   -0.968
        12           c11bf         1   UNL       c11        12    -0.13544       12.0110 ; qtot   -1.104
        13           c12bf         1   UNL       c12        13    -0.10348       12.0110 ; qtot   -1.207
        14           c13bf         1   UNL       c13        14    -0.03982       12.0110 ; qtot   -1.247
        15           c14bf         1   UNL       c14        15     0.71850       12.0110 ; qtot   -0.528
        16           n15bf         1   UNL       n15        16    -0.50618       14.0070 ; qtot   -1.035
        17           c16bf         1   UNL       c16        17     0.56321       12.0110 ; qtot   -0.471
        18           o17bf         1   UNL       o17        18    -0.60550       15.9990 ; qtot   -1.077
        19           c18bf         1   UNL       c18        19    -0.10277       12.0110 ; qtot   -1.180
        20           o19bf         1   UNL       o19        20    -0.60342       15.9990 ; qtot   -1.783
        21           c20bf         1   UNL       c20        21    -0.10277       12.0110 ; qtot   -1.886
        22           c21bf         1   UNL       c21        22    -0.04026       12.0110 ; qtot   -1.926
        23           f22bf         1   UNL       f22        23    -0.13870       18.9980 ; qtot   -2.065
        24           h23bf         1   UNL       h23        24     0.14623        1.0080 ; qtot   -1.919
        25           h24bf         1   UNL       h24        25     0.14623        1.0080 ; qtot   -1.772
        26           h25bf         1   UNL       h25        26     0.14030        1.0080 ; qtot   -1.632
        27           h26bf         1   UNL       h26        27     0.14030        1.0080 ; qtot   -1.492
        28           h27bf         1   UNL       h27        28     0.15341        1.0080 ; qtot   -1.338
        29           h28bf         1   UNL       h28        29     0.17584        1.0080 ; qtot   -1.163
        30           h29bf         1   UNL       h29        30     0.33625        1.0080 ; qtot   -0.826
        31           h30bf         1   UNL       h30        31     0.04522        1.0080 ; qtot   -0.781
        32           h31bf         1   UNL       h31        32     0.04522        1.0080 ; qtot   -0.736
        33           h32bf         1   UNL       h32        33     0.04522        1.0080 ; qtot   -0.691
        34           h33bf         1   UNL       h33        34     0.40249        1.0080 ; qtot   -0.288
        35           h34bf         1   UNL       h34        35     0.04522        1.0080 ; qtot   -0.243
        36           h35bf         1   UNL       h35        36     0.04522        1.0080 ; qtot   -0.198
        37           h36bf         1   UNL       h36        37     0.04522        1.0080 ; qtot   -0.152
        38           h37bf         1   UNL       h37        38     0.05084        1.0080 ; qtot   -0.102
        39           h38bf         1   UNL       h38        39     0.05084        1.0080 ; qtot   -0.051
        40           h39bf         1   UNL       h39        40     0.05080        1.0080 ; qtot    0.000

[ bonds ]
;       ai        aj funct               r               k
         1         2     1        0.139881   350469.118408    ;  uncertainty r = 0.000059, k = 3.608145
         1         3     1        0.139881   350469.118408    ;  uncertainty r = 0.000059, k = 3.608145
         1        17     1        0.147299   266765.292285    ;  uncertainty r = 0.000092, k = 12.319746
         2         4     1        0.139215   359042.641064    ;  uncertainty r = 0.000045, k = 3.009393
         2        24     1        0.108751   333157.997168    ;  uncertainty r = 0.000045, k = 1.128370
         3         5     1        0.139215   359042.641064    ;  uncertainty r = 0.000045, k = 3.009393
         3        25     1        0.108751   333157.997168    ;  uncertainty r = 0.000045, k = 1.128370
         4         7     1        0.139630   349504.479639    ;  uncertainty r = 0.000022, k = 3.365378
         4        26     1        0.108801   333642.333984    ;  uncertainty r = 0.000019, k = 1.144904
         5         7     1        0.139630   349504.479639    ;  uncertainty r = 0.000022, k = 3.365378
         5        27     1        0.108801   333642.333984    ;  uncertainty r = 0.000019, k = 1.144904
         6         9     1        0.138684   289195.352637    ;  uncertainty r = 0.000071, k = 30.783913
         6        17     1        0.129708   464193.399902    ;  uncertainty r = 0.000066, k = 10.155008
         7         8     1        0.152147   213548.803735    ;  uncertainty r = 0.000097, k = 3.797965
         8        19     1        0.153487   207492.767627    ;  uncertainty r = 0.000036, k = 5.323988
         8        20     1        0.144782   263188.488135    ;  uncertainty r = 0.000100, k = 11.942382
         8        21     1        0.153487   207492.767627    ;  uncertainty r = 0.000036, k = 5.323986
         9        10     1        0.141734   392289.301611    ;  uncertainty r = 0.000080, k = 15.374303
         9        14     1        0.141844   306039.885352    ;  uncertainty r = 0.000032, k = 27.801368
        10        13     1        0.139877   368575.056641    ;  uncertainty r = 0.000067, k = 3.222872
        10        15     1        0.146556   266305.496631    ;  uncertainty r = 0.000052, k = 14.717276
        11        12     1        0.140198   351180.531201    ;  uncertainty r = 0.000093, k = 4.447581
        11        13     1        0.137894   359234.552441    ;  uncertainty r = 0.000088, k = 9.675824
        11        23     1        0.135558   338536.214551    ;  uncertainty r = 0.000077, k = 4.410962
        12        14     1        0.138870   365742.812451    ;  uncertainty r = 0.000089, k = 7.721935
        12        28     1        0.108786   338550.081201    ;  uncertainty r = 0.000032, k = 1.188633
        13        29     1        0.108581   333195.255811    ;  uncertainty r = 0.000033, k = 2.285173
        14        22     1        0.150649   234450.353174    ;  uncertainty r = 0.000046, k = 2.989946
        15        16     1        0.140091   450228.125195    ;  uncertainty r = 0.000093, k = 15.366200
        15        18     1        0.123473   853603.673340    ;  uncertainty r = 0.000122, k = 12.777085
        16        17     1        0.138912   298725.904004    ;  uncertainty r = 0.000076, k = 21.073661
        16        30     1        0.102058   454589.710254    ;  uncertainty r = 0.000027, k = 4.102140
        19        31     1        0.109572   309908.553125    ;  uncertainty r = 0.000020, k = 1.196951
        19        32     1        0.109572   309908.553125    ;  uncertainty r = 0.000020, k = 1.196951
        19        33     1        0.109572   309908.553125    ;  uncertainty r = 0.000020, k = 1.196951
        20        34     1        0.097230   467409.288086    ;  uncertainty r = 0.000030, k = 3.616125
        21        35     1        0.109572   309908.578662    ;  uncertainty r = 0.000020, k = 1.196955
        21        36     1        0.109572   309908.578662    ;  uncertainty r = 0.000020, k = 1.196955
        21        37     1        0.109572   309908.578662    ;  uncertainty r = 0.000020, k = 1.196955
        22        38     1        0.109435   309134.931934    ;  uncertainty r = 0.000009, k = 1.848083
        22        39     1        0.109435   309134.931934    ;  uncertainty r = 0.000009, k = 1.848083
        22        40     1        0.109435   309134.931934    ;  uncertainty r = 0.000009, k = 1.848083

[ angles ]
;       ai        aj        ak funct           theta             cth
         1         2         4     1      121.936867      513.032355    ;  uncertainty theta = 0.001595, k = 0.037411
         1         2        24     1      118.373268      267.332069    ;  uncertainty theta = 0.002929, k = 0.046096
         1         3         5     1      121.936867      513.032355    ;  uncertainty theta = 0.001595, k = 0.037411
         1         3        25     1      118.373268      267.332069    ;  uncertainty theta = 0.002929, k = 0.046096
         1        17         6     1      122.622452      444.036640    ;  uncertainty theta = 0.003558, k = 0.173159
         1        17        16     1      116.755844      514.526691    ;  uncertainty theta = 0.005048, k = 0.245006
         2         1         3     1      120.778748      421.634435    ;  uncertainty theta = 0.002896, k = 0.258077
         2         1        17     1      117.899368      401.663968    ;  uncertainty theta = 0.002675, k = 0.113742
         2         4         7     1      121.733681      516.745355    ;  uncertainty theta = 0.002295, k = 0.052085
         2         4        26     1      119.605568      285.026158    ;  uncertainty theta = 0.002260, k = 0.028336
         3         1        17     1      117.899368      401.663968    ;  uncertainty theta = 0.002675, k = 0.113742
         3         5         7     1      121.733681      516.745355    ;  uncertainty theta = 0.002295, k = 0.052085
         3         5        27     1      119.605568      285.026158    ;  uncertainty theta = 0.002260, k = 0.028336
         4         2        24     1      120.211563      284.749080    ;  uncertainty theta = 0.002936, k = 0.063323
         4         7         5     1      119.700928      459.849442    ;  uncertainty theta = 0.002192, k = 0.105996
         4         7         8     1      119.835281      368.426622    ;  uncertainty theta = 0.004163, k = 0.173853
         5         3        25     1      120.211563      284.749080    ;  uncertainty theta = 0.002936, k = 0.063323
         5         7         8     1      119.835281      368.426622    ;  uncertainty theta = 0.004163, k = 0.173853
         6         9        10     1      123.042679      562.222319    ;  uncertainty theta = 0.006225, k = 0.109081
         6         9        14     1      117.664429      464.894968    ;  uncertainty theta = 0.009099, k = 0.158323
         6        17        16     1      123.546104      675.013921    ;  uncertainty theta = 0.006250, k = 0.156743
         7         4        26     1      118.678185      262.012993    ;  uncertainty theta = 0.001113, k = 0.066500
         7         5        27     1      118.678185      262.012993    ;  uncertainty theta = 0.001113, k = 0.066500
         7         8        19     1      109.715744      550.550008    ;  uncertainty theta = 0.001726, k = 0.033764
         7         8        20     1      109.685776      703.897222    ;  uncertainty theta = 0.001965, k = 0.142449
         7         8        21     1      109.715744      550.549944    ;  uncertainty theta = 0.001726, k = 0.033764
         8        19        31     1      107.275742      375.507488    ;  uncertainty theta = 0.000927, k = 0.039228
         8        19        32     1      107.275742      375.507488    ;  uncertainty theta = 0.000927, k = 0.039228
         8        19        33     1      107.275742      375.507488    ;  uncertainty theta = 0.000927, k = 0.039228
         8        20        34     1      107.710533      483.511457    ;  uncertainty theta = 0.002078, k = 0.098569
         8        21        35     1      107.275742      375.507456    ;  uncertainty theta = 0.000927, k = 0.039229
         8        21        36     1      107.275742      375.507456    ;  uncertainty theta = 0.000927, k = 0.039229
         8        21        37     1      107.275742      375.507456    ;  uncertainty theta = 0.000927, k = 0.039229
         9         6        17     1      116.403244      415.278503    ;  uncertainty theta = 0.005673, k = 0.413650
         9        10        13     1      122.740501      437.534286    ;  uncertainty theta = 0.002637, k = 0.159148
         9        10        15     1      117.448242      485.588709    ;  uncertainty theta = 0.004852, k = 0.216438
         9        14        12     1      119.470741      477.243725    ;  uncertainty theta = 0.003649, k = 0.130107
         9        14        22     1      118.993469      414.152253    ;  uncertainty theta = 0.005038, k = 0.244727
        10         9        14     1      121.271164      404.802926    ;  uncertainty theta = 0.005086, k = 0.100431
        10        13        11     1      117.322021      472.627733    ;  uncertainty theta = 0.002495, k = 0.109840
        10        13        29     1      120.877213      246.181980    ;  uncertainty theta = 0.005177, k = 0.115638
        10        15        16     1      108.990097      387.260496    ;  uncertainty theta = 0.007419, k = 0.261793
        10        15        18     1      128.035751      512.297078    ;  uncertainty theta = 0.003486, k = 0.151806
        11        12        14     1      121.263329      491.728341    ;  uncertainty theta = 0.003093, k = 0.183269
        11        12        28     1      120.168373      285.966275    ;  uncertainty theta = 0.002511, k = 0.086397
        11        13        29     1      122.104652      281.526010    ;  uncertainty theta = 0.003233, k = 0.096423
        12        11        13     1      123.933640      383.172005    ;  uncertainty theta = 0.005713, k = 0.275175
        12        11        23     1      118.383179      504.379042    ;  uncertainty theta = 0.002254, k = 0.101970
        12        14        22     1      121.301254      430.129641    ;  uncertainty theta = 0.002856, k = 0.258395
        13        10        15     1      117.459763      400.796600    ;  uncertainty theta = 0.003962, k = 0.195478
        13        11        23     1      119.088547      499.437228    ;  uncertainty theta = 0.001116, k = 0.072803
        14        12        28     1      119.288620      270.847093    ;  uncertainty theta = 0.003481, k = 0.067439
        14        22        38     1      109.499817      400.107737    ;  uncertainty theta = 0.001709, k = 0.068429
        14        22        39     1      109.499817      400.107737    ;  uncertainty theta = 0.001709, k = 0.068429
        14        22        40     1      109.499817      400.107737    ;  uncertainty theta = 0.001709, k = 0.068429
        15        16        17     1      120.698891      497.188622    ;  uncertainty theta = 0.003032, k = 0.164369
        15        16        30     1      115.359695      353.409780    ;  uncertainty theta = 0.007397, k = 0.132885
        16        15        18     1      125.003098      819.265263    ;  uncertainty theta = 0.003246, k = 0.067269
        17        16        30     1      116.878708      330.011915    ;  uncertainty theta = 0.006468, k = 0.213208
        19         8        20     1      108.829308      692.110313    ;  uncertainty theta = 0.002464, k = 0.098428
        19         8        21     1      110.087326      564.121450    ;  uncertainty theta = 0.001573, k = 0.073265
        20         8        21     1      108.829308      692.110441    ;  uncertainty theta = 0.002464, k = 0.098427
        31        19        32     1      105.686974      317.730736    ;  uncertainty theta = 0.001105, k = 0.008156
        31        19        33     1      105.686974      317.730736    ;  uncertainty theta = 0.001105, k = 0.008156
        32        19        33     1      105.686974      317.730736    ;  uncertainty theta = 0.001105, k = 0.008156
        35        21        36     1      105.686974      317.730736    ;  uncertainty theta = 0.001105, k = 0.008156
        35        21        37     1      105.686974      317.730736    ;  uncertainty theta = 0.001105, k = 0.008156
        36        21        37     1      105.686974      317.730736    ;  uncertainty theta = 0.001105, k = 0.008156
        38        22        39     1      106.807327      315.669731    ;  uncertainty theta = 0.001138, k = 0.027253
        38        22        40     1      106.807327      315.669731    ;  uncertainty theta = 0.001138, k = 0.027253
        39        22        40     1      106.807327      315.669731    ;  uncertainty theta = 0.001138, k = 0.027253

[ dihedrals ] ; propers for gromacs 4.5 or higher, use funct 9
;       ai        aj        ak        al funct           phase               k        pn
         1         2         4         7     9        0.000000       -0.133648         1    ;  uncertainty k = 0.232407
         1         2         4         7     9      180.000000       12.534118         2    ;  uncertainty k = 0.264133
         1         2         4         7     9        0.000000       -0.659583         3    ;  uncertainty k = 0.473407
         1         2         4         7     9      180.000000        0.896722         4    ;  uncertainty k = 0.301178
         1         2         4        26     9        0.000000        0.104453         1    ;  uncertainty k = 0.123159
         1         2         4        26     9      180.000000        8.153178         2    ;  uncertainty k = 0.285564
         1         2         4        26     9        0.000000        1.386423         3    ;  uncertainty k = 0.199867
         1         2         4        26     9      180.000000        1.841381         4    ;  uncertainty k = 0.178837
         1         3         5         7     9        0.000000       -0.133648         1    ;  uncertainty k = 0.232407
         1         3         5         7     9      180.000000       12.534118         2    ;  uncertainty k = 0.264133
         1         3         5         7     9        0.000000       -0.659583         3    ;  uncertainty k = 0.473407
         1         3         5         7     9      180.000000        0.896722         4    ;  uncertainty k = 0.301178
         1         3         5        27     9        0.000000        0.104453         1    ;  uncertainty k = 0.123159
         1         3         5        27     9      180.000000        8.153178         2    ;  uncertainty k = 0.285564
         1         3         5        27     9        0.000000        1.386423         3    ;  uncertainty k = 0.199867
         1         3         5        27     9      180.000000        1.841381         4    ;  uncertainty k = 0.178837
         1        17         6         9     9        0.000000       -0.510974         1    ;  uncertainty k = 0.593819
         1        17         6         9     9      180.000000       18.853421         2    ;  uncertainty k = 0.428954
         1        17         6         9     9        0.000000        2.745630         3    ;  uncertainty k = 0.436162
         1        17         6         9     9      180.000000        1.355425         4    ;  uncertainty k = 0.350836
         1        17        16        15     9        0.000000        1.075438         1    ;  uncertainty k = 0.757458
         1        17        16        15     9      180.000000        5.482701         2    ;  uncertainty k = 0.755807
         1        17        16        15     9        0.000000        0.546649         3    ;  uncertainty k = 0.334978
         1        17        16        15     9      180.000000       -0.090487         4    ;  uncertainty k = 0.323858
         1        17        16        30     9        0.000000        0.920197         1    ;  uncertainty k = 0.137887
         1        17        16        30     9      180.000000        4.697665         2    ;  uncertainty k = 0.897646
         1        17        16        30     9        0.000000        1.357235         3    ;  uncertainty k = 0.258733
         1        17        16        30     9      180.000000       -0.075011         4    ;  uncertainty k = 0.266243
         2         1         3         5     9        0.000000        0.055277         1    ;  uncertainty k = 0.149140
         2         1         3         5     9      180.000000       10.940931         2    ;  uncertainty k = 0.285083
         2         1         3         5     9        0.000000       -0.595107         3    ;  uncertainty k = 0.165962
         2         1         3         5     9      180.000000        0.949928         4    ;  uncertainty k = 0.261174
         2         1         3        25     9        0.000000        0.065425         1    ;  uncertainty k = 0.154408
         2         1         3        25     9      180.000000        6.880289         2    ;  uncertainty k = 0.569493
         2         1         3        25     9        0.000000        1.307045         3    ;  uncertainty k = 0.238387
         2         1         3        25     9      180.000000        1.580984         4    ;  uncertainty k = 0.264455
         2         1        17         6     9        0.000000        0.849538         1    ;  uncertainty k = 0.689939
         2         1        17         6     9      180.000000        3.947750         2    ;  uncertainty k = 0.270917
         2         1        17         6     9        0.000000        0.583736         3    ;  uncertainty k = 0.193985
         2         1        17         6     9      180.000000       -0.119244         4    ;  uncertainty k = 0.160217
         2         1        17        16     9        0.000000       -0.040932         1    ;  uncertainty k = 0.337414
         2         1        17        16     9      180.000000        4.137388         2    ;  uncertainty k = 0.396931
         2         1        17        16     9        0.000000        0.554332         3    ;  uncertainty k = 0.127248
         2         1        17        16     9      180.000000       -0.118801         4    ;  uncertainty k = 0.033160
         2         4         7         5     9        0.000000       -0.145837         1    ;  uncertainty k = 0.090644
         2         4         7         5     9      180.000000       11.057203         2    ;  uncertainty k = 0.371393
         2         4         7         5     9        0.000000       -0.343350         3    ;  uncertainty k = 0.267016
         2         4         7         5     9      180.000000        0.889288         4    ;  uncertainty k = 0.302074
         2         4         7         8     9        0.000000        0.213013         1    ;  uncertainty k = 0.165869
         2         4         7         8     9      180.000000        8.409903         2    ;  uncertainty k = 0.512358
         2         4         7         8     9        0.000000        1.391291         3    ;  uncertainty k = 0.345931
         2         4         7         8     9      180.000000        1.926967         4    ;  uncertainty k = 0.263557
         3         1         2         4     9        0.000000        0.055277         1    ;  uncertainty k = 0.149140
         3         1         2         4     9      180.000000       10.940931         2    ;  uncertainty k = 0.285083
         3         1         2         4     9        0.000000       -0.595107         3    ;  uncertainty k = 0.165962
         3         1         2         4     9      180.000000        0.949928         4    ;  uncertainty k = 0.261174
         3         1         2        24     9        0.000000        0.065425         1    ;  uncertainty k = 0.154408
         3         1         2        24     9      180.000000        6.880289         2    ;  uncertainty k = 0.569493
         3         1         2        24     9        0.000000        1.307045         3    ;  uncertainty k = 0.238387
         3         1         2        24     9      180.000000        1.580984         4    ;  uncertainty k = 0.264455
         3         1        17         6     9        0.000000        0.849538         1    ;  uncertainty k = 0.689939
         3         1        17         6     9      180.000000        3.947750         2    ;  uncertainty k = 0.270917
         3         1        17         6     9        0.000000        0.583736         3    ;  uncertainty k = 0.193985
         3         1        17         6     9      180.000000       -0.119244         4    ;  uncertainty k = 0.160217
         3         1        17        16     9        0.000000       -0.040932         1    ;  uncertainty k = 0.337414
         3         1        17        16     9      180.000000        4.137388         2    ;  uncertainty k = 0.396931
         3         1        17        16     9        0.000000        0.554332         3    ;  uncertainty k = 0.127248
         3         1        17        16     9      180.000000       -0.118801         4    ;  uncertainty k = 0.033160
         3         5         7         4     9        0.000000       -0.145837         1    ;  uncertainty k = 0.090644
         3         5         7         4     9      180.000000       11.057203         2    ;  uncertainty k = 0.371393
         3         5         7         4     9        0.000000       -0.343350         3    ;  uncertainty k = 0.267016
         3         5         7         4     9      180.000000        0.889288         4    ;  uncertainty k = 0.302074
         3         5         7         8     9        0.000000        0.213013         1    ;  uncertainty k = 0.165869
         3         5         7         8     9      180.000000        8.409903         2    ;  uncertainty k = 0.512358
         3         5         7         8     9        0.000000        1.391291         3    ;  uncertainty k = 0.345931
         3         5         7         8     9      180.000000        1.926967         4    ;  uncertainty k = 0.263557
         4         2         1        17     9        0.000000        0.103896         1    ;  uncertainty k = 0.171614
         4         2         1        17     9      180.000000        9.075490         2    ;  uncertainty k = 0.620616
         4         2         1        17     9        0.000000        1.342468         3    ;  uncertainty k = 0.277440
         4         2         1        17     9      180.000000        1.695510         4    ;  uncertainty k = 0.188755
         4         7         5        27     9        0.000000        0.099411         1    ;  uncertainty k = 0.169150
         4         7         5        27     9      180.000000        7.277331         2    ;  uncertainty k = 0.487638
         4         7         5        27     9        0.000000        1.399666         3    ;  uncertainty k = 0.329314
         4         7         5        27     9      180.000000        1.678522         4    ;  uncertainty k = 0.191976
         4         7         8        19     9        0.000000       -0.409207         1    ;  uncertainty k = 0.095577
         4         7         8        19     9      180.000000        2.717206         2    ;  uncertainty k = 0.115248
         4         7         8        19     9        0.000000        0.444820         3    ;  uncertainty k = 0.108147
         4         7         8        19     9      180.000000        0.287592         4    ;  uncertainty k = 0.049350
         4         7         8        20     9        0.000000       -1.219998         1    ;  uncertainty k = 0.274825
         4         7         8        20     9      180.000000        3.868486         2    ;  uncertainty k = 0.116802
         4         7         8        20     9        0.000000        0.651180         3    ;  uncertainty k = 0.135171
         4         7         8        20     9      180.000000        0.512033         4    ;  uncertainty k = 0.043839
         4         7         8        21     9        0.000000       -0.409206         1    ;  uncertainty k = 0.095576
         4         7         8        21     9      180.000000        2.717206         2    ;  uncertainty k = 0.115248
         4         7         8        21     9        0.000000        0.444820         3    ;  uncertainty k = 0.108147
         4         7         8        21     9      180.000000        0.287592         4    ;  uncertainty k = 0.049350
         5         3         1        17     9        0.000000        0.103896         1    ;  uncertainty k = 0.171614
         5         3         1        17     9      180.000000        9.075490         2    ;  uncertainty k = 0.620616
         5         3         1        17     9        0.000000        1.342468         3    ;  uncertainty k = 0.277440
         5         3         1        17     9      180.000000        1.695510         4    ;  uncertainty k = 0.188755
         5         7         4        26     9        0.000000        0.099411         1    ;  uncertainty k = 0.169150
         5         7         4        26     9      180.000000        7.277331         2    ;  uncertainty k = 0.487638
         5         7         4        26     9        0.000000        1.399666         3    ;  uncertainty k = 0.329314
         5         7         4        26     9      180.000000        1.678522         4    ;  uncertainty k = 0.191976
         5         7         8        19     9        0.000000       -0.409207         1    ;  uncertainty k = 0.095577
         5         7         8        19     9      180.000000        2.717206         2    ;  uncertainty k = 0.115248
         5         7         8        19     9        0.000000        0.444820         3    ;  uncertainty k = 0.108147
         5         7         8        19     9      180.000000        0.287592         4    ;  uncertainty k = 0.049350
         5         7         8        20     9        0.000000       -1.219998         1    ;  uncertainty k = 0.274825
         5         7         8        20     9      180.000000        3.868486         2    ;  uncertainty k = 0.116802
         5         7         8        20     9        0.000000        0.651180         3    ;  uncertainty k = 0.135171
         5         7         8        20     9      180.000000        0.512033         4    ;  uncertainty k = 0.043839
         5         7         8        21     9        0.000000       -0.409206         1    ;  uncertainty k = 0.095576
         5         7         8        21     9      180.000000        2.717206         2    ;  uncertainty k = 0.115248
         5         7         8        21     9        0.000000        0.444820         3    ;  uncertainty k = 0.108147
         5         7         8        21     9      180.000000        0.287592         4    ;  uncertainty k = 0.049350
         6         9        10        13     9        0.000000        0.038462         1    ;  uncertainty k = 0.444830
         6         9        10        13     9      180.000000        8.587019         2    ;  uncertainty k = 0.671837
         6         9        10        13     9        0.000000        0.713148         3    ;  uncertainty k = 0.200155
         6         9        10        13     9      180.000000        1.463394         4    ;  uncertainty k = 0.249538
         6         9        10        15     9        0.000000       -0.318912         1    ;  uncertainty k = 0.501586
         6         9        10        15     9      180.000000        7.364334         2    ;  uncertainty k = 0.847824
         6         9        10        15     9        0.000000        1.039164         3    ;  uncertainty k = 0.400747
         6         9        10        15     9      180.000000        1.558526         4    ;  uncertainty k = 0.213351
         6         9        14        12     9        0.000000        0.294111         1    ;  uncertainty k = 0.469027
         6         9        14        12     9      180.000000        9.023364         2    ;  uncertainty k = 0.267806
         6         9        14        12     9        0.000000        0.893350         3    ;  uncertainty k = 0.102400
         6         9        14        12     9      180.000000        1.382378         4    ;  uncertainty k = 0.285119
         6         9        14        22     9        0.000000        0.035749         1    ;  uncertainty k = 0.111276
         6         9        14        22     9      180.000000        9.834909         2    ;  uncertainty k = 0.290042
         6         9        14        22     9        0.000000        0.953279         3    ;  uncertainty k = 0.315912
         6         9        14        22     9      180.000000        1.223331         4    ;  uncertainty k = 0.296420
         6        17        16        15     9        0.000000        0.260347         1    ;  uncertainty k = 0.744537
         6        17        16        15     9      180.000000        7.151946         2    ;  uncertainty k = 0.710410
         6        17        16        15     9        0.000000        0.556205         3    ;  uncertainty k = 0.726165
         6        17        16        15     9      180.000000        0.390384         4    ;  uncertainty k = 0.219597
         6        17        16        30     9        0.000000        6.065386         1    ;  uncertainty k = 1.650694
         6        17        16        30     9      180.000000       11.046835         2    ;  uncertainty k = 0.751345
         6        17        16        30     9        0.000000        1.163981         3    ;  uncertainty k = 0.602529
         6        17        16        30     9      180.000000       -0.243028         4    ;  uncertainty k = 0.111389
         7         4         2        24     9        0.000000       -0.030724         1    ;  uncertainty k = 0.185676
         7         4         2        24     9      180.000000        7.531827         2    ;  uncertainty k = 0.200235
         7         4         2        24     9        0.000000        1.277586         3    ;  uncertainty k = 0.254720
         7         4         2        24     9      180.000000        1.862935         4    ;  uncertainty k = 0.207130
         7         5         3        25     9        0.000000       -0.030724         1    ;  uncertainty k = 0.185676
         7         5         3        25     9      180.000000        7.531827         2    ;  uncertainty k = 0.200235
         7         5         3        25     9        0.000000        1.277586         3    ;  uncertainty k = 0.254720
         7         5         3        25     9      180.000000        1.862935         4    ;  uncertainty k = 0.207130
         7         8        19        31     9        0.000000        0.351770         1    ;  uncertainty k = 0.319275
         7         8        19        31     9      180.000000       -0.223483         2    ;  uncertainty k = 0.173255
         7         8        19        31     9        0.000000        0.715961         3    ;  uncertainty k = 0.098048
         7         8        19        31     9      180.000000       -0.000790         4    ;  uncertainty k = 0.041032
         7         8        19        32     9        0.000000        0.351770         1    ;  uncertainty k = 0.319275
         7         8        19        32     9      180.000000       -0.223483         2    ;  uncertainty k = 0.173255
         7         8        19        32     9        0.000000        0.715961         3    ;  uncertainty k = 0.098048
         7         8        19        32     9      180.000000       -0.000790         4    ;  uncertainty k = 0.041032
         7         8        19        33     9        0.000000        0.351770         1    ;  uncertainty k = 0.319275
         7         8        19        33     9      180.000000       -0.223483         2    ;  uncertainty k = 0.173255
         7         8        19        33     9        0.000000        0.715961         3    ;  uncertainty k = 0.098048
         7         8        19        33     9      180.000000       -0.000790         4    ;  uncertainty k = 0.041032
         7         8        20        34     9        0.000000       14.991889         1    ;  uncertainty k = 0.177214
         7         8        20        34     9      180.000000       -3.682075         2    ;  uncertainty k = 0.239404
         7         8        20        34     9        0.000000        0.980423         3    ;  uncertainty k = 0.057176
         7         8        20        34     9      180.000000        0.176294         4    ;  uncertainty k = 0.044986
         7         8        21        35     9        0.000000        0.351769         1    ;  uncertainty k = 0.319274
         7         8        21        35     9      180.000000       -0.223482         2    ;  uncertainty k = 0.173255
         7         8        21        35     9        0.000000        0.715961         3    ;  uncertainty k = 0.098047
         7         8        21        35     9      180.000000       -0.000790         4    ;  uncertainty k = 0.041032
         7         8        21        36     9        0.000000        0.351769         1    ;  uncertainty k = 0.319274
         7         8        21        36     9      180.000000       -0.223482         2    ;  uncertainty k = 0.173255
         7         8        21        36     9        0.000000        0.715961         3    ;  uncertainty k = 0.098047
         7         8        21        36     9      180.000000       -0.000790         4    ;  uncertainty k = 0.041032
         7         8        21        37     9        0.000000        0.351769         1    ;  uncertainty k = 0.319274
         7         8        21        37     9      180.000000       -0.223482         2    ;  uncertainty k = 0.173255
         7         8        21        37     9        0.000000        0.715961         3    ;  uncertainty k = 0.098047
         7         8        21        37     9      180.000000       -0.000790         4    ;  uncertainty k = 0.041032
         8         7         4        26     9        0.000000       -0.074274         1    ;  uncertainty k = 0.468917
         8         7         4        26     9      180.000000        7.722560         2    ;  uncertainty k = 0.204460
         8         7         4        26     9        0.000000        0.599783         3    ;  uncertainty k = 0.298353
         8         7         4        26     9      180.000000        0.966282         4    ;  uncertainty k = 0.105372
         8         7         5        27     9        0.000000       -0.074274         1    ;  uncertainty k = 0.468917
         8         7         5        27     9      180.000000        7.722560         2    ;  uncertainty k = 0.204460
         8         7         5        27     9        0.000000        0.599783         3    ;  uncertainty k = 0.298353
         8         7         5        27     9      180.000000        0.966282         4    ;  uncertainty k = 0.105372
         9         6        17        16     9        0.000000       -0.749071         1    ;  uncertainty k = 0.426890
         9         6        17        16     9      180.000000       23.735696         2    ;  uncertainty k = 0.142309
         9         6        17        16     9        0.000000        1.781853         3    ;  uncertainty k = 0.270894
         9         6        17        16     9      180.000000        1.479578         4    ;  uncertainty k = 0.403234
         9        10        13        11     9        0.000000        0.038369         1    ;  uncertainty k = 0.417300
         9        10        13        11     9      180.000000       11.877017         2    ;  uncertainty k = 0.493788
         9        10        13        11     9        0.000000       -0.296600         3    ;  uncertainty k = 0.191593
         9        10        13        11     9      180.000000        1.100769         4    ;  uncertainty k = 0.203139
         9        10        13        29     9        0.000000        0.098092         1    ;  uncertainty k = 0.435476
         9        10        13        29     9      180.000000        7.082700         2    ;  uncertainty k = 0.751235
         9        10        13        29     9        0.000000        1.376102         3    ;  uncertainty k = 0.308076
         9        10        13        29     9      180.000000        1.435589         4    ;  uncertainty k = 0.102280
         9        10        15        16     9        0.000000       -1.245062         1    ;  uncertainty k = 0.929843
         9        10        15        16     9      180.000000        2.361345         2    ;  uncertainty k = 0.988985
         9        10        15        16     9        0.000000       -0.198503         3    ;  uncertainty k = 0.601233
         9        10        15        16     9      180.000000        0.561300         4    ;  uncertainty k = 0.260004
         9        10        15        18     9        0.000000       -2.745583         1    ;  uncertainty k = 0.925661
         9        10        15        18     9      180.000000        5.124241         2    ;  uncertainty k = 0.688870
         9        10        15        18     9        0.000000        0.242193         3    ;  uncertainty k = 0.253626
         9        10        15        18     9      180.000000       -0.125308         4    ;  uncertainty k = 0.189048
         9        14        12        11     9        0.000000        0.120474         1    ;  uncertainty k = 0.354590
         9        14        12        11     9      180.000000       13.298083         2    ;  uncertainty k = 0.332786
         9        14        12        11     9        0.000000        0.401016         3    ;  uncertainty k = 0.289544
         9        14        12        11     9      180.000000        1.095531         4    ;  uncertainty k = 0.253388
         9        14        12        28     9        0.000000        0.351855         1    ;  uncertainty k = 0.291237
         9        14        12        28     9      180.000000        9.561566         2    ;  uncertainty k = 0.399775
         9        14        12        28     9        0.000000        1.498362         3    ;  uncertainty k = 0.201517
         9        14        12        28     9      180.000000        1.564017         4    ;  uncertainty k = 0.130263
         9        14        22        38     9        0.000000        0.058464         1    ;  uncertainty k = 0.224781
         9        14        22        38     9      180.000000        3.082734         2    ;  uncertainty k = 0.454779
         9        14        22        38     9        0.000000        0.426638         3    ;  uncertainty k = 0.098096
         9        14        22        38     9      180.000000        0.378026         4    ;  uncertainty k = 0.041230
         9        14        22        39     9        0.000000        0.058464         1    ;  uncertainty k = 0.224781
         9        14        22        39     9      180.000000        3.082734         2    ;  uncertainty k = 0.454779
         9        14        22        39     9        0.000000        0.426638         3    ;  uncertainty k = 0.098096
         9        14        22        39     9      180.000000        0.378026         4    ;  uncertainty k = 0.041230
         9        14        22        40     9        0.000000        0.058464         1    ;  uncertainty k = 0.224781
         9        14        22        40     9      180.000000        3.082734         2    ;  uncertainty k = 0.454779
         9        14        22        40     9        0.000000        0.426638         3    ;  uncertainty k = 0.098096
         9        14        22        40     9      180.000000        0.378026         4    ;  uncertainty k = 0.041230
        10         9         6        17     9        0.000000        1.433870         1    ;  uncertainty k = 2.213578
        10         9         6        17     9      180.000000        4.010027         2    ;  uncertainty k = 1.657060
        10         9         6        17     9        0.000000        1.588330         3    ;  uncertainty k = 0.741150
        10         9         6        17     9      180.000000        0.380709         4    ;  uncertainty k = 0.487317
        10         9        14        12     9        0.000000        0.296679         1    ;  uncertainty k = 0.771222
        10         9        14        12     9      180.000000        6.455509         2    ;  uncertainty k = 0.944522
        10         9        14        12     9        0.000000        0.282200         3    ;  uncertainty k = 0.269525
        10         9        14        12     9      180.000000        1.028383         4    ;  uncertainty k = 0.309859
        10         9        14        22     9        0.000000        0.211805         1    ;  uncertainty k = 0.526009
        10         9        14        22     9      180.000000        6.081582         2    ;  uncertainty k = 0.493022
        10         9        14        22     9        0.000000        1.265401         3    ;  uncertainty k = 0.359626
        10         9        14        22     9      180.000000        1.352389         4    ;  uncertainty k = 0.204452
        10        13        11        12     9        0.000000        0.082822         1    ;  uncertainty k = 0.345134
        10        13        11        12     9      180.000000        8.663163         2    ;  uncertainty k = 0.493840
        10        13        11        12     9        0.000000        0.373578         3    ;  uncertainty k = 0.432289
        10        13        11        12     9      180.000000        1.345720         4    ;  uncertainty k = 0.431090
        10        13        11        23     9        0.000000        0.046866         1    ;  uncertainty k = 0.324517
        10        13        11        23     9      180.000000       14.145529         2    ;  uncertainty k = 0.227016
        10        13        11        23     9        0.000000        1.428161         3    ;  uncertainty k = 0.294473
        10        13        11        23     9      180.000000        1.335092         4    ;  uncertainty k = 0.089392
        10        15        16        17     9        0.000000        0.276247         1    ;  uncertainty k = 1.378825
        10        15        16        17     9      180.000000        4.107860         2    ;  uncertainty k = 1.229742
        10        15        16        17     9        0.000000        0.641227         3    ;  uncertainty k = 0.225229
        10        15        16        17     9      180.000000        0.484711         4    ;  uncertainty k = 0.355038
        10        15        16        30     9        0.000000        2.434064         1    ;  uncertainty k = 2.380345
        10        15        16        30     9      180.000000        5.178656         2    ;  uncertainty k = 0.955652
        10        15        16        30     9        0.000000        1.798373         3    ;  uncertainty k = 0.147455
        10        15        16        30     9      180.000000       -0.011961         4    ;  uncertainty k = 0.088708
        11        12        14        22     9        0.000000        0.165929         1    ;  uncertainty k = 0.147205
        11        12        14        22     9      180.000000       12.371067         2    ;  uncertainty k = 0.407532
        11        12        14        22     9        0.000000        1.395374         3    ;  uncertainty k = 0.475067
        11        12        14        22     9      180.000000        1.730385         4    ;  uncertainty k = 0.265548
        11        13        10        15     9        0.000000        0.224039         1    ;  uncertainty k = 0.245528
        11        13        10        15     9      180.000000        9.027461         2    ;  uncertainty k = 0.664720
        11        13        10        15     9        0.000000        1.382491         3    ;  uncertainty k = 0.223697
        11        13        10        15     9      180.000000        1.831306         4    ;  uncertainty k = 0.221420
        12        11        13        29     9        0.000000        0.071466         1    ;  uncertainty k = 0.138144
        12        11        13        29     9      180.000000        6.148639         2    ;  uncertainty k = 0.529767
        12        11        13        29     9        0.000000        1.416250         3    ;  uncertainty k = 0.324519
        12        11        13        29     9      180.000000        1.608923         4    ;  uncertainty k = 0.035061
        12        14        22        38     9        0.000000        0.040329         1    ;  uncertainty k = 0.245891
        12        14        22        38     9      180.000000        2.115983         2    ;  uncertainty k = 0.283026
        12        14        22        38     9        0.000000        0.291249         3    ;  uncertainty k = 0.089773
        12        14        22        38     9      180.000000        0.237136         4    ;  uncertainty k = 0.018760
        12        14        22        39     9        0.000000        0.040329         1    ;  uncertainty k = 0.245891
        12        14        22        39     9      180.000000        2.115983         2    ;  uncertainty k = 0.283026
        12        14        22        39     9        0.000000        0.291249         3    ;  uncertainty k = 0.089773
        12        14        22        39     9      180.000000        0.237136         4    ;  uncertainty k = 0.018760
        12        14        22        40     9        0.000000        0.040329         1    ;  uncertainty k = 0.245891
        12        14        22        40     9      180.000000        2.115983         2    ;  uncertainty k = 0.283026
        12        14        22        40     9        0.000000        0.291249         3    ;  uncertainty k = 0.089773
        12        14        22        40     9      180.000000        0.237136         4    ;  uncertainty k = 0.018760
        13        10         9        14     9        0.000000       -0.003499         1    ;  uncertainty k = 0.472609
        13        10         9        14     9      180.000000        6.586523         2    ;  uncertainty k = 0.781164
        13        10         9        14     9        0.000000        0.359830         3    ;  uncertainty k = 0.187692
        13        10         9        14     9      180.000000        1.411064         4    ;  uncertainty k = 0.263209
        13        10        15        16     9        0.000000        0.342638         1    ;  uncertainty k = 0.671986
        13        10        15        16     9      180.000000        2.990342         2    ;  uncertainty k = 0.603026
        13        10        15        16     9        0.000000        0.643754         3    ;  uncertainty k = 0.388267
        13        10        15        16     9      180.000000        0.530074         4    ;  uncertainty k = 0.265179
        13        10        15        18     9        0.000000       -2.145287         1    ;  uncertainty k = 0.588021
        13        10        15        18     9      180.000000        5.417317         2    ;  uncertainty k = 0.631896
        13        10        15        18     9        0.000000        0.509742         3    ;  uncertainty k = 0.299701
        13        10        15        18     9      180.000000       -0.110826         4    ;  uncertainty k = 0.117123
        13        11        12        14     9        0.000000       -0.176395         1    ;  uncertainty k = 0.472651
        13        11        12        14     9      180.000000        6.585549         2    ;  uncertainty k = 0.699552
        13        11        12        14     9        0.000000        0.137583         3    ;  uncertainty k = 0.516395
        13        11        12        14     9      180.000000        1.234797         4    ;  uncertainty k = 0.266521
        13        11        12        28     9        0.000000       -0.003077         1    ;  uncertainty k = 0.385379
        13        11        12        28     9      180.000000        5.349108         2    ;  uncertainty k = 0.633324
        13        11        12        28     9        0.000000        1.187736         3    ;  uncertainty k = 0.211863
        13        11        12        28     9      180.000000        1.390849         4    ;  uncertainty k = 0.168830
        14         9         6        17     9        0.000000        1.730701         1    ;  uncertainty k = 2.367858
        14         9         6        17     9      180.000000        5.099652         2    ;  uncertainty k = 1.474254
        14         9         6        17     9        0.000000        2.211058         3    ;  uncertainty k = 0.355232
        14         9         6        17     9      180.000000        0.176451         4    ;  uncertainty k = 0.460790
        14         9        10        15     9        0.000000       -0.041163         1    ;  uncertainty k = 0.618017
        14         9        10        15     9      180.000000        6.103119         2    ;  uncertainty k = 0.881233
        14         9        10        15     9        0.000000        0.966876         3    ;  uncertainty k = 0.271823
        14         9        10        15     9      180.000000        1.477102         4    ;  uncertainty k = 0.153685
        14        12        11        23     9        0.000000       -0.040800         1    ;  uncertainty k = 0.198357
        14        12        11        23     9      180.000000       10.227299         2    ;  uncertainty k = 0.469679
        14        12        11        23     9        0.000000        1.541703         3    ;  uncertainty k = 0.441154
        14        12        11        23     9      180.000000        1.601974         4    ;  uncertainty k = 0.272233
        15        10        13        29     9        0.000000       -0.397730         1    ;  uncertainty k = 0.706622
        15        10        13        29     9      180.000000        7.620400         2    ;  uncertainty k = 0.403376
        15        10        13        29     9        0.000000        0.928923         3    ;  uncertainty k = 0.245975
        15        10        13        29     9      180.000000        1.200455         4    ;  uncertainty k = 0.140897
        17         1         2        24     9        0.000000       -0.281777         1    ;  uncertainty k = 0.189176
        17         1         2        24     9      180.000000        7.205592         2    ;  uncertainty k = 0.258556
        17         1         2        24     9        0.000000        0.706769         3    ;  uncertainty k = 0.159388
        17         1         2        24     9      180.000000        1.047480         4    ;  uncertainty k = 0.162863
        17         1         3        25     9        0.000000       -0.281777         1    ;  uncertainty k = 0.189176
        17         1         3        25     9      180.000000        7.205592         2    ;  uncertainty k = 0.258556
        17         1         3        25     9        0.000000        0.706769         3    ;  uncertainty k = 0.159388
        17         1         3        25     9      180.000000        1.047480         4    ;  uncertainty k = 0.162863
        17        16        15        18     9        0.000000        0.127245         1    ;  uncertainty k = 1.121679
        17        16        15        18     9      180.000000       11.229615         2    ;  uncertainty k = 0.462697
        17        16        15        18     9        0.000000        1.301861         3    ;  uncertainty k = 0.370929
        17        16        15        18     9      180.000000       -0.501672         4    ;  uncertainty k = 0.406473
        18        15        16        30     9        0.000000        1.557426         1    ;  uncertainty k = 2.536983
        18        15        16        30     9      180.000000        9.275896         2    ;  uncertainty k = 0.599164
        18        15        16        30     9        0.000000        0.736765         3    ;  uncertainty k = 0.510834
        18        15        16        30     9      180.000000       -0.116238         4    ;  uncertainty k = 0.056838
        19         8        20        34     9        0.000000       12.662226         1    ;  uncertainty k = 0.317843
        19         8        20        34     9      180.000000       -1.675063         2    ;  uncertainty k = 0.239567
        19         8        20        34     9        0.000000        1.060161         3    ;  uncertainty k = 0.149524
        19         8        20        34     9      180.000000        0.360746         4    ;  uncertainty k = 0.102772
        19         8        21        35     9        0.000000       -1.125963         1    ;  uncertainty k = 0.230766
        19         8        21        35     9      180.000000       -0.047879         2    ;  uncertainty k = 0.090863
        19         8        21        35     9        0.000000        0.742644         3    ;  uncertainty k = 0.072669
        19         8        21        35     9      180.000000       -0.033077         4    ;  uncertainty k = 0.054935
        19         8        21        36     9        0.000000       -1.125963         1    ;  uncertainty k = 0.230766
        19         8        21        36     9      180.000000       -0.047879         2    ;  uncertainty k = 0.090863
        19         8        21        36     9        0.000000        0.742644         3    ;  uncertainty k = 0.072669
        19         8        21        36     9      180.000000       -0.033077         4    ;  uncertainty k = 0.054935
        19         8        21        37     9        0.000000       -1.125963         1    ;  uncertainty k = 0.230766
        19         8        21        37     9      180.000000       -0.047879         2    ;  uncertainty k = 0.090863
        19         8        21        37     9        0.000000        0.742644         3    ;  uncertainty k = 0.072669
        19         8        21        37     9      180.000000       -0.033077         4    ;  uncertainty k = 0.054935
        20         8        19        31     9        0.000000       -1.961845         1    ;  uncertainty k = 0.551181
        20         8        19        31     9      180.000000       -0.960259         2    ;  uncertainty k = 0.282480
        20         8        19        31     9        0.000000        0.831230         3    ;  uncertainty k = 0.087292
        20         8        19        31     9      180.000000       -0.214593         4    ;  uncertainty k = 0.050561
        20         8        19        32     9        0.000000       -1.961845         1    ;  uncertainty k = 0.551181
        20         8        19        32     9      180.000000       -0.960259         2    ;  uncertainty k = 0.282480
        20         8        19        32     9        0.000000        0.831230         3    ;  uncertainty k = 0.087292
        20         8        19        32     9      180.000000       -0.214593         4    ;  uncertainty k = 0.050561
        20         8        19        33     9        0.000000       -1.961845         1    ;  uncertainty k = 0.551181
        20         8        19        33     9      180.000000       -0.960259         2    ;  uncertainty k = 0.282480
        20         8        19        33     9        0.000000        0.831230         3    ;  uncertainty k = 0.087292
        20         8        19        33     9      180.000000       -0.214593         4    ;  uncertainty k = 0.050561
        20         8        21        35     9        0.000000       -1.961845         1    ;  uncertainty k = 0.551180
        20         8        21        35     9      180.000000       -0.960259         2    ;  uncertainty k = 0.282479
        20         8        21        35     9        0.000000        0.831230         3    ;  uncertainty k = 0.087292
        20         8        21        35     9      180.000000       -0.214593         4    ;  uncertainty k = 0.050562
        20         8        21        36     9        0.000000       -1.961845         1    ;  uncertainty k = 0.551180
        20         8        21        36     9      180.000000       -0.960259         2    ;  uncertainty k = 0.282479
        20         8        21        36     9        0.000000        0.831230         3    ;  uncertainty k = 0.087292
        20         8        21        36     9      180.000000       -0.214593         4    ;  uncertainty k = 0.050562
        20         8        21        37     9        0.000000       -1.961845         1    ;  uncertainty k = 0.551180
        20         8        21        37     9      180.000000       -0.960259         2    ;  uncertainty k = 0.282479
        20         8        21        37     9        0.000000        0.831230         3    ;  uncertainty k = 0.087292
        20         8        21        37     9      180.000000       -0.214593         4    ;  uncertainty k = 0.050562
        21         8        19        31     9        0.000000       -1.125962         1    ;  uncertainty k = 0.230766
        21         8        19        31     9      180.000000       -0.047879         2    ;  uncertainty k = 0.090864
        21         8        19        31     9        0.000000        0.742643         3    ;  uncertainty k = 0.072670
        21         8        19        31     9      180.000000       -0.033077         4    ;  uncertainty k = 0.054935
        21         8        19        32     9        0.000000       -1.125962         1    ;  uncertainty k = 0.230766
        21         8        19        32     9      180.000000       -0.047879         2    ;  uncertainty k = 0.090864
        21         8        19        32     9        0.000000        0.742643         3    ;  uncertainty k = 0.072670
        21         8        19        32     9      180.000000       -0.033077         4    ;  uncertainty k = 0.054935
        21         8        19        33     9        0.000000       -1.125962         1    ;  uncertainty k = 0.230766
        21         8        19        33     9      180.000000       -0.047879         2    ;  uncertainty k = 0.090864
        21         8        19        33     9        0.000000        0.742643         3    ;  uncertainty k = 0.072670
        21         8        19        33     9      180.000000       -0.033077         4    ;  uncertainty k = 0.054935
        21         8        20        34     9        0.000000       12.662223         1    ;  uncertainty k = 0.317842
        21         8        20        34     9      180.000000       -1.675064         2    ;  uncertainty k = 0.239568
        21         8        20        34     9        0.000000        1.060161         3    ;  uncertainty k = 0.149524
        21         8        20        34     9      180.000000        0.360746         4    ;  uncertainty k = 0.102772
        22        14        12        28     9        0.000000       -0.303248         1    ;  uncertainty k = 0.309929
        22        14        12        28     9      180.000000        9.141892         2    ;  uncertainty k = 0.424482
        22        14        12        28     9        0.000000        0.727216         3    ;  uncertainty k = 0.302194
        22        14        12        28     9      180.000000        1.166579         4    ;  uncertainty k = 0.166019
        23        11        12        28     9        0.000000       -0.142188         1    ;  uncertainty k = 0.328788
        23        11        12        28     9      180.000000        8.846603         2    ;  uncertainty k = 0.339540
        23        11        12        28     9        0.000000        0.777188         3    ;  uncertainty k = 0.267076
        23        11        12        28     9      180.000000        0.906640         4    ;  uncertainty k = 0.199556
        23        11        13        29     9        0.000000       -0.393781         1    ;  uncertainty k = 0.262326
        23        11        13        29     9      180.000000        9.745060         2    ;  uncertainty k = 0.435081
        23        11        13        29     9        0.000000        0.931964         3    ;  uncertainty k = 0.242918
        23        11        13        29     9      180.000000        0.990274         4    ;  uncertainty k = 0.235528
        24         2         4        26     9        0.000000       -0.117736         1    ;  uncertainty k = 0.210279
        24         2         4        26     9      180.000000        8.002242         2    ;  uncertainty k = 0.460743
        24         2         4        26     9        0.000000       -0.392489         3    ;  uncertainty k = 0.200264
        24         2         4        26     9      180.000000        0.296121         4    ;  uncertainty k = 0.231305
        25         3         5        27     9        0.000000       -0.117736         1    ;  uncertainty k = 0.210279
        25         3         5        27     9      180.000000        8.002242         2    ;  uncertainty k = 0.460743
        25         3         5        27     9        0.000000       -0.392489         3    ;  uncertainty k = 0.200264
        25         3         5        27     9      180.000000        0.296121         4    ;  uncertainty k = 0.231305

[ dihedrals ] ; impropers
;       ai        aj        ak        al funct           phase               k        pn
         1         2         3        17     4      180.000000        8.929751         2    ;  uncertainty k = 0.240647
         1         3        17         2     4      180.000000        8.929751         2    ;  uncertainty k = 0.240647
         1        17         2         3     4      180.000000        8.929751         2    ;  uncertainty k = 0.240647
         2         1         4        24     4      180.000000        4.118159         2    ;  uncertainty k = 0.143895
         2         4        24         1     4      180.000000        4.118159         2    ;  uncertainty k = 0.143895
         2        24         1         4     4      180.000000        4.118159         2    ;  uncertainty k = 0.143895
         3         1         5        25     4      180.000000        4.118159         2    ;  uncertainty k = 0.143895
         3         5        25         1     4      180.000000        4.118159         2    ;  uncertainty k = 0.143895
         3        25         1         5     4      180.000000        4.118159         2    ;  uncertainty k = 0.143895
         4         2         7        26     4      180.000000        3.498633         2    ;  uncertainty k = 0.120339
         4         7        26         2     4      180.000000        3.498633         2    ;  uncertainty k = 0.120339
         4        26         2         7     4      180.000000        3.498633         2    ;  uncertainty k = 0.120339
         5         3         7        27     4      180.000000        3.498633         2    ;  uncertainty k = 0.120339
         5         7        27         3     4      180.000000        3.498633         2    ;  uncertainty k = 0.120339
         5        27         3         7     4      180.000000        3.498633         2    ;  uncertainty k = 0.120339
         7         4         5         8     4      180.000000       13.022907         2    ;  uncertainty k = 0.059644
         7         5         8         4     4      180.000000       13.022907         2    ;  uncertainty k = 0.059644
         7         8         4         5     4      180.000000       13.022907         2    ;  uncertainty k = 0.059644
         9         6        10        14     4      180.000000       21.516057         2    ;  uncertainty k = 0.075383
         9        10        14         6     4      180.000000       21.516057         2    ;  uncertainty k = 0.075383
         9        14         6        10     4      180.000000       21.516057         2    ;  uncertainty k = 0.075383
        10         9        13        15     4      180.000000        5.879881         2    ;  uncertainty k = 0.274631
        10        13        15         9     4      180.000000        5.879881         2    ;  uncertainty k = 0.274631
        10        15         9        13     4      180.000000        5.879881         2    ;  uncertainty k = 0.274631
        11        12        13        23     4      180.000000       17.083694         2    ;  uncertainty k = 0.048816
        11        13        23        12     4      180.000000       17.083694         2    ;  uncertainty k = 0.048816
        11        23        12        13     4      180.000000       17.083694         2    ;  uncertainty k = 0.048816
        12        11        14        28     4      180.000000        3.004267         2    ;  uncertainty k = 0.201134
        12        14        28        11     4      180.000000        3.004267         2    ;  uncertainty k = 0.201134
        12        28        11        14     4      180.000000        3.004267         2    ;  uncertainty k = 0.201134
        13        10        11        29     4      180.000000        3.386148         2    ;  uncertainty k = 0.082049
        13        11        29        10     4      180.000000        3.386148         2    ;  uncertainty k = 0.082049
        13        29        10        11     4      180.000000        3.386148         2    ;  uncertainty k = 0.082049
        14         9        12        22     4      180.000000       14.598774         2    ;  uncertainty k = 0.130151
        14        12        22         9     4      180.000000       14.598774         2    ;  uncertainty k = 0.130151
        14        22         9        12     4      180.000000       14.598774         2    ;  uncertainty k = 0.130151
        15        10        16        18     4      180.000000       50.304812         2    ;  uncertainty k = 0.013988
        15        16        18        10     4      180.000000       50.304812         2    ;  uncertainty k = 0.013988
        15        18        10        16     4      180.000000       50.304812         2    ;  uncertainty k = 0.013988
        16        15        17        30     4      180.000000        0.683152         2    ;  uncertainty k = 0.498652
        16        17        30        15     4      180.000000        0.683152         2    ;  uncertainty k = 0.498652
        16        30        15        17     4      180.000000        0.683152         2    ;  uncertainty k = 0.498652
        17         1         6        16     4      180.000000       30.094872         2    ;  uncertainty k = 0.040032
        17         6        16         1     4      180.000000       30.094872         2    ;  uncertainty k = 0.040032
        17        16         1         6     4      180.000000       30.094872         2    ;  uncertainty k = 0.040032

[ pairs ]
;       ai        aj funct
         1         7     1
         1         9     1
         1        15     1
         1        26     1
         1        27     1
         1        30     1
         2         5     1
         2         6     1
         2         8     1
         2        16     1
         2        25     1
         3         4     1
         3         6     1
         3         8     1
         3        16     1
         3        24     1
         4        17     1
         4        19     1
         4        20     1
         4        21     1
         4        27     1
         5        17     1
         5        19     1
         5        20     1
         5        21     1
         5        26     1
         6        12     1
         6        13     1
         6        15     1
         6        22     1
         6        30     1
         7        24     1
         7        25     1
         7        31     1
         7        32     1
         7        33     1
         7        34     1
         7        35     1
         7        36     1
         7        37     1
         8        26     1
         8        27     1
         9        11     1
         9        16     1
         9        18     1
         9        28     1
         9        29     1
         9        38     1
         9        39     1
         9        40     1
        10        12     1
        10        17     1
        10        22     1
        10        23     1
        10        30     1
        11        15     1
        11        22     1
        12        29     1
        12        38     1
        12        39     1
        12        40     1
        13        14     1
        13        16     1
        13        18     1
        13        28     1
        14        15     1
        14        17     1
        14        23     1
        15        29     1
        17        18     1
        17        24     1
        17        25     1
        18        30     1
        19        34     1
        19        35     1
        19        36     1
        19        37     1
        20        31     1
        20        32     1
        20        33     1
        20        35     1
        20        36     1
        20        37     1
        21        31     1
        21        32     1
        21        33     1
        21        34     1
        22        28     1
        23        28     1
        23        29     1
        24        26     1
        25        27     1
