; ITP file created by ByteFF-joint-25, 2026-02-17 09:48:13.446463

[ atomtypes ]
;name           bonded.type        at.num        mass        charge   ptype           sigma         epsilon
 c0bf                                   6      0.0000       0.00000       A     3.31501e-01     4.12880e-01    ;  uncertainty sigma = 0.000017, epsilon = 0.001089
 c1bf                                   6      0.0000       0.00000       A     3.31519e-01     4.13337e-01    ;  uncertainty sigma = 0.000004, epsilon = 0.000604
 c2bf                                   6      0.0000       0.00000       A     3.31519e-01     4.13337e-01    ;  uncertainty sigma = 0.000004, epsilon = 0.000604
 c3bf                                   6      0.0000       0.00000       A     3.31512e-01     4.12851e-01    ;  uncertainty sigma = 0.000012, epsilon = 0.001342
 c4bf                                   6      0.0000       0.00000       A     3.31525e-01     4.13260e-01    ;  uncertainty sigma = 0.000004, epsilon = 0.000521
 c5bf                                   6      0.0000       0.00000       A     3.31525e-01     4.13260e-01    ;  uncertainty sigma = 0.000004, epsilon = 0.000521
 c6bf                                   6      0.0000       0.00000       A     3.31517e-01     4.13350e-01    ;  uncertainty sigma = 0.000007, epsilon = 0.001286
 n7bf                                   7      0.0000       0.00000       A     3.26867e-01     4.92512e-01    ;  uncertainty sigma = 0.000088, epsilon = 0.003430
 c8bf                                   6      0.0000       0.00000       A     3.31538e-01     4.13505e-01    ;  uncertainty sigma = 0.000008, epsilon = 0.001165
 n9bf                                   7      0.0000       0.00000       A     3.38420e-01     3.93559e-01    ;  uncertainty sigma = 0.000016, epsilon = 0.001456
 c10bf                                  6      0.0000       0.00000       A     3.31532e-01     4.13181e-01    ;  uncertainty sigma = 0.000010, epsilon = 0.000993
 c11bf                                  6      0.0000       0.00000       A     3.31547e-01     4.13870e-01    ;  uncertainty sigma = 0.000010, epsilon = 0.000770
 c12bf                                  6      0.0000       0.00000       A     3.31514e-01     4.13380e-01    ;  uncertainty sigma = 0.000006, epsilon = 0.000759
 c13bf                                  6      0.0000       0.00000       A     3.31508e-01     4.13375e-01    ;  uncertainty sigma = 0.000006, epsilon = 0.000570
 c14bf                                  6      0.0000       0.00000       A     3.31523e-01     4.13317e-01    ;  uncertainty sigma = 0.000004, epsilon = 0.000533
 c15bf                                  6      0.0000       0.00000       A     3.31509e-01     4.13389e-01    ;  uncertainty sigma = 0.000003, epsilon = 0.000662
 o16bf                                  8      0.0000       0.00000       A     3.04814e-01     6.11898e-01    ;  uncertainty sigma = 0.000014, epsilon = 0.001624
 c17bf                                  6      0.0000       0.00000       A     3.39805e-01     4.50435e-01    ;  uncertainty sigma = 0.000008, epsilon = 0.001063
 c18bf                                  6      0.0000       0.00000       A     3.39769e-01     4.50933e-01    ;  uncertainty sigma = 0.000007, epsilon = 0.000491
 c19bf                                  6      0.0000       0.00000       A     3.39769e-01     4.50933e-01    ;  uncertainty sigma = 0.000007, epsilon = 0.000491
 o20bf                                  8      0.0000       0.00000       A     3.15621e-01     3.03731e-01    ;  uncertainty sigma = 0.000042, epsilon = 0.001607
 f21bf                                  9      0.0000       0.00000       A     3.03425e-01     3.47959e-01    ;  uncertainty sigma = 0.000016, epsilon = 0.000686
 c22bf                                  6      0.0000       0.00000       A     3.39774e-01     4.50396e-01    ;  uncertainty sigma = 0.000008, epsilon = 0.000303
 c23bf                                  6      0.0000       0.00000       A     3.39794e-01     4.50546e-01    ;  uncertainty sigma = 0.000020, epsilon = 0.000823
 o24bf                                  8      0.0000       0.00000       A     3.24301e-01     3.88312e-01    ;  uncertainty sigma = 0.000031, epsilon = 0.001423
 h25bf                                  1      0.0000       0.00000       A     2.62567e-01     6.70633e-02    ;  uncertainty sigma = 0.000011, epsilon = 0.000557
 h26bf                                  1      0.0000       0.00000       A     2.62567e-01     6.70633e-02    ;  uncertainty sigma = 0.000011, epsilon = 0.000557
 h27bf                                  1      0.0000       0.00000       A     2.62556e-01     6.70460e-02    ;  uncertainty sigma = 0.000009, epsilon = 0.000514
 h28bf                                  1      0.0000       0.00000       A     2.62556e-01     6.70460e-02    ;  uncertainty sigma = 0.000009, epsilon = 0.000514
 h29bf                                  1      0.0000       0.00000       A     1.10651e-01     4.13761e-02    ;  uncertainty sigma = 0.000058, epsilon = 0.001253
 h30bf                                  1      0.0000       0.00000       A     2.62584e-01     6.68453e-02    ;  uncertainty sigma = 0.000019, epsilon = 0.000520
 h31bf                                  1      0.0000       0.00000       A     2.62557e-01     6.70627e-02    ;  uncertainty sigma = 0.000009, epsilon = 0.000557
 h32bf                                  1      0.0000       0.00000       A     2.62558e-01     6.69934e-02    ;  uncertainty sigma = 0.000012, epsilon = 0.000628
 h33bf                                  1      0.0000       0.00000       A     2.60036e-01     8.66290e-02    ;  uncertainty sigma = 0.000010, epsilon = 0.000429
 h34bf                                  1      0.0000       0.00000       A     2.60036e-01     8.66290e-02    ;  uncertainty sigma = 0.000010, epsilon = 0.000429
 h35bf                                  1      0.0000       0.00000       A     2.60036e-01     8.66290e-02    ;  uncertainty sigma = 0.000010, epsilon = 0.000429
 h36bf                                  1      0.0000       0.00000       A     2.60036e-01     8.66290e-02    ;  uncertainty sigma = 0.000010, epsilon = 0.000429
 h37bf                                  1      0.0000       0.00000       A     2.60036e-01     8.66290e-02    ;  uncertainty sigma = 0.000010, epsilon = 0.000429
 h38bf                                  1      0.0000       0.00000       A     2.60036e-01     8.66290e-02    ;  uncertainty sigma = 0.000010, epsilon = 0.000429
 h39bf                                  1      0.0000       0.00000       A     2.42187e-01     8.68583e-02    ;  uncertainty sigma = 0.000027, epsilon = 0.000741
 h40bf                                  1      0.0000       0.00000       A     2.42187e-01     8.68583e-02    ;  uncertainty sigma = 0.000027, epsilon = 0.000741
 h41bf                                  1      0.0000       0.00000       A     2.42143e-01     8.62407e-02    ;  uncertainty sigma = 0.000033, epsilon = 0.000852
 h42bf                                  1      0.0000       0.00000       A     2.42143e-01     8.62407e-02    ;  uncertainty sigma = 0.000033, epsilon = 0.000852
 h43bf                                  1      0.0000       0.00000       A     5.37889e-02     1.94682e-02    ;  uncertainty sigma = 0.000082, epsilon = 0.001289

[ moleculetype ]
;name             nrexcl
 MOL                   3

[ atoms ]
;       nr            type      resi   res      atom      cgnr      charge          mass ; qtot
         1            c0bf         1   UNL        c0         1    -0.15129       12.0110 ; qtot   -0.151
         2            c1bf         1   UNL        c1         2    -0.08798       12.0110 ; qtot   -0.239
         3            c2bf         1   UNL        c2         3    -0.08798       12.0110 ; qtot   -0.327
         4            c3bf         1   UNL        c3         4     0.56635       12.0110 ; qtot    0.239
         5            c4bf         1   UNL        c4         5    -0.12202       12.0110 ; qtot    0.117
         6            c5bf         1   UNL        c5         6    -0.12202       12.0110 ; qtot   -0.005
         7            c6bf         1   UNL        c6         7    -0.08140       12.0110 ; qtot   -0.086
         8            n7bf         1   UNL        n7         8    -0.50680       14.0070 ; qtot   -0.593
         9            c8bf         1   UNL        c8         9     0.71928       12.0110 ; qtot    0.126
        10            n9bf         1   UNL        n9        10    -0.62332       14.0070 ; qtot   -0.497
        11           c10bf         1   UNL       c10        11     0.17920       12.0110 ; qtot   -0.318
        12           c11bf         1   UNL       c11        12    -0.18212       12.0110 ; qtot   -0.500
        13           c12bf         1   UNL       c12        13    -0.09763       12.0110 ; qtot   -0.598
        14           c13bf         1   UNL       c13        14     0.10691       12.0110 ; qtot   -0.491
        15           c14bf         1   UNL       c14        15    -0.12598       12.0110 ; qtot   -0.617
        16           c15bf         1   UNL       c15        16    -0.10135       12.0110 ; qtot   -0.718
        17           o16bf         1   UNL       o16        17    -0.60449       15.9990 ; qtot   -1.323
        18           c17bf         1   UNL       c17        18     0.20889       12.0110 ; qtot   -1.114
        19           c18bf         1   UNL       c18        19    -0.10436       12.0110 ; qtot   -1.218
        20           c19bf         1   UNL       c19        20    -0.10436       12.0110 ; qtot   -1.322
        21           o20bf         1   UNL       o20        21    -0.43234       15.9990 ; qtot   -1.755
        22           f21bf         1   UNL       f21        22    -0.13638       18.9980 ; qtot   -1.891
        23           c22bf         1   UNL       c22        23     0.10242       12.0110 ; qtot   -1.789
        24           c23bf         1   UNL       c23        24     0.11923       12.0110 ; qtot   -1.670
        25           o24bf         1   UNL       o24        25    -0.59863       15.9990 ; qtot   -2.268
        26           h25bf         1   UNL       h25        26     0.14623        1.0080 ; qtot   -2.122
        27           h26bf         1   UNL       h26        27     0.14623        1.0080 ; qtot   -1.976
        28           h27bf         1   UNL       h27        28     0.14128        1.0080 ; qtot   -1.834
        29           h28bf         1   UNL       h28        29     0.14128        1.0080 ; qtot   -1.693
        30           h29bf         1   UNL       h29        30     0.33625        1.0080 ; qtot   -1.357
        31           h30bf         1   UNL       h30        31     0.17554        1.0080 ; qtot   -1.181
        32           h31bf         1   UNL       h31        32     0.15611        1.0080 ; qtot   -1.025
        33           h32bf         1   UNL       h32        33     0.15981        1.0080 ; qtot   -0.865
        34           h33bf         1   UNL       h33        34     0.04591        1.0080 ; qtot   -0.820
        35           h34bf         1   UNL       h34        35     0.04591        1.0080 ; qtot   -0.774
        36           h35bf         1   UNL       h35        36     0.04591        1.0080 ; qtot   -0.728
        37           h36bf         1   UNL       h36        37     0.04591        1.0080 ; qtot   -0.682
        38           h37bf         1   UNL       h37        38     0.04591        1.0080 ; qtot   -0.636
        39           h38bf         1   UNL       h38        39     0.04591        1.0080 ; qtot   -0.590
        40           h39bf         1   UNL       h39        40     0.04521        1.0080 ; qtot   -0.545
        41           h40bf         1   UNL       h40        41     0.04521        1.0080 ; qtot   -0.500
        42           h41bf         1   UNL       h41        42     0.04616        1.0080 ; qtot   -0.453
        43           h42bf         1   UNL       h42        43     0.04616        1.0080 ; qtot   -0.407
        44           h43bf         1   UNL       h43        44     0.40724        1.0080 ; qtot    0.000

[ bonds ]
;       ai        aj funct               r               k
         1         2     1        0.139881   350469.118408    ;  uncertainty r = 0.000059, k = 3.608132
         1         3     1        0.139881   350469.118408    ;  uncertainty r = 0.000059, k = 3.608132
         1         4     1        0.147341   266942.009082    ;  uncertainty r = 0.000109, k = 11.708921
         2         5     1        0.139201   358796.539941    ;  uncertainty r = 0.000040, k = 3.271877
         2        26     1        0.108751   333157.946094    ;  uncertainty r = 0.000045, k = 1.128345
         3         6     1        0.139201   358796.539941    ;  uncertainty r = 0.000040, k = 3.271877
         3        27     1        0.108751   333157.946094    ;  uncertainty r = 0.000045, k = 1.128345
         4         8     1        0.139072   297625.356738    ;  uncertainty r = 0.000069, k = 20.066650
         4        10     1        0.129809   466468.705273    ;  uncertainty r = 0.000049, k = 7.919352
         5         7     1        0.139616   348846.235107    ;  uncertainty r = 0.000030, k = 2.994702
         5        28     1        0.108782   333494.678418    ;  uncertainty r = 0.000014, k = 1.123873
         6         7     1        0.139616   348846.235107    ;  uncertainty r = 0.000030, k = 2.994702
         6        29     1        0.108782   333494.678418    ;  uncertainty r = 0.000014, k = 1.123873
         7        18     1        0.152021   212602.602759    ;  uncertainty r = 0.000098, k = 9.065122
         8         9     1        0.140241   444690.658398    ;  uncertainty r = 0.000073, k = 13.079054
         8        30     1        0.102058   454589.659180    ;  uncertainty r = 0.000027, k = 4.102127
         9        12     1        0.146536   264613.892969    ;  uncertainty r = 0.000056, k = 18.208752
         9        17     1        0.123441   857064.207031    ;  uncertainty r = 0.000099, k = 12.610758
        10        11     1        0.138675   292907.477930    ;  uncertainty r = 0.000100, k = 22.573749
        11        12     1        0.141709   385237.994971    ;  uncertainty r = 0.000054, k = 10.311902
        11        16     1        0.140964   350832.281641    ;  uncertainty r = 0.000032, k = 4.629265
        12        13     1        0.139898   369180.720264    ;  uncertainty r = 0.000058, k = 4.441338
        13        14     1        0.138124   355371.196387    ;  uncertainty r = 0.000071, k = 8.089200
        13        31     1        0.108596   333125.411816    ;  uncertainty r = 0.000025, k = 2.230278
        14        15     1        0.140315   344554.851563    ;  uncertainty r = 0.000060, k = 7.146636
        14        22     1        0.135438   338566.092969    ;  uncertainty r = 0.000088, k = 4.182301
        15        16     1        0.138302   386095.480029    ;  uncertainty r = 0.000059, k = 4.599865
        15        32     1        0.108763   336320.308496    ;  uncertainty r = 0.000023, k = 0.938580
        16        33     1        0.108708   336704.616455    ;  uncertainty r = 0.000019, k = 1.942435
        18        19     1        0.153295   201459.663843    ;  uncertainty r = 0.000069, k = 2.952191
        18        20     1        0.153295   201459.663843    ;  uncertainty r = 0.000069, k = 2.952191
        18        21     1        0.143226   215817.329004    ;  uncertainty r = 0.000126, k = 11.201159
        19        34     1        0.109524   309973.110938    ;  uncertainty r = 0.000007, k = 2.007823
        19        35     1        0.109524   309973.110938    ;  uncertainty r = 0.000007, k = 2.007823
        19        36     1        0.109524   309973.110938    ;  uncertainty r = 0.000007, k = 2.007823
        20        37     1        0.109524   309973.110938    ;  uncertainty r = 0.000007, k = 2.007795
        20        38     1        0.109524   309973.110938    ;  uncertainty r = 0.000007, k = 2.007795
        20        39     1        0.109524   309973.110938    ;  uncertainty r = 0.000007, k = 2.007795
        21        23     1        0.140877   217806.465527    ;  uncertainty r = 0.000199, k = 13.413800
        23        24     1        0.152257   215955.740137    ;  uncertainty r = 0.000160, k = 2.652305
        23        40     1        0.109880   308661.601611    ;  uncertainty r = 0.000032, k = 1.243115
        23        41     1        0.109880   308661.601611    ;  uncertainty r = 0.000032, k = 1.243115
        24        25     1        0.142072   259102.806006    ;  uncertainty r = 0.000067, k = 2.252666
        24        42     1        0.109821   307874.777734    ;  uncertainty r = 0.000035, k = 1.513591
        24        43     1        0.109821   307874.777734    ;  uncertainty r = 0.000035, k = 1.513591
        25        44     1        0.096990   461025.827930    ;  uncertainty r = 0.000038, k = 2.463216

[ angles ]
;       ai        aj        ak funct           theta             cth
         1         2         5     1      121.903709      512.253059    ;  uncertainty theta = 0.001577, k = 0.044247
         1         2        26     1      118.373268      267.332069    ;  uncertainty theta = 0.002929, k = 0.046096
         1         3         6     1      121.903709      512.253059    ;  uncertainty theta = 0.001577, k = 0.044247
         1         3        27     1      118.373268      267.332069    ;  uncertainty theta = 0.002929, k = 0.046096
         1         4         8     1      116.651688      515.746854    ;  uncertainty theta = 0.005062, k = 0.242782
         1         4        10     1      122.676720      446.759726    ;  uncertainty theta = 0.003665, k = 0.151796
         2         1         3     1      120.778748      421.634371    ;  uncertainty theta = 0.002896, k = 0.258077
         2         1         4     1      117.981766      401.223038    ;  uncertainty theta = 0.002686, k = 0.115669
         2         5         7     1      121.714111      514.868027    ;  uncertainty theta = 0.002658, k = 0.069703
         2         5        28     1      119.593933      285.582579    ;  uncertainty theta = 0.001995, k = 0.043223
         3         1         4     1      117.981766      401.223038    ;  uncertainty theta = 0.002686, k = 0.115669
         3         6         7     1      121.714111      514.868027    ;  uncertainty theta = 0.002658, k = 0.069703
         3         6        29     1      119.593933      285.582611    ;  uncertainty theta = 0.001995, k = 0.043222
         4         8         9     1      121.146103      496.022757    ;  uncertainty theta = 0.003149, k = 0.185690
         4         8        30     1      116.804955      331.084697    ;  uncertainty theta = 0.006464, k = 0.239703
         4        10        11     1      115.240494      416.803803    ;  uncertainty theta = 0.006032, k = 0.412033
         5         2        26     1      120.157059      284.576864    ;  uncertainty theta = 0.003265, k = 0.054874
         5         7         6     1      119.631042      456.048403    ;  uncertainty theta = 0.004071, k = 0.073133
         5         7        18     1      119.896118      372.679924    ;  uncertainty theta = 0.005217, k = 0.065850
         6         3        27     1      120.157059      284.576864    ;  uncertainty theta = 0.003265, k = 0.054874
         6         7        18     1      119.896118      372.679924    ;  uncertainty theta = 0.005217, k = 0.065850
         7         5        28     1      118.847252      262.582518    ;  uncertainty theta = 0.001774, k = 0.052209
         7         6        29     1      118.847252      262.582518    ;  uncertainty theta = 0.001774, k = 0.052209
         7        18        19     1      109.823936      573.771093    ;  uncertainty theta = 0.002660, k = 0.169887
         7        18        20     1      109.823936      573.771093    ;  uncertainty theta = 0.002660, k = 0.169887
         7        18        21     1      107.171608      550.025476    ;  uncertainty theta = 0.004363, k = 0.192704
         8         4        10     1      123.678001      679.251102    ;  uncertainty theta = 0.005921, k = 0.135841
         8         9        12     1      108.865524      389.724125    ;  uncertainty theta = 0.007726, k = 0.270666
         8         9        17     1      124.920670      821.839978    ;  uncertainty theta = 0.002935, k = 0.080731
         9         8        30     1      115.307518      352.933673    ;  uncertainty theta = 0.006787, k = 0.132391
         9        12        11     1      117.297508      491.962548    ;  uncertainty theta = 0.006380, k = 0.238429
         9        12        13     1      117.958519      397.006702    ;  uncertainty theta = 0.003688, k = 0.159107
        10        11        12     1      123.497696      569.871194    ;  uncertainty theta = 0.006306, k = 0.143327
        10        11        16     1      119.959946      511.287341    ;  uncertainty theta = 0.010093, k = 0.072566
        11        12        13     1      121.777725      434.510277    ;  uncertainty theta = 0.001655, k = 0.211459
        11        16        15     1      119.036095      531.350028    ;  uncertainty theta = 0.002742, k = 0.145844
        11        16        33     1      120.508751      271.483094    ;  uncertainty theta = 0.003274, k = 0.096144
        12         9        17     1      128.088593      510.903327    ;  uncertainty theta = 0.002915, k = 0.145050
        12        11        16     1      119.134995      405.934603    ;  uncertainty theta = 0.003584, k = 0.232362
        12        13        14     1      118.287460      472.119193    ;  uncertainty theta = 0.002924, k = 0.132692
        12        13        31     1      120.828979      247.606584    ;  uncertainty theta = 0.006275, k = 0.079915
        13        14        15     1      124.230835      391.108523    ;  uncertainty theta = 0.005452, k = 0.270460
        13        14        22     1      118.829163      496.180609    ;  uncertainty theta = 0.001386, k = 0.097184
        14        13        31     1      121.686180      281.539544    ;  uncertainty theta = 0.002737, k = 0.087294
        14        15        16     1      119.123047      505.026663    ;  uncertainty theta = 0.003003, k = 0.103093
        14        15        32     1      120.507347      283.187997    ;  uncertainty theta = 0.002009, k = 0.088220
        15        14        22     1      118.443443      514.743533    ;  uncertainty theta = 0.002026, k = 0.040363
        15        16        33     1      121.081863      277.905135    ;  uncertainty theta = 0.001912, k = 0.023136
        16        15        32     1      120.849144      280.086036    ;  uncertainty theta = 0.001540, k = 0.061482
        18        19        34     1      107.443260      380.424850    ;  uncertainty theta = 0.000731, k = 0.026687
        18        19        35     1      107.443260      380.424850    ;  uncertainty theta = 0.000731, k = 0.026687
        18        19        36     1      107.443260      380.424818    ;  uncertainty theta = 0.000731, k = 0.026687
        18        20        37     1      107.443260      380.424850    ;  uncertainty theta = 0.000731, k = 0.026687
        18        20        38     1      107.443260      380.424850    ;  uncertainty theta = 0.000731, k = 0.026687
        18        20        39     1      107.443260      380.424850    ;  uncertainty theta = 0.000731, k = 0.026687
        18        21        23     1      109.208572      528.927514    ;  uncertainty theta = 0.003095, k = 0.131640
        19        18        20     1      110.199844      598.645132    ;  uncertainty theta = 0.003210, k = 0.094367
        19        18        21     1      108.099403      565.259639    ;  uncertainty theta = 0.003365, k = 0.043870
        20        18        21     1      108.099403      565.259639    ;  uncertainty theta = 0.003365, k = 0.043870
        21        23        24     1      107.800064      542.953803    ;  uncertainty theta = 0.004225, k = 0.130404
        21        23        40     1      108.307739      433.842992    ;  uncertainty theta = 0.001271, k = 0.061500
        21        23        41     1      108.307739      433.842992    ;  uncertainty theta = 0.001271, k = 0.061500
        23        24        25     1      110.871017      715.933627    ;  uncertainty theta = 0.002219, k = 0.106778
        23        24        42     1      108.668640      405.678912    ;  uncertainty theta = 0.001505, k = 0.031456
        23        24        43     1      108.668640      405.678912    ;  uncertainty theta = 0.001505, k = 0.031455
        24        23        40     1      109.292297      413.893562    ;  uncertainty theta = 0.001921, k = 0.024776
        24        23        41     1      109.292297      413.893562    ;  uncertainty theta = 0.001921, k = 0.024776
        24        25        44     1      106.977173      452.193768    ;  uncertainty theta = 0.000911, k = 0.032310
        25        24        42     1      108.437477      472.101221    ;  uncertainty theta = 0.000541, k = 0.036233
        25        24        43     1      108.437477      472.101221    ;  uncertainty theta = 0.000541, k = 0.036233
        34        19        35     1      105.703171      317.001396    ;  uncertainty theta = 0.000805, k = 0.012889
        34        19        36     1      105.703171      317.001396    ;  uncertainty theta = 0.000805, k = 0.012889
        35        19        36     1      105.703171      317.001396    ;  uncertainty theta = 0.000805, k = 0.012889
        37        20        38     1      105.703171      317.001396    ;  uncertainty theta = 0.000805, k = 0.012889
        37        20        39     1      105.703171      317.001396    ;  uncertainty theta = 0.000805, k = 0.012889
        38        20        39     1      105.703171      317.001396    ;  uncertainty theta = 0.000805, k = 0.012889
        40        23        41     1      107.376259      331.202072    ;  uncertainty theta = 0.001420, k = 0.038764
        42        24        43     1      107.560104      320.257377    ;  uncertainty theta = 0.001942, k = 0.044400

[ dihedrals ] ; propers for gromacs 4.5 or higher, use funct 9
;       ai        aj        ak        al funct           phase               k        pn
         1         2         5         7     9        0.000000       -0.137973         1    ;  uncertainty k = 0.240890
         1         2         5         7     9      180.000000       12.506810         2    ;  uncertainty k = 0.239583
         1         2         5         7     9        0.000000       -0.658128         3    ;  uncertainty k = 0.464896
         1         2         5         7     9      180.000000        0.902160         4    ;  uncertainty k = 0.302997
         1         2         5        28     9        0.000000        0.082547         1    ;  uncertainty k = 0.125681
         1         2         5        28     9      180.000000        8.088583         2    ;  uncertainty k = 0.304130
         1         2         5        28     9        0.000000        1.384323         3    ;  uncertainty k = 0.202549
         1         2         5        28     9      180.000000        1.846001         4    ;  uncertainty k = 0.189784
         1         3         6         7     9        0.000000       -0.137973         1    ;  uncertainty k = 0.240890
         1         3         6         7     9      180.000000       12.506810         2    ;  uncertainty k = 0.239583
         1         3         6         7     9        0.000000       -0.658128         3    ;  uncertainty k = 0.464896
         1         3         6         7     9      180.000000        0.902160         4    ;  uncertainty k = 0.302997
         1         3         6        29     9        0.000000        0.082547         1    ;  uncertainty k = 0.125681
         1         3         6        29     9      180.000000        8.088583         2    ;  uncertainty k = 0.304130
         1         3         6        29     9        0.000000        1.384323         3    ;  uncertainty k = 0.202549
         1         3         6        29     9      180.000000        1.846001         4    ;  uncertainty k = 0.189784
         1         4         8         9     9        0.000000        1.136732         1    ;  uncertainty k = 0.845639
         1         4         8         9     9      180.000000        5.378643         2    ;  uncertainty k = 0.753049
         1         4         8         9     9        0.000000        0.529823         3    ;  uncertainty k = 0.332522
         1         4         8         9     9      180.000000       -0.081540         4    ;  uncertainty k = 0.312631
         1         4         8        30     9        0.000000        0.911623         1    ;  uncertainty k = 0.129052
         1         4         8        30     9      180.000000        4.671519         2    ;  uncertainty k = 0.900675
         1         4         8        30     9        0.000000        1.367313         3    ;  uncertainty k = 0.257053
         1         4         8        30     9      180.000000       -0.076850         4    ;  uncertainty k = 0.266316
         1         4        10        11     9        0.000000       -0.591543         1    ;  uncertainty k = 0.847503
         1         4        10        11     9      180.000000       19.152900         2    ;  uncertainty k = 0.448466
         1         4        10        11     9        0.000000        2.703670         3    ;  uncertainty k = 0.469541
         1         4        10        11     9      180.000000        1.363775         4    ;  uncertainty k = 0.339348
         2         1         3         6     9        0.000000        0.048680         1    ;  uncertainty k = 0.141806
         2         1         3         6     9      180.000000       10.954457         2    ;  uncertainty k = 0.300141
         2         1         3         6     9        0.000000       -0.597233         3    ;  uncertainty k = 0.168556
         2         1         3         6     9      180.000000        0.949424         4    ;  uncertainty k = 0.270093
         2         1         3        27     9        0.000000        0.065425         1    ;  uncertainty k = 0.154406
         2         1         3        27     9      180.000000        6.880289         2    ;  uncertainty k = 0.569492
         2         1         3        27     9        0.000000        1.307046         3    ;  uncertainty k = 0.238387
         2         1         3        27     9      180.000000        1.580984         4    ;  uncertainty k = 0.264455
         2         1         4         8     9        0.000000       -0.008827         1    ;  uncertainty k = 0.287080
         2         1         4         8     9      180.000000        4.137706         2    ;  uncertainty k = 0.387656
         2         1         4         8     9        0.000000        0.542373         3    ;  uncertainty k = 0.125060
         2         1         4         8     9      180.000000       -0.117511         4    ;  uncertainty k = 0.038867
         2         1         4        10     9        0.000000        0.839158         1    ;  uncertainty k = 0.666875
         2         1         4        10     9      180.000000        3.960685         2    ;  uncertainty k = 0.292699
         2         1         4        10     9        0.000000        0.569337         3    ;  uncertainty k = 0.172718
         2         1         4        10     9      180.000000       -0.123687         4    ;  uncertainty k = 0.155165
         2         5         7         6     9        0.000000       -0.145264         1    ;  uncertainty k = 0.123409
         2         5         7         6     9      180.000000       11.092262         2    ;  uncertainty k = 0.357007
         2         5         7         6     9        0.000000       -0.336651         3    ;  uncertainty k = 0.219468
         2         5         7         6     9      180.000000        0.892273         4    ;  uncertainty k = 0.306619
         2         5         7        18     9        0.000000        0.240681         1    ;  uncertainty k = 0.312223
         2         5         7        18     9      180.000000        8.154467         2    ;  uncertainty k = 0.484903
         2         5         7        18     9        0.000000        1.457945         3    ;  uncertainty k = 0.375494
         2         5         7        18     9      180.000000        2.001655         4    ;  uncertainty k = 0.252736
         3         1         2         5     9        0.000000        0.048680         1    ;  uncertainty k = 0.141806
         3         1         2         5     9      180.000000       10.954457         2    ;  uncertainty k = 0.300141
         3         1         2         5     9        0.000000       -0.597233         3    ;  uncertainty k = 0.168556
         3         1         2         5     9      180.000000        0.949424         4    ;  uncertainty k = 0.270093
         3         1         2        26     9        0.000000        0.065425         1    ;  uncertainty k = 0.154406
         3         1         2        26     9      180.000000        6.880289         2    ;  uncertainty k = 0.569492
         3         1         2        26     9        0.000000        1.307046         3    ;  uncertainty k = 0.238387
         3         1         2        26     9      180.000000        1.580984         4    ;  uncertainty k = 0.264455
         3         1         4         8     9        0.000000       -0.008827         1    ;  uncertainty k = 0.287080
         3         1         4         8     9      180.000000        4.137706         2    ;  uncertainty k = 0.387656
         3         1         4         8     9        0.000000        0.542373         3    ;  uncertainty k = 0.125060
         3         1         4         8     9      180.000000       -0.117511         4    ;  uncertainty k = 0.038867
         3         1         4        10     9        0.000000        0.839158         1    ;  uncertainty k = 0.666875
         3         1         4        10     9      180.000000        3.960685         2    ;  uncertainty k = 0.292699
         3         1         4        10     9        0.000000        0.569337         3    ;  uncertainty k = 0.172718
         3         1         4        10     9      180.000000       -0.123687         4    ;  uncertainty k = 0.155165
         3         6         7         5     9        0.000000       -0.145264         1    ;  uncertainty k = 0.123409
         3         6         7         5     9      180.000000       11.092262         2    ;  uncertainty k = 0.357007
         3         6         7         5     9        0.000000       -0.336651         3    ;  uncertainty k = 0.219468
         3         6         7         5     9      180.000000        0.892273         4    ;  uncertainty k = 0.306619
         3         6         7        18     9        0.000000        0.240681         1    ;  uncertainty k = 0.312223
         3         6         7        18     9      180.000000        8.154467         2    ;  uncertainty k = 0.484903
         3         6         7        18     9        0.000000        1.457945         3    ;  uncertainty k = 0.375494
         3         6         7        18     9      180.000000        2.001655         4    ;  uncertainty k = 0.252736
         4         1         2         5     9        0.000000        0.106963         1    ;  uncertainty k = 0.188213
         4         1         2         5     9      180.000000        9.123770         2    ;  uncertainty k = 0.637877
         4         1         2         5     9        0.000000        1.352208         3    ;  uncertainty k = 0.302040
         4         1         2         5     9      180.000000        1.692118         4    ;  uncertainty k = 0.192922
         4         1         2        26     9        0.000000       -0.275867         1    ;  uncertainty k = 0.208464
         4         1         2        26     9      180.000000        7.223174         2    ;  uncertainty k = 0.260370
         4         1         2        26     9        0.000000        0.706164         3    ;  uncertainty k = 0.161256
         4         1         2        26     9      180.000000        1.048776         4    ;  uncertainty k = 0.162566
         4         1         3         6     9        0.000000        0.106963         1    ;  uncertainty k = 0.188213
         4         1         3         6     9      180.000000        9.123770         2    ;  uncertainty k = 0.637877
         4         1         3         6     9        0.000000        1.352208         3    ;  uncertainty k = 0.302040
         4         1         3         6     9      180.000000        1.692118         4    ;  uncertainty k = 0.192922
         4         1         3        27     9        0.000000       -0.275867         1    ;  uncertainty k = 0.208464
         4         1         3        27     9      180.000000        7.223174         2    ;  uncertainty k = 0.260370
         4         1         3        27     9        0.000000        0.706164         3    ;  uncertainty k = 0.161256
         4         1         3        27     9      180.000000        1.048776         4    ;  uncertainty k = 0.162566
         4         8         9        12     9        0.000000        0.299155         1    ;  uncertainty k = 1.495457
         4         8         9        12     9      180.000000        4.160270         2    ;  uncertainty k = 1.161048
         4         8         9        12     9        0.000000        0.720048         3    ;  uncertainty k = 0.199569
         4         8         9        12     9      180.000000        0.476898         4    ;  uncertainty k = 0.377921
         4         8         9        17     9        0.000000        0.129291         1    ;  uncertainty k = 1.265350
         4         8         9        17     9      180.000000       11.179134         2    ;  uncertainty k = 0.473647
         4         8         9        17     9        0.000000        1.319942         3    ;  uncertainty k = 0.341337
         4         8         9        17     9      180.000000       -0.489621         4    ;  uncertainty k = 0.399230
         4        10        11        12     9        0.000000        1.795745         1    ;  uncertainty k = 2.236196
         4        10        11        12     9      180.000000        3.972890         2    ;  uncertainty k = 1.621075
         4        10        11        12     9        0.000000        1.402419         3    ;  uncertainty k = 0.568803
         4        10        11        12     9      180.000000        0.447823         4    ;  uncertainty k = 0.482506
         4        10        11        16     9        0.000000        1.403110         1    ;  uncertainty k = 1.780173
         4        10        11        16     9      180.000000        5.574979         2    ;  uncertainty k = 0.974761
         4        10        11        16     9        0.000000        2.281848         3    ;  uncertainty k = 0.367389
         4        10        11        16     9      180.000000        0.378300         4    ;  uncertainty k = 0.419358
         5         7         6        29     9        0.000000        0.157115         1    ;  uncertainty k = 0.127571
         5         7         6        29     9      180.000000        7.368151         2    ;  uncertainty k = 0.503352
         5         7         6        29     9        0.000000        1.391839         3    ;  uncertainty k = 0.334145
         5         7         6        29     9      180.000000        1.683003         4    ;  uncertainty k = 0.192770
         5         7        18        19     9        0.000000       -0.596197         1    ;  uncertainty k = 0.236526
         5         7        18        19     9      180.000000        2.796759         2    ;  uncertainty k = 0.108991
         5         7        18        19     9        0.000000        0.413259         3    ;  uncertainty k = 0.122148
         5         7        18        19     9      180.000000        0.263882         4    ;  uncertainty k = 0.053676
         5         7        18        20     9        0.000000       -0.596197         1    ;  uncertainty k = 0.236526
         5         7        18        20     9      180.000000        2.796759         2    ;  uncertainty k = 0.108991
         5         7        18        20     9        0.000000        0.413259         3    ;  uncertainty k = 0.122148
         5         7        18        20     9      180.000000        0.263882         4    ;  uncertainty k = 0.053676
         5         7        18        21     9        0.000000        0.074447         1    ;  uncertainty k = 0.470940
         5         7        18        21     9      180.000000        2.951737         2    ;  uncertainty k = 0.389921
         5         7        18        21     9        0.000000        0.717659         3    ;  uncertainty k = 0.123925
         5         7        18        21     9      180.000000        0.278634         4    ;  uncertainty k = 0.024937
         6         7         5        28     9        0.000000        0.157115         1    ;  uncertainty k = 0.127571
         6         7         5        28     9      180.000000        7.368151         2    ;  uncertainty k = 0.503352
         6         7         5        28     9        0.000000        1.391839         3    ;  uncertainty k = 0.334145
         6         7         5        28     9      180.000000        1.683003         4    ;  uncertainty k = 0.192770
         6         7        18        19     9        0.000000       -0.596197         1    ;  uncertainty k = 0.236526
         6         7        18        19     9      180.000000        2.796759         2    ;  uncertainty k = 0.108991
         6         7        18        19     9        0.000000        0.413259         3    ;  uncertainty k = 0.122148
         6         7        18        19     9      180.000000        0.263882         4    ;  uncertainty k = 0.053676
         6         7        18        20     9        0.000000       -0.596197         1    ;  uncertainty k = 0.236526
         6         7        18        20     9      180.000000        2.796759         2    ;  uncertainty k = 0.108991
         6         7        18        20     9        0.000000        0.413259         3    ;  uncertainty k = 0.122148
         6         7        18        20     9      180.000000        0.263882         4    ;  uncertainty k = 0.053676
         6         7        18        21     9        0.000000        0.074447         1    ;  uncertainty k = 0.470940
         6         7        18        21     9      180.000000        2.951737         2    ;  uncertainty k = 0.389921
         6         7        18        21     9        0.000000        0.717659         3    ;  uncertainty k = 0.123925
         6         7        18        21     9      180.000000        0.278634         4    ;  uncertainty k = 0.024937
         7         5         2        26     9        0.000000       -0.015469         1    ;  uncertainty k = 0.241529
         7         5         2        26     9      180.000000        7.513495         2    ;  uncertainty k = 0.165703
         7         5         2        26     9        0.000000        1.249207         3    ;  uncertainty k = 0.213067
         7         5         2        26     9      180.000000        1.862391         4    ;  uncertainty k = 0.205089
         7         6         3        27     9        0.000000       -0.015469         1    ;  uncertainty k = 0.241529
         7         6         3        27     9      180.000000        7.513495         2    ;  uncertainty k = 0.165703
         7         6         3        27     9        0.000000        1.249207         3    ;  uncertainty k = 0.213067
         7         6         3        27     9      180.000000        1.862391         4    ;  uncertainty k = 0.205089
         7        18        19        34     9        0.000000        0.233475         1    ;  uncertainty k = 0.308408
         7        18        19        34     9      180.000000       -0.195990         2    ;  uncertainty k = 0.107760
         7        18        19        34     9        0.000000        0.740115         3    ;  uncertainty k = 0.107802
         7        18        19        34     9      180.000000        0.014748         4    ;  uncertainty k = 0.044731
         7        18        19        35     9        0.000000        0.233475         1    ;  uncertainty k = 0.308408
         7        18        19        35     9      180.000000       -0.195990         2    ;  uncertainty k = 0.107760
         7        18        19        35     9        0.000000        0.740115         3    ;  uncertainty k = 0.107802
         7        18        19        35     9      180.000000        0.014748         4    ;  uncertainty k = 0.044731
         7        18        19        36     9        0.000000        0.233475         1    ;  uncertainty k = 0.308408
         7        18        19        36     9      180.000000       -0.195990         2    ;  uncertainty k = 0.107760
         7        18        19        36     9        0.000000        0.740115         3    ;  uncertainty k = 0.107802
         7        18        19        36     9      180.000000        0.014748         4    ;  uncertainty k = 0.044731
         7        18        20        37     9        0.000000        0.233475         1    ;  uncertainty k = 0.308408
         7        18        20        37     9      180.000000       -0.195990         2    ;  uncertainty k = 0.107760
         7        18        20        37     9        0.000000        0.740115         3    ;  uncertainty k = 0.107802
         7        18        20        37     9      180.000000        0.014748         4    ;  uncertainty k = 0.044731
         7        18        20        38     9        0.000000        0.233475         1    ;  uncertainty k = 0.308408
         7        18        20        38     9      180.000000       -0.195990         2    ;  uncertainty k = 0.107760
         7        18        20        38     9        0.000000        0.740115         3    ;  uncertainty k = 0.107802
         7        18        20        38     9      180.000000        0.014748         4    ;  uncertainty k = 0.044731
         7        18        20        39     9        0.000000        0.233475         1    ;  uncertainty k = 0.308408
         7        18        20        39     9      180.000000       -0.195990         2    ;  uncertainty k = 0.107760
         7        18        20        39     9        0.000000        0.740115         3    ;  uncertainty k = 0.107802
         7        18        20        39     9      180.000000        0.014748         4    ;  uncertainty k = 0.044731
         7        18        21        23     9        0.000000       -1.705151         1    ;  uncertainty k = 0.658285
         7        18        21        23     9      180.000000       -1.244152         2    ;  uncertainty k = 0.147703
         7        18        21        23     9        0.000000        1.494783         3    ;  uncertainty k = 0.154471
         7        18        21        23     9      180.000000        0.031067         4    ;  uncertainty k = 0.158444
         8         4        10        11     9        0.000000       -0.806559         1    ;  uncertainty k = 0.443206
         8         4        10        11     9      180.000000       23.923136         2    ;  uncertainty k = 0.167277
         8         4        10        11     9        0.000000        1.746403         3    ;  uncertainty k = 0.254558
         8         4        10        11     9      180.000000        1.448585         4    ;  uncertainty k = 0.448996
         8         9        12        11     9        0.000000       -1.193947         1    ;  uncertainty k = 0.844290
         8         9        12        11     9      180.000000        2.489744         2    ;  uncertainty k = 0.691617
         8         9        12        11     9        0.000000       -0.230392         3    ;  uncertainty k = 0.457346
         8         9        12        11     9      180.000000        0.546888         4    ;  uncertainty k = 0.237414
         8         9        12        13     9        0.000000        0.354863         1    ;  uncertainty k = 0.703755
         8         9        12        13     9      180.000000        2.980996         2    ;  uncertainty k = 0.626008
         8         9        12        13     9        0.000000        0.683030         3    ;  uncertainty k = 0.504922
         8         9        12        13     9      180.000000        0.519282         4    ;  uncertainty k = 0.265179
         9         8         4        10     9        0.000000        0.194989         1    ;  uncertainty k = 0.883244
         9         8         4        10     9      180.000000        7.090510         2    ;  uncertainty k = 0.650036
         9         8         4        10     9        0.000000        0.606196         3    ;  uncertainty k = 0.671788
         9         8         4        10     9      180.000000        0.383227         4    ;  uncertainty k = 0.217670
         9        12        11        10     9        0.000000       -0.183103         1    ;  uncertainty k = 0.431010
         9        12        11        10     9      180.000000        7.575109         2    ;  uncertainty k = 0.899866
         9        12        11        10     9        0.000000        0.995014         3    ;  uncertainty k = 0.432246
         9        12        11        10     9      180.000000        1.496213         4    ;  uncertainty k = 0.209473
         9        12        11        16     9        0.000000        0.070956         1    ;  uncertainty k = 0.503068
         9        12        11        16     9      180.000000        6.603889         2    ;  uncertainty k = 0.839766
         9        12        11        16     9        0.000000        0.947610         3    ;  uncertainty k = 0.295938
         9        12        11        16     9      180.000000        1.416061         4    ;  uncertainty k = 0.193480
         9        12        13        14     9        0.000000        0.264940         1    ;  uncertainty k = 0.246432
         9        12        13        14     9      180.000000        9.013460         2    ;  uncertainty k = 0.640344
         9        12        13        14     9        0.000000        1.402405         3    ;  uncertainty k = 0.236211
         9        12        13        14     9      180.000000        1.807429         4    ;  uncertainty k = 0.213904
         9        12        13        31     9        0.000000       -0.388182         1    ;  uncertainty k = 0.709542
         9        12        13        31     9      180.000000        7.471749         2    ;  uncertainty k = 0.400571
         9        12        13        31     9        0.000000        0.936545         3    ;  uncertainty k = 0.220275
         9        12        13        31     9      180.000000        1.188458         4    ;  uncertainty k = 0.138462
        10         4         8        30     9        0.000000        5.758951         1    ;  uncertainty k = 1.531634
        10         4         8        30     9      180.000000       10.846313         2    ;  uncertainty k = 0.608795
        10         4         8        30     9        0.000000        1.244465         3    ;  uncertainty k = 0.560007
        10         4         8        30     9      180.000000       -0.235958         4    ;  uncertainty k = 0.089808
        10        11        12        13     9        0.000000        0.049404         1    ;  uncertainty k = 0.402186
        10        11        12        13     9      180.000000        8.514214         2    ;  uncertainty k = 0.717812
        10        11        12        13     9        0.000000        0.658246         3    ;  uncertainty k = 0.224700
        10        11        12        13     9      180.000000        1.431737         4    ;  uncertainty k = 0.311120
        10        11        16        15     9        0.000000        0.123440         1    ;  uncertainty k = 0.423849
        10        11        16        15     9      180.000000       10.614146         2    ;  uncertainty k = 0.337063
        10        11        16        15     9        0.000000        0.825517         3    ;  uncertainty k = 0.234227
        10        11        16        15     9      180.000000        1.460557         4    ;  uncertainty k = 0.150432
        10        11        16        33     9        0.000000       -0.532603         1    ;  uncertainty k = 0.678535
        10        11        16        33     9      180.000000        7.650945         2    ;  uncertainty k = 0.346839
        10        11        16        33     9        0.000000        1.209870         3    ;  uncertainty k = 0.365776
        10        11        16        33     9      180.000000        1.221245         4    ;  uncertainty k = 0.215970
        11        12         9        17     9        0.000000       -2.356332         1    ;  uncertainty k = 0.972284
        11        12         9        17     9      180.000000        4.954601         2    ;  uncertainty k = 0.587205
        11        12         9        17     9        0.000000        0.258130         3    ;  uncertainty k = 0.265379
        11        12         9        17     9      180.000000       -0.085012         4    ;  uncertainty k = 0.204924
        11        12        13        14     9        0.000000        0.050628         1    ;  uncertainty k = 0.400124
        11        12        13        14     9      180.000000       11.708075         2    ;  uncertainty k = 0.364862
        11        12        13        14     9        0.000000       -0.278442         3    ;  uncertainty k = 0.242419
        11        12        13        14     9      180.000000        1.120414         4    ;  uncertainty k = 0.208215
        11        12        13        31     9        0.000000        0.041979         1    ;  uncertainty k = 0.435747
        11        12        13        31     9      180.000000        7.322408         2    ;  uncertainty k = 0.745969
        11        12        13        31     9        0.000000        1.367993         3    ;  uncertainty k = 0.302456
        11        12        13        31     9      180.000000        1.425751         4    ;  uncertainty k = 0.115038
        11        16        15        14     9        0.000000       -0.057073         1    ;  uncertainty k = 0.150982
        11        16        15        14     9      180.000000       15.642469         2    ;  uncertainty k = 0.154884
        11        16        15        14     9        0.000000       -0.221494         3    ;  uncertainty k = 0.546048
        11        16        15        14     9      180.000000        0.972330         4    ;  uncertainty k = 0.230431
        11        16        15        32     9        0.000000        0.150632         1    ;  uncertainty k = 0.194734
        11        16        15        32     9      180.000000        9.803223         2    ;  uncertainty k = 0.267504
        11        16        15        32     9        0.000000        1.485879         3    ;  uncertainty k = 0.156851
        11        16        15        32     9      180.000000        1.684062         4    ;  uncertainty k = 0.083206
        12         9         8        30     9        0.000000        2.496625         1    ;  uncertainty k = 2.318093
        12         9         8        30     9      180.000000        5.316572         2    ;  uncertainty k = 0.889294
        12         9         8        30     9        0.000000        1.796288         3    ;  uncertainty k = 0.190470
        12         9         8        30     9      180.000000       -0.030160         4    ;  uncertainty k = 0.088266
        12        11        16        15     9        0.000000        0.299009         1    ;  uncertainty k = 0.441395
        12        11        16        15     9      180.000000        8.793315         2    ;  uncertainty k = 0.480347
        12        11        16        15     9        0.000000       -0.398610         3    ;  uncertainty k = 0.171034
        12        11        16        15     9      180.000000        1.079568         4    ;  uncertainty k = 0.206112
        12        11        16        33     9        0.000000       -0.086630         1    ;  uncertainty k = 0.278042
        12        11        16        33     9      180.000000        5.469933         2    ;  uncertainty k = 0.424641
        12        11        16        33     9        0.000000        1.374953         3    ;  uncertainty k = 0.418872
        12        11        16        33     9      180.000000        1.196756         4    ;  uncertainty k = 0.132430
        12        13        14        15     9        0.000000        0.014579         1    ;  uncertainty k = 0.406167
        12        13        14        15     9      180.000000        8.580802         2    ;  uncertainty k = 0.496281
        12        13        14        15     9        0.000000        0.411247         3    ;  uncertainty k = 0.429260
        12        13        14        15     9      180.000000        1.349937         4    ;  uncertainty k = 0.402939
        12        13        14        22     9        0.000000        0.052939         1    ;  uncertainty k = 0.279629
        12        13        14        22     9      180.000000       14.300883         2    ;  uncertainty k = 0.204149
        12        13        14        22     9        0.000000        1.453227         3    ;  uncertainty k = 0.306011
        12        13        14        22     9      180.000000        1.325491         4    ;  uncertainty k = 0.084420
        13        12         9        17     9        0.000000       -1.911914         1    ;  uncertainty k = 0.521653
        13        12         9        17     9      180.000000        5.458000         2    ;  uncertainty k = 0.685108
        13        12         9        17     9        0.000000        0.514571         3    ;  uncertainty k = 0.325112
        13        12         9        17     9      180.000000       -0.138469         4    ;  uncertainty k = 0.135496
        13        12        11        16     9        0.000000       -0.184790         1    ;  uncertainty k = 0.321483
        13        12        11        16     9      180.000000        7.012766         2    ;  uncertainty k = 0.723268
        13        12        11        16     9        0.000000        0.265658         3    ;  uncertainty k = 0.306559
        13        12        11        16     9      180.000000        1.386198         4    ;  uncertainty k = 0.296940
        13        14        15        16     9        0.000000       -0.037319         1    ;  uncertainty k = 0.446590
        13        14        15        16     9      180.000000        7.190768         2    ;  uncertainty k = 0.575231
        13        14        15        16     9        0.000000        0.100291         3    ;  uncertainty k = 0.435789
        13        14        15        16     9      180.000000        1.245216         4    ;  uncertainty k = 0.285117
        13        14        15        32     9        0.000000       -0.021606         1    ;  uncertainty k = 0.306379
        13        14        15        32     9      180.000000        5.222008         2    ;  uncertainty k = 0.775373
        13        14        15        32     9        0.000000        1.141408         3    ;  uncertainty k = 0.190575
        13        14        15        32     9      180.000000        1.375914         4    ;  uncertainty k = 0.167968
        14        15        16        33     9        0.000000       -0.011414         1    ;  uncertainty k = 0.293284
        14        15        16        33     9      180.000000        9.463462         2    ;  uncertainty k = 0.336797
        14        15        16        33     9        0.000000        1.362115         3    ;  uncertainty k = 0.433381
        14        15        16        33     9      180.000000        1.933407         4    ;  uncertainty k = 0.228211
        15        14        13        31     9        0.000000        0.166988         1    ;  uncertainty k = 0.092153
        15        14        13        31     9      180.000000        6.142412         2    ;  uncertainty k = 0.526407
        15        14        13        31     9        0.000000        1.428280         3    ;  uncertainty k = 0.294530
        15        14        13        31     9      180.000000        1.629598         4    ;  uncertainty k = 0.083727
        16        15        14        22     9        0.000000       -0.122893         1    ;  uncertainty k = 0.197616
        16        15        14        22     9      180.000000       10.863911         2    ;  uncertainty k = 0.566593
        16        15        14        22     9        0.000000        1.520436         3    ;  uncertainty k = 0.425418
        16        15        14        22     9      180.000000        1.527116         4    ;  uncertainty k = 0.291310
        17         9         8        30     9        0.000000        1.499195         1    ;  uncertainty k = 2.518561
        17         9         8        30     9      180.000000        9.178552         2    ;  uncertainty k = 0.611520
        17         9         8        30     9        0.000000        0.741428         3    ;  uncertainty k = 0.511189
        17         9         8        30     9      180.000000       -0.114753         4    ;  uncertainty k = 0.058823
        18         7         5        28     9        0.000000       -0.052418         1    ;  uncertainty k = 0.465930
        18         7         5        28     9      180.000000        7.665529         2    ;  uncertainty k = 0.232669
        18         7         5        28     9        0.000000        0.593496         3    ;  uncertainty k = 0.201102
        18         7         5        28     9      180.000000        0.986893         4    ;  uncertainty k = 0.083204
        18         7         6        29     9        0.000000       -0.052418         1    ;  uncertainty k = 0.465930
        18         7         6        29     9      180.000000        7.665529         2    ;  uncertainty k = 0.232669
        18         7         6        29     9        0.000000        0.593496         3    ;  uncertainty k = 0.201102
        18         7         6        29     9      180.000000        0.986893         4    ;  uncertainty k = 0.083204
        18        21        23        24     9        0.000000       -3.604640         1    ;  uncertainty k = 0.704423
        18        21        23        24     9      180.000000       -1.231902         2    ;  uncertainty k = 0.483573
        18        21        23        24     9        0.000000        0.926441         3    ;  uncertainty k = 0.269628
        18        21        23        24     9      180.000000        0.040534         4    ;  uncertainty k = 0.144363
        18        21        23        40     9        0.000000        0.024013         1    ;  uncertainty k = 0.347953
        18        21        23        40     9      180.000000       -1.718955         2    ;  uncertainty k = 0.439808
        18        21        23        40     9        0.000000        0.858047         3    ;  uncertainty k = 0.106496
        18        21        23        40     9      180.000000        0.062912         4    ;  uncertainty k = 0.071961
        18        21        23        41     9        0.000000        0.024013         1    ;  uncertainty k = 0.347953
        18        21        23        41     9      180.000000       -1.718955         2    ;  uncertainty k = 0.439808
        18        21        23        41     9        0.000000        0.858047         3    ;  uncertainty k = 0.106496
        18        21        23        41     9      180.000000        0.062912         4    ;  uncertainty k = 0.071961
        19        18        20        37     9        0.000000       -1.038151         1    ;  uncertainty k = 0.260492
        19        18        20        37     9      180.000000       -0.106935         2    ;  uncertainty k = 0.136192
        19        18        20        37     9        0.000000        0.726714         3    ;  uncertainty k = 0.103983
        19        18        20        37     9      180.000000        0.002894         4    ;  uncertainty k = 0.070703
        19        18        20        38     9        0.000000       -1.038151         1    ;  uncertainty k = 0.260492
        19        18        20        38     9      180.000000       -0.106935         2    ;  uncertainty k = 0.136192
        19        18        20        38     9        0.000000        0.726714         3    ;  uncertainty k = 0.103983
        19        18        20        38     9      180.000000        0.002894         4    ;  uncertainty k = 0.070703
        19        18        20        39     9        0.000000       -1.038151         1    ;  uncertainty k = 0.260492
        19        18        20        39     9      180.000000       -0.106935         2    ;  uncertainty k = 0.136192
        19        18        20        39     9        0.000000        0.726714         3    ;  uncertainty k = 0.103983
        19        18        20        39     9      180.000000        0.002894         4    ;  uncertainty k = 0.070703
        19        18        21        23     9        0.000000       -2.668937         1    ;  uncertainty k = 0.384869
        19        18        21        23     9      180.000000        0.620708         2    ;  uncertainty k = 0.347718
        19        18        21        23     9        0.000000        1.184371         3    ;  uncertainty k = 0.173271
        19        18        21        23     9      180.000000        0.062792         4    ;  uncertainty k = 0.094623
        20        18        19        34     9        0.000000       -1.038151         1    ;  uncertainty k = 0.260492
        20        18        19        34     9      180.000000       -0.106935         2    ;  uncertainty k = 0.136192
        20        18        19        34     9        0.000000        0.726714         3    ;  uncertainty k = 0.103983
        20        18        19        34     9      180.000000        0.002894         4    ;  uncertainty k = 0.070703
        20        18        19        35     9        0.000000       -1.038151         1    ;  uncertainty k = 0.260492
        20        18        19        35     9      180.000000       -0.106935         2    ;  uncertainty k = 0.136192
        20        18        19        35     9        0.000000        0.726714         3    ;  uncertainty k = 0.103983
        20        18        19        35     9      180.000000        0.002894         4    ;  uncertainty k = 0.070703
        20        18        19        36     9        0.000000       -1.038151         1    ;  uncertainty k = 0.260492
        20        18        19        36     9      180.000000       -0.106935         2    ;  uncertainty k = 0.136192
        20        18        19        36     9        0.000000        0.726714         3    ;  uncertainty k = 0.103983
        20        18        19        36     9      180.000000        0.002894         4    ;  uncertainty k = 0.070703
        20        18        21        23     9        0.000000       -2.668937         1    ;  uncertainty k = 0.384869
        20        18        21        23     9      180.000000        0.620708         2    ;  uncertainty k = 0.347718
        20        18        21        23     9        0.000000        1.184371         3    ;  uncertainty k = 0.173271
        20        18        21        23     9      180.000000        0.062792         4    ;  uncertainty k = 0.094623
        21        18        19        34     9        0.000000       -1.047868         1    ;  uncertainty k = 0.319006
        21        18        19        34     9      180.000000       -1.764483         2    ;  uncertainty k = 0.232133
        21        18        19        34     9        0.000000        0.665503         3    ;  uncertainty k = 0.080606
        21        18        19        34     9      180.000000       -0.335483         4    ;  uncertainty k = 0.059636
        21        18        19        35     9        0.000000       -1.047868         1    ;  uncertainty k = 0.319006
        21        18        19        35     9      180.000000       -1.764483         2    ;  uncertainty k = 0.232133
        21        18        19        35     9        0.000000        0.665503         3    ;  uncertainty k = 0.080606
        21        18        19        35     9      180.000000       -0.335483         4    ;  uncertainty k = 0.059636
        21        18        19        36     9        0.000000       -1.047868         1    ;  uncertainty k = 0.319006
        21        18        19        36     9      180.000000       -1.764483         2    ;  uncertainty k = 0.232133
        21        18        19        36     9        0.000000        0.665503         3    ;  uncertainty k = 0.080606
        21        18        19        36     9      180.000000       -0.335483         4    ;  uncertainty k = 0.059636
        21        18        20        37     9        0.000000       -1.047868         1    ;  uncertainty k = 0.319006
        21        18        20        37     9      180.000000       -1.764483         2    ;  uncertainty k = 0.232133
        21        18        20        37     9        0.000000        0.665503         3    ;  uncertainty k = 0.080606
        21        18        20        37     9      180.000000       -0.335483         4    ;  uncertainty k = 0.059636
        21        18        20        38     9        0.000000       -1.047868         1    ;  uncertainty k = 0.319006
        21        18        20        38     9      180.000000       -1.764483         2    ;  uncertainty k = 0.232133
        21        18        20        38     9        0.000000        0.665503         3    ;  uncertainty k = 0.080606
        21        18        20        38     9      180.000000       -0.335483         4    ;  uncertainty k = 0.059636
        21        18        20        39     9        0.000000       -1.047868         1    ;  uncertainty k = 0.319006
        21        18        20        39     9      180.000000       -1.764483         2    ;  uncertainty k = 0.232133
        21        18        20        39     9        0.000000        0.665503         3    ;  uncertainty k = 0.080606
        21        18        20        39     9      180.000000       -0.335483         4    ;  uncertainty k = 0.059636
        21        23        24        25     9        0.000000       -2.250867         1    ;  uncertainty k = 0.755231
        21        23        24        25     9      180.000000       -4.076709         2    ;  uncertainty k = 0.364625
        21        23        24        25     9        0.000000        2.817731         3    ;  uncertainty k = 0.201705
        21        23        24        25     9      180.000000       -0.175513         4    ;  uncertainty k = 0.165093
        21        23        24        42     9        0.000000        0.819070         1    ;  uncertainty k = 0.445248
        21        23        24        42     9      180.000000       -1.747758         2    ;  uncertainty k = 0.358472
        21        23        24        42     9        0.000000        0.945429         3    ;  uncertainty k = 0.057807
        21        23        24        42     9      180.000000       -0.018564         4    ;  uncertainty k = 0.077947
        21        23        24        43     9        0.000000        0.819070         1    ;  uncertainty k = 0.445248
        21        23        24        43     9      180.000000       -1.747758         2    ;  uncertainty k = 0.358472
        21        23        24        43     9        0.000000        0.945429         3    ;  uncertainty k = 0.057807
        21        23        24        43     9      180.000000       -0.018564         4    ;  uncertainty k = 0.077947
        22        14        13        31     9        0.000000       -0.388026         1    ;  uncertainty k = 0.271818
        22        14        13        31     9      180.000000        9.843061         2    ;  uncertainty k = 0.427435
        22        14        13        31     9        0.000000        0.955047         3    ;  uncertainty k = 0.236449
        22        14        13        31     9      180.000000        1.015023         4    ;  uncertainty k = 0.197015
        22        14        15        32     9        0.000000       -0.164895         1    ;  uncertainty k = 0.458056
        22        14        15        32     9      180.000000        8.717669         2    ;  uncertainty k = 0.312533
        22        14        15        32     9        0.000000        0.777601         3    ;  uncertainty k = 0.256890
        22        14        15        32     9      180.000000        0.897535         4    ;  uncertainty k = 0.157117
        23        24        25        44     9        0.000000       13.907989         1    ;  uncertainty k = 0.068868
        23        24        25        44     9      180.000000       -3.628603         2    ;  uncertainty k = 0.208085
        23        24        25        44     9        0.000000        1.140050         3    ;  uncertainty k = 0.053803
        23        24        25        44     9      180.000000        0.312334         4    ;  uncertainty k = 0.057506
        25        24        23        40     9        0.000000       -2.083203         1    ;  uncertainty k = 0.668647
        25        24        23        40     9      180.000000        0.443171         2    ;  uncertainty k = 0.468255
        25        24        23        40     9        0.000000        1.706575         3    ;  uncertainty k = 0.125380
        25        24        23        40     9      180.000000       -0.277120         4    ;  uncertainty k = 0.052528
        25        24        23        41     9        0.000000       -2.083203         1    ;  uncertainty k = 0.668647
        25        24        23        41     9      180.000000        0.443171         2    ;  uncertainty k = 0.468255
        25        24        23        41     9        0.000000        1.706575         3    ;  uncertainty k = 0.125380
        25        24        23        41     9      180.000000       -0.277120         4    ;  uncertainty k = 0.052528
        26         2         5        28     9        0.000000       -0.115987         1    ;  uncertainty k = 0.205186
        26         2         5        28     9      180.000000        7.980708         2    ;  uncertainty k = 0.451603
        26         2         5        28     9        0.000000       -0.401343         3    ;  uncertainty k = 0.201529
        26         2         5        28     9      180.000000        0.303090         4    ;  uncertainty k = 0.226055
        27         3         6        29     9        0.000000       -0.115987         1    ;  uncertainty k = 0.205186
        27         3         6        29     9      180.000000        7.980708         2    ;  uncertainty k = 0.451603
        27         3         6        29     9        0.000000       -0.401343         3    ;  uncertainty k = 0.201529
        27         3         6        29     9      180.000000        0.303090         4    ;  uncertainty k = 0.226055
        32        15        16        33     9        0.000000       -0.169011         1    ;  uncertainty k = 0.251724
        32        15        16        33     9      180.000000        8.399341         2    ;  uncertainty k = 0.338025
        32        15        16        33     9        0.000000       -0.223565         3    ;  uncertainty k = 0.293097
        32        15        16        33     9      180.000000        0.239211         4    ;  uncertainty k = 0.177227
        40        23        24        42     9        0.000000       -0.184160         1    ;  uncertainty k = 0.185661
        40        23        24        42     9      180.000000       -0.113896         2    ;  uncertainty k = 0.131959
        40        23        24        42     9        0.000000        0.244803         3    ;  uncertainty k = 0.075799
        40        23        24        42     9      180.000000        0.006555         4    ;  uncertainty k = 0.122350
        40        23        24        43     9        0.000000       -0.184160         1    ;  uncertainty k = 0.185661
        40        23        24        43     9      180.000000       -0.113896         2    ;  uncertainty k = 0.131959
        40        23        24        43     9        0.000000        0.244803         3    ;  uncertainty k = 0.075799
        40        23        24        43     9      180.000000        0.006555         4    ;  uncertainty k = 0.122350
        41        23        24        42     9        0.000000       -0.184160         1    ;  uncertainty k = 0.185661
        41        23        24        42     9      180.000000       -0.113896         2    ;  uncertainty k = 0.131959
        41        23        24        42     9        0.000000        0.244803         3    ;  uncertainty k = 0.075799
        41        23        24        42     9      180.000000        0.006555         4    ;  uncertainty k = 0.122350
        41        23        24        43     9        0.000000       -0.184160         1    ;  uncertainty k = 0.185661
        41        23        24        43     9      180.000000       -0.113896         2    ;  uncertainty k = 0.131959
        41        23        24        43     9        0.000000        0.244803         3    ;  uncertainty k = 0.075799
        41        23        24        43     9      180.000000        0.006555         4    ;  uncertainty k = 0.122350
        42        24        25        44     9        0.000000       10.973296         1    ;  uncertainty k = 0.119045
        42        24        25        44     9      180.000000       -2.074166         2    ;  uncertainty k = 0.136008
        42        24        25        44     9        0.000000        0.732196         3    ;  uncertainty k = 0.070452
        42        24        25        44     9      180.000000        0.108840         4    ;  uncertainty k = 0.037115
        43        24        25        44     9        0.000000       10.973296         1    ;  uncertainty k = 0.119045
        43        24        25        44     9      180.000000       -2.074166         2    ;  uncertainty k = 0.136008
        43        24        25        44     9        0.000000        0.732196         3    ;  uncertainty k = 0.070452
        43        24        25        44     9      180.000000        0.108840         4    ;  uncertainty k = 0.037115

[ dihedrals ] ; impropers
;       ai        aj        ak        al funct           phase               k        pn
         1         2         3         4     4      180.000000        8.897302         2    ;  uncertainty k = 0.236668
         1         3         4         2     4      180.000000        8.897302         2    ;  uncertainty k = 0.236668
         1         4         2         3     4      180.000000        8.897302         2    ;  uncertainty k = 0.236668
         2         1         5        26     4      180.000000        4.107818         2    ;  uncertainty k = 0.126426
         2         5        26         1     4      180.000000        4.107818         2    ;  uncertainty k = 0.126426
         2        26         1         5     4      180.000000        4.107818         2    ;  uncertainty k = 0.126426
         3         1         6        27     4      180.000000        4.107818         2    ;  uncertainty k = 0.126426
         3         6        27         1     4      180.000000        4.107818         2    ;  uncertainty k = 0.126426
         3        27         1         6     4      180.000000        4.107818         2    ;  uncertainty k = 0.126426
         4         1         8        10     4      180.000000       30.410742         2    ;  uncertainty k = 0.037194
         4         8        10         1     4      180.000000       30.410742         2    ;  uncertainty k = 0.037194
         4        10         1         8     4      180.000000       30.410742         2    ;  uncertainty k = 0.037194
         5         2         7        28     4      180.000000        3.644625         2    ;  uncertainty k = 0.147920
         5         7        28         2     4      180.000000        3.644625         2    ;  uncertainty k = 0.147920
         5        28         2         7     4      180.000000        3.644625         2    ;  uncertainty k = 0.147920
         6         3         7        29     4      180.000000        3.644625         2    ;  uncertainty k = 0.147920
         6         7        29         3     4      180.000000        3.644625         2    ;  uncertainty k = 0.147920
         6        29         3         7     4      180.000000        3.644625         2    ;  uncertainty k = 0.147920
         7         5         6        18     4      180.000000       13.048775         2    ;  uncertainty k = 0.133728
         7         6        18         5     4      180.000000       13.048775         2    ;  uncertainty k = 0.133728
         7        18         5         6     4      180.000000       13.048775         2    ;  uncertainty k = 0.133728
         8         4         9        30     4      180.000000        0.721307         2    ;  uncertainty k = 0.517020
         8         9        30         4     4      180.000000        0.721307         2    ;  uncertainty k = 0.517020
         8        30         4         9     4      180.000000        0.721307         2    ;  uncertainty k = 0.517020
         9         8        12        17     4      180.000000       50.258063         2    ;  uncertainty k = 0.010206
         9        12        17         8     4      180.000000       50.258063         2    ;  uncertainty k = 0.010206
         9        17         8        12     4      180.000000       50.258063         2    ;  uncertainty k = 0.010206
        11        10        12        16     4      180.000000       21.108002         2    ;  uncertainty k = 0.036468
        11        12        16        10     4      180.000000       21.108002         2    ;  uncertainty k = 0.036468
        11        16        10        12     4      180.000000       21.108002         2    ;  uncertainty k = 0.036468
        12         9        11        13     4      180.000000        5.434745         2    ;  uncertainty k = 0.365733
        12        11        13         9     4      180.000000        5.434745         2    ;  uncertainty k = 0.365733
        12        13         9        11     4      180.000000        5.434745         2    ;  uncertainty k = 0.365733
        13        12        14        31     4      180.000000        3.847248         2    ;  uncertainty k = 0.056781
        13        14        31        12     4      180.000000        3.847248         2    ;  uncertainty k = 0.056781
        13        31        12        14     4      180.000000        3.847248         2    ;  uncertainty k = 0.056781
        14        13        15        22     4      180.000000       16.721155         2    ;  uncertainty k = 0.059128
        14        15        22        13     4      180.000000       16.721155         2    ;  uncertainty k = 0.059128
        14        22        13        15     4      180.000000       16.721155         2    ;  uncertainty k = 0.059128
        15        14        16        32     4      180.000000        3.605822         2    ;  uncertainty k = 0.146573
        15        16        32        14     4      180.000000        3.605822         2    ;  uncertainty k = 0.146573
        15        32        14        16     4      180.000000        3.605822         2    ;  uncertainty k = 0.146573
        16        11        15        33     4      180.000000        3.056720         2    ;  uncertainty k = 0.286145
        16        15        33        11     4      180.000000        3.056720         2    ;  uncertainty k = 0.286145
        16        33        11        15     4      180.000000        3.056720         2    ;  uncertainty k = 0.286145

[ pairs ]
;       ai        aj funct
         1         7     1
         1         9     1
         1        11     1
         1        28     1
         1        29     1
         1        30     1
         2         6     1
         2         8     1
         2        10     1
         2        18     1
         2        27     1
         3         5     1
         3         8     1
         3        10     1
         3        18     1
         3        26     1
         4         5     1
         4         6     1
         4        12     1
         4        16     1
         4        17     1
         4        26     1
         4        27     1
         5        19     1
         5        20     1
         5        21     1
         5        29     1
         6        19     1
         6        20     1
         6        21     1
         6        28     1
         7        23     1
         7        26     1
         7        27     1
         7        34     1
         7        35     1
         7        36     1
         7        37     1
         7        38     1
         7        39     1
         8        11     1
         8        13     1
         9        10     1
         9        14     1
         9        16     1
         9        31     1
        10        13     1
        10        15     1
        10        30     1
        10        33     1
        11        14     1
        11        17     1
        11        31     1
        11        32     1
        12        15     1
        12        22     1
        12        30     1
        12        33     1
        13        16     1
        13        17     1
        13        32     1
        14        33     1
        15        31     1
        16        22     1
        17        30     1
        18        24     1
        18        28     1
        18        29     1
        18        40     1
        18        41     1
        19        23     1
        19        37     1
        19        38     1
        19        39     1
        20        23     1
        20        34     1
        20        35     1
        20        36     1
        21        25     1
        21        34     1
        21        35     1
        21        36     1
        21        37     1
        21        38     1
        21        39     1
        21        42     1
        21        43     1
        22        31     1
        22        32     1
        23        44     1
        25        40     1
        25        41     1
        26        28     1
        27        29     1
        32        33     1
        40        42     1
        40        43     1
        41        42     1
        41        43     1
        42        44     1
        43        44     1
