; ITP file created by ByteFF-joint-25, 2026-02-17 09:47:43.757684

[ atomtypes ]
;name           bonded.type        at.num        mass        charge   ptype           sigma         epsilon
 c0bf                                   6      0.0000       0.00000       A     3.31501e-01     4.12880e-01    ;  uncertainty sigma = 0.000017, epsilon = 0.001089
 c1bf                                   6      0.0000       0.00000       A     3.31519e-01     4.13337e-01    ;  uncertainty sigma = 0.000004, epsilon = 0.000604
 c2bf                                   6      0.0000       0.00000       A     3.31519e-01     4.13337e-01    ;  uncertainty sigma = 0.000004, epsilon = 0.000604
 c3bf                                   6      0.0000       0.00000       A     3.31525e-01     4.13260e-01    ;  uncertainty sigma = 0.000004, epsilon = 0.000521
 c4bf                                   6      0.0000       0.00000       A     3.31525e-01     4.13260e-01    ;  uncertainty sigma = 0.000004, epsilon = 0.000521
 n5bf                                   7      0.0000       0.00000       A     3.38451e-01     3.94289e-01    ;  uncertainty sigma = 0.000025, epsilon = 0.001873
 c6bf                                   6      0.0000       0.00000       A     3.31517e-01     4.13350e-01    ;  uncertainty sigma = 0.000007, epsilon = 0.001286
 c7bf                                   6      0.0000       0.00000       A     3.39805e-01     4.50435e-01    ;  uncertainty sigma = 0.000008, epsilon = 0.001063
 c8bf                                   6      0.0000       0.00000       A     3.31513e-01     4.13012e-01    ;  uncertainty sigma = 0.000012, epsilon = 0.000723
 c9bf                                   6      0.0000       0.00000       A     3.31553e-01     4.14094e-01    ;  uncertainty sigma = 0.000012, epsilon = 0.000786
 c10bf                                  6      0.0000       0.00000       A     3.31510e-01     4.13349e-01    ;  uncertainty sigma = 0.000006, epsilon = 0.000631
 c11bf                                  6      0.0000       0.00000       A     3.31510e-01     4.13281e-01    ;  uncertainty sigma = 0.000007, epsilon = 0.000662
 c12bf                                  6      0.0000       0.00000       A     3.31510e-01     4.13527e-01    ;  uncertainty sigma = 0.000008, epsilon = 0.000785
 c13bf                                  6      0.0000       0.00000       A     3.31504e-01     4.13224e-01    ;  uncertainty sigma = 0.000008, epsilon = 0.000825
 c14bf                                  6      0.0000       0.00000       A     3.31539e-01     4.13390e-01    ;  uncertainty sigma = 0.000009, epsilon = 0.001213
 n15bf                                  7      0.0000       0.00000       A     3.26867e-01     4.92512e-01    ;  uncertainty sigma = 0.000088, epsilon = 0.003430
 c16bf                                  6      0.0000       0.00000       A     3.31514e-01     4.12811e-01    ;  uncertainty sigma = 0.000013, epsilon = 0.001292
 o17bf                                  8      0.0000       0.00000       A     3.04814e-01     6.11899e-01    ;  uncertainty sigma = 0.000014, epsilon = 0.001624
 c18bf                                  6      0.0000       0.00000       A     3.39769e-01     4.50933e-01    ;  uncertainty sigma = 0.000007, epsilon = 0.000491
 o19bf                                  8      0.0000       0.00000       A     3.15621e-01     3.03731e-01    ;  uncertainty sigma = 0.000042, epsilon = 0.001607
 c20bf                                  6      0.0000       0.00000       A     3.39769e-01     4.50933e-01    ;  uncertainty sigma = 0.000007, epsilon = 0.000491
 c21bf                                  6      0.0000       0.00000       A     3.39784e-01     4.51160e-01    ;  uncertainty sigma = 0.000004, epsilon = 0.000717
 f22bf                                  9      0.0000       0.00000       A     3.03428e-01     3.47890e-01    ;  uncertainty sigma = 0.000015, epsilon = 0.000826
 c23bf                                  6      0.0000       0.00000       A     3.39774e-01     4.50396e-01    ;  uncertainty sigma = 0.000008, epsilon = 0.000303
 c24bf                                  6      0.0000       0.00000       A     3.39794e-01     4.50547e-01    ;  uncertainty sigma = 0.000020, epsilon = 0.000823
 o25bf                                  8      0.0000       0.00000       A     3.24301e-01     3.88312e-01    ;  uncertainty sigma = 0.000031, epsilon = 0.001423
 h26bf                                  1      0.0000       0.00000       A     2.62567e-01     6.70633e-02    ;  uncertainty sigma = 0.000011, epsilon = 0.000557
 h27bf                                  1      0.0000       0.00000       A     2.62567e-01     6.70633e-02    ;  uncertainty sigma = 0.000011, epsilon = 0.000557
 h28bf                                  1      0.0000       0.00000       A     2.62556e-01     6.70460e-02    ;  uncertainty sigma = 0.000009, epsilon = 0.000514
 h29bf                                  1      0.0000       0.00000       A     2.62556e-01     6.70460e-02    ;  uncertainty sigma = 0.000009, epsilon = 0.000514
 h30bf                                  1      0.0000       0.00000       A     2.62557e-01     6.70748e-02    ;  uncertainty sigma = 0.000009, epsilon = 0.000429
 h31bf                                  1      0.0000       0.00000       A     2.62584e-01     6.68453e-02    ;  uncertainty sigma = 0.000019, epsilon = 0.000520
 h32bf                                  1      0.0000       0.00000       A     1.10651e-01     4.13760e-02    ;  uncertainty sigma = 0.000058, epsilon = 0.001253
 h33bf                                  1      0.0000       0.00000       A     2.60036e-01     8.66290e-02    ;  uncertainty sigma = 0.000010, epsilon = 0.000429
 h34bf                                  1      0.0000       0.00000       A     2.60036e-01     8.66290e-02    ;  uncertainty sigma = 0.000010, epsilon = 0.000429
 h35bf                                  1      0.0000       0.00000       A     2.60036e-01     8.66290e-02    ;  uncertainty sigma = 0.000010, epsilon = 0.000429
 h36bf                                  1      0.0000       0.00000       A     2.60036e-01     8.66291e-02    ;  uncertainty sigma = 0.000010, epsilon = 0.000429
 h37bf                                  1      0.0000       0.00000       A     2.60036e-01     8.66291e-02    ;  uncertainty sigma = 0.000010, epsilon = 0.000429
 h38bf                                  1      0.0000       0.00000       A     2.60036e-01     8.66291e-02    ;  uncertainty sigma = 0.000010, epsilon = 0.000429
 h39bf                                  1      0.0000       0.00000       A     2.60033e-01     8.66509e-02    ;  uncertainty sigma = 0.000010, epsilon = 0.000546
 h40bf                                  1      0.0000       0.00000       A     2.60033e-01     8.66509e-02    ;  uncertainty sigma = 0.000010, epsilon = 0.000546
 h41bf                                  1      0.0000       0.00000       A     2.60033e-01     8.66509e-02    ;  uncertainty sigma = 0.000010, epsilon = 0.000546
 h42bf                                  1      0.0000       0.00000       A     2.42187e-01     8.68583e-02    ;  uncertainty sigma = 0.000027, epsilon = 0.000741
 h43bf                                  1      0.0000       0.00000       A     2.42187e-01     8.68583e-02    ;  uncertainty sigma = 0.000027, epsilon = 0.000741
 h44bf                                  1      0.0000       0.00000       A     2.42143e-01     8.62411e-02    ;  uncertainty sigma = 0.000033, epsilon = 0.000852
 h45bf                                  1      0.0000       0.00000       A     2.42143e-01     8.62410e-02    ;  uncertainty sigma = 0.000033, epsilon = 0.000852
 h46bf                                  1      0.0000       0.00000       A     5.37889e-02     1.94682e-02    ;  uncertainty sigma = 0.000082, epsilon = 0.001289

[ moleculetype ]
;name             nrexcl
 MOL                   3

[ atoms ]
;       nr            type      resi   res      atom      cgnr      charge          mass ; qtot
         1            c0bf         1   UNL        c0         1    -0.15139       12.0110 ; qtot   -0.151
         2            c1bf         1   UNL        c1         2    -0.08798       12.0110 ; qtot   -0.239
         3            c2bf         1   UNL        c2         3    -0.08798       12.0110 ; qtot   -0.327
         4            c3bf         1   UNL        c3         4    -0.12202       12.0110 ; qtot   -0.449
         5            c4bf         1   UNL        c4         5    -0.12202       12.0110 ; qtot   -0.571
         6            n5bf         1   UNL        n5         6    -0.62118       14.0070 ; qtot   -1.193
         7            c6bf         1   UNL        c6         7    -0.08140       12.0110 ; qtot   -1.274
         8            c7bf         1   UNL        c7         8     0.20889       12.0110 ; qtot   -1.065
         9            c8bf         1   UNL        c8         9     0.17366       12.0110 ; qtot   -0.891
        10            c9bf         1   UNL        c9        10    -0.17592       12.0110 ; qtot   -1.067
        11           c10bf         1   UNL       c10        11     0.11459       12.0110 ; qtot   -0.953
        12           c11bf         1   UNL       c11        12    -0.13544       12.0110 ; qtot   -1.088
        13           c12bf         1   UNL       c12        13    -0.10348       12.0110 ; qtot   -1.192
        14           c13bf         1   UNL       c13        14    -0.03982       12.0110 ; qtot   -1.231
        15           c14bf         1   UNL       c14        15     0.71850       12.0110 ; qtot   -0.513
        16           n15bf         1   UNL       n15        16    -0.50618       14.0070 ; qtot   -1.019
        17           c16bf         1   UNL       c16        17     0.56321       12.0110 ; qtot   -0.456
        18           o17bf         1   UNL       o17        18    -0.60550       15.9990 ; qtot   -1.061
        19           c18bf         1   UNL       c18        19    -0.10436       12.0110 ; qtot   -1.166
        20           o19bf         1   UNL       o19        20    -0.43234       15.9990 ; qtot   -1.598
        21           c20bf         1   UNL       c20        21    -0.10436       12.0110 ; qtot   -1.703
        22           c21bf         1   UNL       c21        22    -0.04026       12.0110 ; qtot   -1.743
        23           f22bf         1   UNL       f22        23    -0.13870       18.9980 ; qtot   -1.881
        24           c23bf         1   UNL       c23        24     0.10242       12.0110 ; qtot   -1.779
        25           c24bf         1   UNL       c24        25     0.11923       12.0110 ; qtot   -1.660
        26           o25bf         1   UNL       o25        26    -0.59863       15.9990 ; qtot   -2.258
        27           h26bf         1   UNL       h26        27     0.14623        1.0080 ; qtot   -2.112
        28           h27bf         1   UNL       h27        28     0.14623        1.0080 ; qtot   -1.966
        29           h28bf         1   UNL       h28        29     0.14128        1.0080 ; qtot   -1.825
        30           h29bf         1   UNL       h29        30     0.14128        1.0080 ; qtot   -1.683
        31           h30bf         1   UNL       h30        31     0.15341        1.0080 ; qtot   -1.530
        32           h31bf         1   UNL       h31        32     0.17584        1.0080 ; qtot   -1.354
        33           h32bf         1   UNL       h32        33     0.33625        1.0080 ; qtot   -1.018
        34           h33bf         1   UNL       h33        34     0.04591        1.0080 ; qtot   -0.972
        35           h34bf         1   UNL       h34        35     0.04591        1.0080 ; qtot   -0.926
        36           h35bf         1   UNL       h35        36     0.04591        1.0080 ; qtot   -0.880
        37           h36bf         1   UNL       h36        37     0.04591        1.0080 ; qtot   -0.834
        38           h37bf         1   UNL       h37        38     0.04591        1.0080 ; qtot   -0.788
        39           h38bf         1   UNL       h38        39     0.04591        1.0080 ; qtot   -0.742
        40           h39bf         1   UNL       h39        40     0.05084        1.0080 ; qtot   -0.692
        41           h40bf         1   UNL       h40        41     0.05084        1.0080 ; qtot   -0.641
        42           h41bf         1   UNL       h41        42     0.05084        1.0080 ; qtot   -0.590
        43           h42bf         1   UNL       h42        43     0.04521        1.0080 ; qtot   -0.545
        44           h43bf         1   UNL       h43        44     0.04521        1.0080 ; qtot   -0.500
        45           h44bf         1   UNL       h44        45     0.04616        1.0080 ; qtot   -0.453
        46           h45bf         1   UNL       h45        46     0.04616        1.0080 ; qtot   -0.407
        47           h46bf         1   UNL       h46        47     0.40722        1.0080 ; qtot    0.000

[ bonds ]
;       ai        aj funct               r               k
         1         2     1        0.139881   350469.118408    ;  uncertainty r = 0.000059, k = 3.608145
         1         3     1        0.139881   350469.118408    ;  uncertainty r = 0.000059, k = 3.608145
         1        17     1        0.147299   266765.292285    ;  uncertainty r = 0.000092, k = 12.319746
         2         4     1        0.139201   358796.539941    ;  uncertainty r = 0.000040, k = 3.271891
         2        27     1        0.108751   333157.997168    ;  uncertainty r = 0.000045, k = 1.128370
         3         5     1        0.139201   358796.539941    ;  uncertainty r = 0.000040, k = 3.271891
         3        28     1        0.108751   333157.997168    ;  uncertainty r = 0.000045, k = 1.128370
         4         7     1        0.139616   348846.235107    ;  uncertainty r = 0.000030, k = 2.994722
         4        29     1        0.108782   333494.678418    ;  uncertainty r = 0.000014, k = 1.123855
         5         7     1        0.139616   348846.235107    ;  uncertainty r = 0.000030, k = 2.994722
         5        30     1        0.108782   333494.678418    ;  uncertainty r = 0.000014, k = 1.123855
         6         9     1        0.138684   289195.352637    ;  uncertainty r = 0.000071, k = 30.783913
         6        17     1        0.129708   464193.399902    ;  uncertainty r = 0.000066, k = 10.155008
         7         8     1        0.152021   212602.628296    ;  uncertainty r = 0.000098, k = 9.065136
         8        19     1        0.153295   201459.676611    ;  uncertainty r = 0.000069, k = 2.952186
         8        20     1        0.143226   215817.329004    ;  uncertainty r = 0.000126, k = 11.201161
         8        21     1        0.153295   201459.676611    ;  uncertainty r = 0.000069, k = 2.952186
         9        10     1        0.141734   392289.301611    ;  uncertainty r = 0.000080, k = 15.374303
         9        14     1        0.141844   306039.885352    ;  uncertainty r = 0.000032, k = 27.801368
        10        13     1        0.139877   368575.056641    ;  uncertainty r = 0.000067, k = 3.222872
        10        15     1        0.146556   266305.496631    ;  uncertainty r = 0.000052, k = 14.717276
        11        12     1        0.140198   351180.531201    ;  uncertainty r = 0.000093, k = 4.447581
        11        13     1        0.137894   359234.526904    ;  uncertainty r = 0.000088, k = 9.675816
        11        23     1        0.135558   338536.214551    ;  uncertainty r = 0.000077, k = 4.410918
        12        14     1        0.138870   365742.812451    ;  uncertainty r = 0.000089, k = 7.721914
        12        31     1        0.108786   338550.081201    ;  uncertainty r = 0.000032, k = 1.188633
        13        32     1        0.108581   333195.255811    ;  uncertainty r = 0.000033, k = 2.285173
        14        22     1        0.150649   234450.327637    ;  uncertainty r = 0.000046, k = 2.989938
        15        16     1        0.140091   450228.125195    ;  uncertainty r = 0.000093, k = 15.366200
        15        18     1        0.123473   853603.673340    ;  uncertainty r = 0.000122, k = 12.777085
        16        17     1        0.138912   298725.904004    ;  uncertainty r = 0.000076, k = 21.073661
        16        33     1        0.102058   454589.710254    ;  uncertainty r = 0.000027, k = 4.102140
        19        34     1        0.109524   309973.136475    ;  uncertainty r = 0.000007, k = 2.007805
        19        35     1        0.109524   309973.136475    ;  uncertainty r = 0.000007, k = 2.007805
        19        36     1        0.109524   309973.136475    ;  uncertainty r = 0.000007, k = 2.007805
        20        24     1        0.140877   217806.465527    ;  uncertainty r = 0.000199, k = 13.413811
        21        37     1        0.109524   309973.136475    ;  uncertainty r = 0.000007, k = 2.007838
        21        38     1        0.109524   309973.136475    ;  uncertainty r = 0.000007, k = 2.007818
        21        39     1        0.109524   309973.136475    ;  uncertainty r = 0.000007, k = 2.007818
        22        40     1        0.109435   309134.906396    ;  uncertainty r = 0.000009, k = 1.848107
        22        41     1        0.109435   309134.906396    ;  uncertainty r = 0.000009, k = 1.848107
        22        42     1        0.109435   309134.906396    ;  uncertainty r = 0.000009, k = 1.848107
        24        25     1        0.152257   215955.740137    ;  uncertainty r = 0.000160, k = 2.652337
        24        43     1        0.109880   308661.576074    ;  uncertainty r = 0.000032, k = 1.243102
        24        44     1        0.109880   308661.576074    ;  uncertainty r = 0.000032, k = 1.243102
        25        26     1        0.142072   259102.831543    ;  uncertainty r = 0.000067, k = 2.252702
        25        45     1        0.109821   307874.777734    ;  uncertainty r = 0.000035, k = 1.513602
        25        46     1        0.109821   307874.777734    ;  uncertainty r = 0.000035, k = 1.513602
        26        47     1        0.096990   461025.827930    ;  uncertainty r = 0.000038, k = 2.463216

[ angles ]
;       ai        aj        ak funct           theta             cth
         1         2         4     1      121.903709      512.253059    ;  uncertainty theta = 0.001577, k = 0.044247
         1         2        27     1      118.373268      267.332069    ;  uncertainty theta = 0.002929, k = 0.046096
         1         3         5     1      121.903709      512.253059    ;  uncertainty theta = 0.001577, k = 0.044247
         1         3        28     1      118.373268      267.332069    ;  uncertainty theta = 0.002929, k = 0.046096
         1        17         6     1      122.622452      444.036640    ;  uncertainty theta = 0.003558, k = 0.173159
         1        17        16     1      116.755844      514.526691    ;  uncertainty theta = 0.005048, k = 0.245006
         2         1         3     1      120.778748      421.634435    ;  uncertainty theta = 0.002896, k = 0.258077
         2         1        17     1      117.899368      401.663968    ;  uncertainty theta = 0.002675, k = 0.113742
         2         4         7     1      121.714111      514.867963    ;  uncertainty theta = 0.002658, k = 0.069703
         2         4        29     1      119.593933      285.582643    ;  uncertainty theta = 0.001995, k = 0.043223
         3         1        17     1      117.899368      401.663968    ;  uncertainty theta = 0.002675, k = 0.113742
         3         5         7     1      121.714111      514.867963    ;  uncertainty theta = 0.002658, k = 0.069703
         3         5        30     1      119.593933      285.582643    ;  uncertainty theta = 0.001995, k = 0.043223
         4         2        27     1      120.157059      284.576864    ;  uncertainty theta = 0.003265, k = 0.054874
         4         7         5     1      119.631042      456.048498    ;  uncertainty theta = 0.004071, k = 0.073133
         4         7         8     1      119.896133      372.679955    ;  uncertainty theta = 0.005217, k = 0.065850
         5         3        28     1      120.157059      284.576864    ;  uncertainty theta = 0.003265, k = 0.054874
         5         7         8     1      119.896133      372.679955    ;  uncertainty theta = 0.005217, k = 0.065850
         6         9        10     1      123.042679      562.222319    ;  uncertainty theta = 0.006225, k = 0.109081
         6         9        14     1      117.664429      464.894968    ;  uncertainty theta = 0.009099, k = 0.158323
         6        17        16     1      123.546104      675.013921    ;  uncertainty theta = 0.006250, k = 0.156743
         7         4        29     1      118.847252      262.582518    ;  uncertainty theta = 0.001774, k = 0.052210
         7         5        30     1      118.847252      262.582518    ;  uncertainty theta = 0.001774, k = 0.052210
         7         8        19     1      109.823936      573.771029    ;  uncertainty theta = 0.002660, k = 0.169887
         7         8        20     1      107.171608      550.025412    ;  uncertainty theta = 0.004363, k = 0.192703
         7         8        21     1      109.823936      573.771029    ;  uncertainty theta = 0.002660, k = 0.169887
         8        19        34     1      107.443260      380.424850    ;  uncertainty theta = 0.000731, k = 0.026686
         8        19        35     1      107.443260      380.424850    ;  uncertainty theta = 0.000731, k = 0.026686
         8        19        36     1      107.443260      380.424850    ;  uncertainty theta = 0.000731, k = 0.026686
         8        20        24     1      109.208572      528.927482    ;  uncertainty theta = 0.003095, k = 0.131640
         8        21        37     1      107.443260      380.424850    ;  uncertainty theta = 0.000731, k = 0.026686
         8        21        38     1      107.443260      380.424850    ;  uncertainty theta = 0.000731, k = 0.026686
         8        21        39     1      107.443260      380.424850    ;  uncertainty theta = 0.000731, k = 0.026686
         9         6        17     1      116.403244      415.278503    ;  uncertainty theta = 0.005673, k = 0.413650
         9        10        13     1      122.740501      437.534286    ;  uncertainty theta = 0.002637, k = 0.159148
         9        10        15     1      117.448242      485.588709    ;  uncertainty theta = 0.004852, k = 0.216438
         9        14        12     1      119.470741      477.243725    ;  uncertainty theta = 0.003649, k = 0.130107
         9        14        22     1      118.993469      414.152253    ;  uncertainty theta = 0.005038, k = 0.244727
        10         9        14     1      121.271164      404.802926    ;  uncertainty theta = 0.005086, k = 0.100431
        10        13        11     1      117.322021      472.627733    ;  uncertainty theta = 0.002495, k = 0.109840
        10        13        32     1      120.877213      246.181980    ;  uncertainty theta = 0.005177, k = 0.115638
        10        15        16     1      108.990097      387.260496    ;  uncertainty theta = 0.007419, k = 0.261793
        10        15        18     1      128.035751      512.297078    ;  uncertainty theta = 0.003486, k = 0.151806
        11        12        14     1      121.263329      491.728341    ;  uncertainty theta = 0.003093, k = 0.183269
        11        12        31     1      120.168373      285.966275    ;  uncertainty theta = 0.002511, k = 0.086397
        11        13        32     1      122.104652      281.526010    ;  uncertainty theta = 0.003233, k = 0.096423
        12        11        13     1      123.933640      383.172005    ;  uncertainty theta = 0.005713, k = 0.275175
        12        11        23     1      118.383179      504.379010    ;  uncertainty theta = 0.002254, k = 0.101970
        12        14        22     1      121.301254      430.129641    ;  uncertainty theta = 0.002856, k = 0.258396
        13        10        15     1      117.459763      400.796600    ;  uncertainty theta = 0.003962, k = 0.195478
        13        11        23     1      119.088547      499.437165    ;  uncertainty theta = 0.001116, k = 0.072803
        14        12        31     1      119.288620      270.847093    ;  uncertainty theta = 0.003481, k = 0.067439
        14        22        40     1      109.499817      400.107769    ;  uncertainty theta = 0.001709, k = 0.068429
        14        22        41     1      109.499817      400.107769    ;  uncertainty theta = 0.001709, k = 0.068429
        14        22        42     1      109.499817      400.107769    ;  uncertainty theta = 0.001709, k = 0.068429
        15        16        17     1      120.698891      497.188622    ;  uncertainty theta = 0.003032, k = 0.164369
        15        16        33     1      115.359695      353.409780    ;  uncertainty theta = 0.007397, k = 0.132885
        16        15        18     1      125.003098      819.265263    ;  uncertainty theta = 0.003246, k = 0.067269
        17        16        33     1      116.878708      330.011915    ;  uncertainty theta = 0.006468, k = 0.213208
        19         8        20     1      108.099403      565.259639    ;  uncertainty theta = 0.003365, k = 0.043870
        19         8        21     1      110.199844      598.645132    ;  uncertainty theta = 0.003210, k = 0.094367
        20         8        21     1      108.099403      565.259639    ;  uncertainty theta = 0.003365, k = 0.043870
        20        24        25     1      107.800064      542.953867    ;  uncertainty theta = 0.004225, k = 0.130405
        20        24        43     1      108.307739      433.843056    ;  uncertainty theta = 0.001271, k = 0.061500
        20        24        44     1      108.307716      433.842992    ;  uncertainty theta = 0.001271, k = 0.061500
        24        25        26     1      110.871017      715.933691    ;  uncertainty theta = 0.002219, k = 0.106778
        24        25        45     1      108.668640      405.678880    ;  uncertainty theta = 0.001505, k = 0.031455
        24        25        46     1      108.668640      405.678880    ;  uncertainty theta = 0.001505, k = 0.031455
        25        24        43     1      109.292297      413.893562    ;  uncertainty theta = 0.001921, k = 0.024776
        25        24        44     1      109.292297      413.893562    ;  uncertainty theta = 0.001921, k = 0.024776
        25        26        47     1      106.977173      452.193831    ;  uncertainty theta = 0.000911, k = 0.032310
        26        25        45     1      108.437477      472.101221    ;  uncertainty theta = 0.000541, k = 0.036233
        26        25        46     1      108.437477      472.101221    ;  uncertainty theta = 0.000541, k = 0.036233
        34        19        35     1      105.703171      317.001396    ;  uncertainty theta = 0.000805, k = 0.012889
        34        19        36     1      105.703171      317.001396    ;  uncertainty theta = 0.000805, k = 0.012889
        35        19        36     1      105.703171      317.001396    ;  uncertainty theta = 0.000805, k = 0.012889
        37        21        38     1      105.703171      317.001396    ;  uncertainty theta = 0.000805, k = 0.012889
        37        21        39     1      105.703171      317.001396    ;  uncertainty theta = 0.000805, k = 0.012889
        38        21        39     1      105.703171      317.001396    ;  uncertainty theta = 0.000805, k = 0.012889
        40        22        41     1      106.807327      315.669668    ;  uncertainty theta = 0.001138, k = 0.027254
        40        22        42     1      106.807327      315.669668    ;  uncertainty theta = 0.001138, k = 0.027254
        41        22        42     1      106.807327      315.669668    ;  uncertainty theta = 0.001138, k = 0.027254
        43        24        44     1      107.376259      331.202072    ;  uncertainty theta = 0.001420, k = 0.038764
        45        25        46     1      107.560104      320.257377    ;  uncertainty theta = 0.001942, k = 0.044400

[ dihedrals ] ; propers for gromacs 4.5 or higher, use funct 9
;       ai        aj        ak        al funct           phase               k        pn
         1         2         4         7     9        0.000000       -0.137972         1    ;  uncertainty k = 0.240889
         1         2         4         7     9      180.000000       12.506809         2    ;  uncertainty k = 0.239582
         1         2         4         7     9        0.000000       -0.658127         3    ;  uncertainty k = 0.464897
         1         2         4         7     9      180.000000        0.902159         4    ;  uncertainty k = 0.302997
         1         2         4        29     9        0.000000        0.082547         1    ;  uncertainty k = 0.125681
         1         2         4        29     9      180.000000        8.088583         2    ;  uncertainty k = 0.304131
         1         2         4        29     9        0.000000        1.384323         3    ;  uncertainty k = 0.202549
         1         2         4        29     9      180.000000        1.846000         4    ;  uncertainty k = 0.189783
         1         3         5         7     9        0.000000       -0.137972         1    ;  uncertainty k = 0.240889
         1         3         5         7     9      180.000000       12.506809         2    ;  uncertainty k = 0.239582
         1         3         5         7     9        0.000000       -0.658127         3    ;  uncertainty k = 0.464897
         1         3         5         7     9      180.000000        0.902159         4    ;  uncertainty k = 0.302997
         1         3         5        30     9        0.000000        0.082547         1    ;  uncertainty k = 0.125681
         1         3         5        30     9      180.000000        8.088583         2    ;  uncertainty k = 0.304131
         1         3         5        30     9        0.000000        1.384323         3    ;  uncertainty k = 0.202549
         1         3         5        30     9      180.000000        1.846000         4    ;  uncertainty k = 0.189783
         1        17         6         9     9        0.000000       -0.510974         1    ;  uncertainty k = 0.593819
         1        17         6         9     9      180.000000       18.853421         2    ;  uncertainty k = 0.428954
         1        17         6         9     9        0.000000        2.745630         3    ;  uncertainty k = 0.436162
         1        17         6         9     9      180.000000        1.355425         4    ;  uncertainty k = 0.350836
         1        17        16        15     9        0.000000        1.075438         1    ;  uncertainty k = 0.757458
         1        17        16        15     9      180.000000        5.482701         2    ;  uncertainty k = 0.755807
         1        17        16        15     9        0.000000        0.546649         3    ;  uncertainty k = 0.334978
         1        17        16        15     9      180.000000       -0.090487         4    ;  uncertainty k = 0.323858
         1        17        16        33     9        0.000000        0.920197         1    ;  uncertainty k = 0.137887
         1        17        16        33     9      180.000000        4.697665         2    ;  uncertainty k = 0.897646
         1        17        16        33     9        0.000000        1.357235         3    ;  uncertainty k = 0.258733
         1        17        16        33     9      180.000000       -0.075011         4    ;  uncertainty k = 0.266243
         2         1         3         5     9        0.000000        0.048681         1    ;  uncertainty k = 0.141805
         2         1         3         5     9      180.000000       10.954463         2    ;  uncertainty k = 0.300139
         2         1         3         5     9        0.000000       -0.597233         3    ;  uncertainty k = 0.168556
         2         1         3         5     9      180.000000        0.949424         4    ;  uncertainty k = 0.270093
         2         1         3        28     9        0.000000        0.065425         1    ;  uncertainty k = 0.154408
         2         1         3        28     9      180.000000        6.880289         2    ;  uncertainty k = 0.569493
         2         1         3        28     9        0.000000        1.307045         3    ;  uncertainty k = 0.238387
         2         1         3        28     9      180.000000        1.580984         4    ;  uncertainty k = 0.264455
         2         1        17         6     9        0.000000        0.849538         1    ;  uncertainty k = 0.689939
         2         1        17         6     9      180.000000        3.947750         2    ;  uncertainty k = 0.270917
         2         1        17         6     9        0.000000        0.583736         3    ;  uncertainty k = 0.193985
         2         1        17         6     9      180.000000       -0.119244         4    ;  uncertainty k = 0.160217
         2         1        17        16     9        0.000000       -0.040932         1    ;  uncertainty k = 0.337414
         2         1        17        16     9      180.000000        4.137388         2    ;  uncertainty k = 0.396931
         2         1        17        16     9        0.000000        0.554332         3    ;  uncertainty k = 0.127248
         2         1        17        16     9      180.000000       -0.118801         4    ;  uncertainty k = 0.033160
         2         4         7         5     9        0.000000       -0.145264         1    ;  uncertainty k = 0.123410
         2         4         7         5     9      180.000000       11.092262         2    ;  uncertainty k = 0.357007
         2         4         7         5     9        0.000000       -0.336651         3    ;  uncertainty k = 0.219468
         2         4         7         5     9      180.000000        0.892273         4    ;  uncertainty k = 0.306619
         2         4         7         8     9        0.000000        0.240682         1    ;  uncertainty k = 0.312223
         2         4         7         8     9      180.000000        8.154466         2    ;  uncertainty k = 0.484904
         2         4         7         8     9        0.000000        1.457944         3    ;  uncertainty k = 0.375494
         2         4         7         8     9      180.000000        2.001655         4    ;  uncertainty k = 0.252736
         3         1         2         4     9        0.000000        0.048681         1    ;  uncertainty k = 0.141805
         3         1         2         4     9      180.000000       10.954463         2    ;  uncertainty k = 0.300139
         3         1         2         4     9        0.000000       -0.597233         3    ;  uncertainty k = 0.168556
         3         1         2         4     9      180.000000        0.949424         4    ;  uncertainty k = 0.270093
         3         1         2        27     9        0.000000        0.065425         1    ;  uncertainty k = 0.154408
         3         1         2        27     9      180.000000        6.880289         2    ;  uncertainty k = 0.569493
         3         1         2        27     9        0.000000        1.307045         3    ;  uncertainty k = 0.238387
         3         1         2        27     9      180.000000        1.580984         4    ;  uncertainty k = 0.264455
         3         1        17         6     9        0.000000        0.849538         1    ;  uncertainty k = 0.689939
         3         1        17         6     9      180.000000        3.947750         2    ;  uncertainty k = 0.270917
         3         1        17         6     9        0.000000        0.583736         3    ;  uncertainty k = 0.193985
         3         1        17         6     9      180.000000       -0.119244         4    ;  uncertainty k = 0.160217
         3         1        17        16     9        0.000000       -0.040932         1    ;  uncertainty k = 0.337414
         3         1        17        16     9      180.000000        4.137388         2    ;  uncertainty k = 0.396931
         3         1        17        16     9        0.000000        0.554332         3    ;  uncertainty k = 0.127248
         3         1        17        16     9      180.000000       -0.118801         4    ;  uncertainty k = 0.033160
         3         5         7         4     9        0.000000       -0.145264         1    ;  uncertainty k = 0.123410
         3         5         7         4     9      180.000000       11.092262         2    ;  uncertainty k = 0.357007
         3         5         7         4     9        0.000000       -0.336651         3    ;  uncertainty k = 0.219468
         3         5         7         4     9      180.000000        0.892273         4    ;  uncertainty k = 0.306619
         3         5         7         8     9        0.000000        0.240682         1    ;  uncertainty k = 0.312223
         3         5         7         8     9      180.000000        8.154466         2    ;  uncertainty k = 0.484904
         3         5         7         8     9        0.000000        1.457944         3    ;  uncertainty k = 0.375494
         3         5         7         8     9      180.000000        2.001655         4    ;  uncertainty k = 0.252736
         4         2         1        17     9        0.000000        0.110737         1    ;  uncertainty k = 0.201971
         4         2         1        17     9      180.000000        9.103873         2    ;  uncertainty k = 0.626444
         4         2         1        17     9        0.000000        1.344623         3    ;  uncertainty k = 0.292090
         4         2         1        17     9      180.000000        1.686967         4    ;  uncertainty k = 0.186540
         4         7         5        30     9        0.000000        0.157115         1    ;  uncertainty k = 0.127573
         4         7         5        30     9      180.000000        7.368151         2    ;  uncertainty k = 0.503353
         4         7         5        30     9        0.000000        1.391839         3    ;  uncertainty k = 0.334145
         4         7         5        30     9      180.000000        1.683002         4    ;  uncertainty k = 0.192770
         4         7         8        19     9        0.000000       -0.596197         1    ;  uncertainty k = 0.236527
         4         7         8        19     9      180.000000        2.796760         2    ;  uncertainty k = 0.108991
         4         7         8        19     9        0.000000        0.413259         3    ;  uncertainty k = 0.122148
         4         7         8        19     9      180.000000        0.263882         4    ;  uncertainty k = 0.053676
         4         7         8        20     9        0.000000        0.074448         1    ;  uncertainty k = 0.470942
         4         7         8        20     9      180.000000        2.951739         2    ;  uncertainty k = 0.389921
         4         7         8        20     9        0.000000        0.717659         3    ;  uncertainty k = 0.123925
         4         7         8        20     9      180.000000        0.278634         4    ;  uncertainty k = 0.024937
         4         7         8        21     9        0.000000       -0.596197         1    ;  uncertainty k = 0.236527
         4         7         8        21     9      180.000000        2.796760         2    ;  uncertainty k = 0.108991
         4         7         8        21     9        0.000000        0.413259         3    ;  uncertainty k = 0.122148
         4         7         8        21     9      180.000000        0.263882         4    ;  uncertainty k = 0.053676
         5         3         1        17     9        0.000000        0.110737         1    ;  uncertainty k = 0.201971
         5         3         1        17     9      180.000000        9.103873         2    ;  uncertainty k = 0.626444
         5         3         1        17     9        0.000000        1.344623         3    ;  uncertainty k = 0.292090
         5         3         1        17     9      180.000000        1.686967         4    ;  uncertainty k = 0.186540
         5         7         4        29     9        0.000000        0.157115         1    ;  uncertainty k = 0.127573
         5         7         4        29     9      180.000000        7.368151         2    ;  uncertainty k = 0.503353
         5         7         4        29     9        0.000000        1.391839         3    ;  uncertainty k = 0.334145
         5         7         4        29     9      180.000000        1.683002         4    ;  uncertainty k = 0.192770
         5         7         8        19     9        0.000000       -0.596197         1    ;  uncertainty k = 0.236527
         5         7         8        19     9      180.000000        2.796760         2    ;  uncertainty k = 0.108991
         5         7         8        19     9        0.000000        0.413259         3    ;  uncertainty k = 0.122148
         5         7         8        19     9      180.000000        0.263882         4    ;  uncertainty k = 0.053676
         5         7         8        20     9        0.000000        0.074448         1    ;  uncertainty k = 0.470942
         5         7         8        20     9      180.000000        2.951739         2    ;  uncertainty k = 0.389921
         5         7         8        20     9        0.000000        0.717659         3    ;  uncertainty k = 0.123925
         5         7         8        20     9      180.000000        0.278634         4    ;  uncertainty k = 0.024937
         5         7         8        21     9        0.000000       -0.596197         1    ;  uncertainty k = 0.236527
         5         7         8        21     9      180.000000        2.796760         2    ;  uncertainty k = 0.108991
         5         7         8        21     9        0.000000        0.413259         3    ;  uncertainty k = 0.122148
         5         7         8        21     9      180.000000        0.263882         4    ;  uncertainty k = 0.053676
         6         9        10        13     9        0.000000        0.038462         1    ;  uncertainty k = 0.444830
         6         9        10        13     9      180.000000        8.587019         2    ;  uncertainty k = 0.671837
         6         9        10        13     9        0.000000        0.713148         3    ;  uncertainty k = 0.200155
         6         9        10        13     9      180.000000        1.463394         4    ;  uncertainty k = 0.249538
         6         9        10        15     9        0.000000       -0.318912         1    ;  uncertainty k = 0.501586
         6         9        10        15     9      180.000000        7.364334         2    ;  uncertainty k = 0.847824
         6         9        10        15     9        0.000000        1.039164         3    ;  uncertainty k = 0.400747
         6         9        10        15     9      180.000000        1.558526         4    ;  uncertainty k = 0.213351
         6         9        14        12     9        0.000000        0.294111         1    ;  uncertainty k = 0.469027
         6         9        14        12     9      180.000000        9.023364         2    ;  uncertainty k = 0.267806
         6         9        14        12     9        0.000000        0.893350         3    ;  uncertainty k = 0.102400
         6         9        14        12     9      180.000000        1.382378         4    ;  uncertainty k = 0.285119
         6         9        14        22     9        0.000000        0.035749         1    ;  uncertainty k = 0.111275
         6         9        14        22     9      180.000000        9.834909         2    ;  uncertainty k = 0.290044
         6         9        14        22     9        0.000000        0.953279         3    ;  uncertainty k = 0.315912
         6         9        14        22     9      180.000000        1.223331         4    ;  uncertainty k = 0.296420
         6        17        16        15     9        0.000000        0.260347         1    ;  uncertainty k = 0.744537
         6        17        16        15     9      180.000000        7.151946         2    ;  uncertainty k = 0.710410
         6        17        16        15     9        0.000000        0.556205         3    ;  uncertainty k = 0.726165
         6        17        16        15     9      180.000000        0.390384         4    ;  uncertainty k = 0.219597
         6        17        16        33     9        0.000000        6.065386         1    ;  uncertainty k = 1.650694
         6        17        16        33     9      180.000000       11.046835         2    ;  uncertainty k = 0.751345
         6        17        16        33     9        0.000000        1.163981         3    ;  uncertainty k = 0.602529
         6        17        16        33     9      180.000000       -0.243028         4    ;  uncertainty k = 0.111389
         7         4         2        27     9        0.000000       -0.015470         1    ;  uncertainty k = 0.241529
         7         4         2        27     9      180.000000        7.513498         2    ;  uncertainty k = 0.165703
         7         4         2        27     9        0.000000        1.249208         3    ;  uncertainty k = 0.213066
         7         4         2        27     9      180.000000        1.862390         4    ;  uncertainty k = 0.205087
         7         5         3        28     9        0.000000       -0.015470         1    ;  uncertainty k = 0.241529
         7         5         3        28     9      180.000000        7.513498         2    ;  uncertainty k = 0.165703
         7         5         3        28     9        0.000000        1.249208         3    ;  uncertainty k = 0.213066
         7         5         3        28     9      180.000000        1.862390         4    ;  uncertainty k = 0.205087
         7         8        19        34     9        0.000000        0.233475         1    ;  uncertainty k = 0.308409
         7         8        19        34     9      180.000000       -0.195990         2    ;  uncertainty k = 0.107763
         7         8        19        34     9        0.000000        0.740116         3    ;  uncertainty k = 0.107802
         7         8        19        34     9      180.000000        0.014748         4    ;  uncertainty k = 0.044731
         7         8        19        35     9        0.000000        0.233475         1    ;  uncertainty k = 0.308409
         7         8        19        35     9      180.000000       -0.195990         2    ;  uncertainty k = 0.107763
         7         8        19        35     9        0.000000        0.740116         3    ;  uncertainty k = 0.107802
         7         8        19        35     9      180.000000        0.014748         4    ;  uncertainty k = 0.044731
         7         8        19        36     9        0.000000        0.233475         1    ;  uncertainty k = 0.308409
         7         8        19        36     9      180.000000       -0.195990         2    ;  uncertainty k = 0.107763
         7         8        19        36     9        0.000000        0.740116         3    ;  uncertainty k = 0.107802
         7         8        19        36     9      180.000000        0.014748         4    ;  uncertainty k = 0.044731
         7         8        20        24     9        0.000000       -1.705152         1    ;  uncertainty k = 0.658286
         7         8        20        24     9      180.000000       -1.244154         2    ;  uncertainty k = 0.147703
         7         8        20        24     9        0.000000        1.494783         3    ;  uncertainty k = 0.154471
         7         8        20        24     9      180.000000        0.031067         4    ;  uncertainty k = 0.158444
         7         8        21        37     9        0.000000        0.233474         1    ;  uncertainty k = 0.308408
         7         8        21        37     9      180.000000       -0.195989         2    ;  uncertainty k = 0.107761
         7         8        21        37     9        0.000000        0.740115         3    ;  uncertainty k = 0.107802
         7         8        21        37     9      180.000000        0.014748         4    ;  uncertainty k = 0.044731
         7         8        21        38     9        0.000000        0.233474         1    ;  uncertainty k = 0.308408
         7         8        21        38     9      180.000000       -0.195989         2    ;  uncertainty k = 0.107761
         7         8        21        38     9        0.000000        0.740115         3    ;  uncertainty k = 0.107802
         7         8        21        38     9      180.000000        0.014748         4    ;  uncertainty k = 0.044731
         7         8        21        39     9        0.000000        0.233474         1    ;  uncertainty k = 0.308408
         7         8        21        39     9      180.000000       -0.195989         2    ;  uncertainty k = 0.107761
         7         8        21        39     9        0.000000        0.740115         3    ;  uncertainty k = 0.107802
         7         8        21        39     9      180.000000        0.014748         4    ;  uncertainty k = 0.044731
         8         7         4        29     9        0.000000       -0.052417         1    ;  uncertainty k = 0.465930
         8         7         4        29     9      180.000000        7.665530         2    ;  uncertainty k = 0.232671
         8         7         4        29     9        0.000000        0.593496         3    ;  uncertainty k = 0.201102
         8         7         4        29     9      180.000000        0.986892         4    ;  uncertainty k = 0.083204
         8         7         5        30     9        0.000000       -0.052417         1    ;  uncertainty k = 0.465930
         8         7         5        30     9      180.000000        7.665530         2    ;  uncertainty k = 0.232671
         8         7         5        30     9        0.000000        0.593496         3    ;  uncertainty k = 0.201102
         8         7         5        30     9      180.000000        0.986892         4    ;  uncertainty k = 0.083204
         8        20        24        25     9        0.000000       -3.604639         1    ;  uncertainty k = 0.704422
         8        20        24        25     9      180.000000       -1.231902         2    ;  uncertainty k = 0.483571
         8        20        24        25     9        0.000000        0.926441         3    ;  uncertainty k = 0.269628
         8        20        24        25     9      180.000000        0.040534         4    ;  uncertainty k = 0.144364
         8        20        24        43     9        0.000000        0.024011         1    ;  uncertainty k = 0.347953
         8        20        24        43     9      180.000000       -1.718955         2    ;  uncertainty k = 0.439810
         8        20        24        43     9        0.000000        0.858048         3    ;  uncertainty k = 0.106496
         8        20        24        43     9      180.000000        0.062912         4    ;  uncertainty k = 0.071961
         8        20        24        44     9        0.000000        0.024011         1    ;  uncertainty k = 0.347953
         8        20        24        44     9      180.000000       -1.718955         2    ;  uncertainty k = 0.439810
         8        20        24        44     9        0.000000        0.858048         3    ;  uncertainty k = 0.106496
         8        20        24        44     9      180.000000        0.062912         4    ;  uncertainty k = 0.071961
         9         6        17        16     9        0.000000       -0.749071         1    ;  uncertainty k = 0.426890
         9         6        17        16     9      180.000000       23.735696         2    ;  uncertainty k = 0.142309
         9         6        17        16     9        0.000000        1.781853         3    ;  uncertainty k = 0.270894
         9         6        17        16     9      180.000000        1.479578         4    ;  uncertainty k = 0.403234
         9        10        13        11     9        0.000000        0.038369         1    ;  uncertainty k = 0.417300
         9        10        13        11     9      180.000000       11.877017         2    ;  uncertainty k = 0.493788
         9        10        13        11     9        0.000000       -0.296600         3    ;  uncertainty k = 0.191593
         9        10        13        11     9      180.000000        1.100769         4    ;  uncertainty k = 0.203139
         9        10        13        32     9        0.000000        0.098092         1    ;  uncertainty k = 0.435476
         9        10        13        32     9      180.000000        7.082700         2    ;  uncertainty k = 0.751235
         9        10        13        32     9        0.000000        1.376102         3    ;  uncertainty k = 0.308076
         9        10        13        32     9      180.000000        1.435589         4    ;  uncertainty k = 0.102280
         9        10        15        16     9        0.000000       -1.245062         1    ;  uncertainty k = 0.929843
         9        10        15        16     9      180.000000        2.361345         2    ;  uncertainty k = 0.988985
         9        10        15        16     9        0.000000       -0.198503         3    ;  uncertainty k = 0.601233
         9        10        15        16     9      180.000000        0.561300         4    ;  uncertainty k = 0.260004
         9        10        15        18     9        0.000000       -2.745583         1    ;  uncertainty k = 0.925661
         9        10        15        18     9      180.000000        5.124241         2    ;  uncertainty k = 0.688870
         9        10        15        18     9        0.000000        0.242193         3    ;  uncertainty k = 0.253626
         9        10        15        18     9      180.000000       -0.125308         4    ;  uncertainty k = 0.189048
         9        14        12        11     9        0.000000        0.120474         1    ;  uncertainty k = 0.354590
         9        14        12        11     9      180.000000       13.298083         2    ;  uncertainty k = 0.332786
         9        14        12        11     9        0.000000        0.401016         3    ;  uncertainty k = 0.289544
         9        14        12        11     9      180.000000        1.095531         4    ;  uncertainty k = 0.253388
         9        14        12        31     9        0.000000        0.351855         1    ;  uncertainty k = 0.291237
         9        14        12        31     9      180.000000        9.561566         2    ;  uncertainty k = 0.399775
         9        14        12        31     9        0.000000        1.498362         3    ;  uncertainty k = 0.201517
         9        14        12        31     9      180.000000        1.564017         4    ;  uncertainty k = 0.130263
         9        14        22        40     9        0.000000        0.058464         1    ;  uncertainty k = 0.224780
         9        14        22        40     9      180.000000        3.082735         2    ;  uncertainty k = 0.454779
         9        14        22        40     9        0.000000        0.426638         3    ;  uncertainty k = 0.098096
         9        14        22        40     9      180.000000        0.378025         4    ;  uncertainty k = 0.041231
         9        14        22        41     9        0.000000        0.058464         1    ;  uncertainty k = 0.224780
         9        14        22        41     9      180.000000        3.082735         2    ;  uncertainty k = 0.454779
         9        14        22        41     9        0.000000        0.426638         3    ;  uncertainty k = 0.098096
         9        14        22        41     9      180.000000        0.378025         4    ;  uncertainty k = 0.041231
         9        14        22        42     9        0.000000        0.058464         1    ;  uncertainty k = 0.224780
         9        14        22        42     9      180.000000        3.082735         2    ;  uncertainty k = 0.454779
         9        14        22        42     9        0.000000        0.426638         3    ;  uncertainty k = 0.098096
         9        14        22        42     9      180.000000        0.378025         4    ;  uncertainty k = 0.041231
        10         9         6        17     9        0.000000        1.433870         1    ;  uncertainty k = 2.213578
        10         9         6        17     9      180.000000        4.010027         2    ;  uncertainty k = 1.657060
        10         9         6        17     9        0.000000        1.588330         3    ;  uncertainty k = 0.741150
        10         9         6        17     9      180.000000        0.380709         4    ;  uncertainty k = 0.487317
        10         9        14        12     9        0.000000        0.296679         1    ;  uncertainty k = 0.771222
        10         9        14        12     9      180.000000        6.455509         2    ;  uncertainty k = 0.944522
        10         9        14        12     9        0.000000        0.282200         3    ;  uncertainty k = 0.269525
        10         9        14        12     9      180.000000        1.028383         4    ;  uncertainty k = 0.309859
        10         9        14        22     9        0.000000        0.211803         1    ;  uncertainty k = 0.526010
        10         9        14        22     9      180.000000        6.081582         2    ;  uncertainty k = 0.493020
        10         9        14        22     9        0.000000        1.265400         3    ;  uncertainty k = 0.359626
        10         9        14        22     9      180.000000        1.352389         4    ;  uncertainty k = 0.204452
        10        13        11        12     9        0.000000        0.082822         1    ;  uncertainty k = 0.345134
        10        13        11        12     9      180.000000        8.663163         2    ;  uncertainty k = 0.493840
        10        13        11        12     9        0.000000        0.373578         3    ;  uncertainty k = 0.432289
        10        13        11        12     9      180.000000        1.345720         4    ;  uncertainty k = 0.431090
        10        13        11        23     9        0.000000        0.046866         1    ;  uncertainty k = 0.324517
        10        13        11        23     9      180.000000       14.145530         2    ;  uncertainty k = 0.227017
        10        13        11        23     9        0.000000        1.428161         3    ;  uncertainty k = 0.294473
        10        13        11        23     9      180.000000        1.335092         4    ;  uncertainty k = 0.089392
        10        15        16        17     9        0.000000        0.276247         1    ;  uncertainty k = 1.378825
        10        15        16        17     9      180.000000        4.107860         2    ;  uncertainty k = 1.229742
        10        15        16        17     9        0.000000        0.641227         3    ;  uncertainty k = 0.225229
        10        15        16        17     9      180.000000        0.484711         4    ;  uncertainty k = 0.355038
        10        15        16        33     9        0.000000        2.434064         1    ;  uncertainty k = 2.380345
        10        15        16        33     9      180.000000        5.178656         2    ;  uncertainty k = 0.955652
        10        15        16        33     9        0.000000        1.798373         3    ;  uncertainty k = 0.147455
        10        15        16        33     9      180.000000       -0.011961         4    ;  uncertainty k = 0.088708
        11        12        14        22     9        0.000000        0.165930         1    ;  uncertainty k = 0.147205
        11        12        14        22     9      180.000000       12.371068         2    ;  uncertainty k = 0.407533
        11        12        14        22     9        0.000000        1.395374         3    ;  uncertainty k = 0.475067
        11        12        14        22     9      180.000000        1.730386         4    ;  uncertainty k = 0.265547
        11        13        10        15     9        0.000000        0.224039         1    ;  uncertainty k = 0.245528
        11        13        10        15     9      180.000000        9.027461         2    ;  uncertainty k = 0.664720
        11        13        10        15     9        0.000000        1.382491         3    ;  uncertainty k = 0.223697
        11        13        10        15     9      180.000000        1.831306         4    ;  uncertainty k = 0.221420
        12        11        13        32     9        0.000000        0.071466         1    ;  uncertainty k = 0.138144
        12        11        13        32     9      180.000000        6.148639         2    ;  uncertainty k = 0.529767
        12        11        13        32     9        0.000000        1.416250         3    ;  uncertainty k = 0.324519
        12        11        13        32     9      180.000000        1.608923         4    ;  uncertainty k = 0.035061
        12        14        22        40     9        0.000000        0.040331         1    ;  uncertainty k = 0.245891
        12        14        22        40     9      180.000000        2.115985         2    ;  uncertainty k = 0.283026
        12        14        22        40     9        0.000000        0.291249         3    ;  uncertainty k = 0.089773
        12        14        22        40     9      180.000000        0.237136         4    ;  uncertainty k = 0.018760
        12        14        22        41     9        0.000000        0.040331         1    ;  uncertainty k = 0.245891
        12        14        22        41     9      180.000000        2.115985         2    ;  uncertainty k = 0.283026
        12        14        22        41     9        0.000000        0.291249         3    ;  uncertainty k = 0.089773
        12        14        22        41     9      180.000000        0.237136         4    ;  uncertainty k = 0.018760
        12        14        22        42     9        0.000000        0.040331         1    ;  uncertainty k = 0.245891
        12        14        22        42     9      180.000000        2.115985         2    ;  uncertainty k = 0.283026
        12        14        22        42     9        0.000000        0.291249         3    ;  uncertainty k = 0.089773
        12        14        22        42     9      180.000000        0.237136         4    ;  uncertainty k = 0.018760
        13        10         9        14     9        0.000000       -0.003499         1    ;  uncertainty k = 0.472609
        13        10         9        14     9      180.000000        6.586523         2    ;  uncertainty k = 0.781164
        13        10         9        14     9        0.000000        0.359830         3    ;  uncertainty k = 0.187692
        13        10         9        14     9      180.000000        1.411064         4    ;  uncertainty k = 0.263209
        13        10        15        16     9        0.000000        0.342638         1    ;  uncertainty k = 0.671986
        13        10        15        16     9      180.000000        2.990342         2    ;  uncertainty k = 0.603026
        13        10        15        16     9        0.000000        0.643754         3    ;  uncertainty k = 0.388267
        13        10        15        16     9      180.000000        0.530074         4    ;  uncertainty k = 0.265179
        13        10        15        18     9        0.000000       -2.145287         1    ;  uncertainty k = 0.588021
        13        10        15        18     9      180.000000        5.417317         2    ;  uncertainty k = 0.631896
        13        10        15        18     9        0.000000        0.509742         3    ;  uncertainty k = 0.299701
        13        10        15        18     9      180.000000       -0.110826         4    ;  uncertainty k = 0.117123
        13        11        12        14     9        0.000000       -0.176395         1    ;  uncertainty k = 0.472651
        13        11        12        14     9      180.000000        6.585549         2    ;  uncertainty k = 0.699552
        13        11        12        14     9        0.000000        0.137583         3    ;  uncertainty k = 0.516395
        13        11        12        14     9      180.000000        1.234797         4    ;  uncertainty k = 0.266521
        13        11        12        31     9        0.000000       -0.003077         1    ;  uncertainty k = 0.385379
        13        11        12        31     9      180.000000        5.349108         2    ;  uncertainty k = 0.633324
        13        11        12        31     9        0.000000        1.187736         3    ;  uncertainty k = 0.211863
        13        11        12        31     9      180.000000        1.390849         4    ;  uncertainty k = 0.168830
        14         9         6        17     9        0.000000        1.730701         1    ;  uncertainty k = 2.367858
        14         9         6        17     9      180.000000        5.099652         2    ;  uncertainty k = 1.474254
        14         9         6        17     9        0.000000        2.211058         3    ;  uncertainty k = 0.355232
        14         9         6        17     9      180.000000        0.176451         4    ;  uncertainty k = 0.460790
        14         9        10        15     9        0.000000       -0.041163         1    ;  uncertainty k = 0.618017
        14         9        10        15     9      180.000000        6.103119         2    ;  uncertainty k = 0.881233
        14         9        10        15     9        0.000000        0.966876         3    ;  uncertainty k = 0.271823
        14         9        10        15     9      180.000000        1.477102         4    ;  uncertainty k = 0.153685
        14        12        11        23     9        0.000000       -0.040801         1    ;  uncertainty k = 0.198357
        14        12        11        23     9      180.000000       10.227299         2    ;  uncertainty k = 0.469679
        14        12        11        23     9        0.000000        1.541703         3    ;  uncertainty k = 0.441155
        14        12        11        23     9      180.000000        1.601974         4    ;  uncertainty k = 0.272234
        15        10        13        32     9        0.000000       -0.397730         1    ;  uncertainty k = 0.706622
        15        10        13        32     9      180.000000        7.620400         2    ;  uncertainty k = 0.403376
        15        10        13        32     9        0.000000        0.928923         3    ;  uncertainty k = 0.245975
        15        10        13        32     9      180.000000        1.200455         4    ;  uncertainty k = 0.140897
        17         1         2        27     9        0.000000       -0.281777         1    ;  uncertainty k = 0.189176
        17         1         2        27     9      180.000000        7.205592         2    ;  uncertainty k = 0.258556
        17         1         2        27     9        0.000000        0.706769         3    ;  uncertainty k = 0.159388
        17         1         2        27     9      180.000000        1.047480         4    ;  uncertainty k = 0.162863
        17         1         3        28     9        0.000000       -0.281777         1    ;  uncertainty k = 0.189176
        17         1         3        28     9      180.000000        7.205592         2    ;  uncertainty k = 0.258556
        17         1         3        28     9        0.000000        0.706769         3    ;  uncertainty k = 0.159388
        17         1         3        28     9      180.000000        1.047480         4    ;  uncertainty k = 0.162863
        17        16        15        18     9        0.000000        0.127245         1    ;  uncertainty k = 1.121679
        17        16        15        18     9      180.000000       11.229615         2    ;  uncertainty k = 0.462697
        17        16        15        18     9        0.000000        1.301861         3    ;  uncertainty k = 0.370929
        17        16        15        18     9      180.000000       -0.501672         4    ;  uncertainty k = 0.406473
        18        15        16        33     9        0.000000        1.557426         1    ;  uncertainty k = 2.536983
        18        15        16        33     9      180.000000        9.275896         2    ;  uncertainty k = 0.599164
        18        15        16        33     9        0.000000        0.736765         3    ;  uncertainty k = 0.510834
        18        15        16        33     9      180.000000       -0.116238         4    ;  uncertainty k = 0.056838
        19         8        20        24     9        0.000000       -2.668938         1    ;  uncertainty k = 0.384871
        19         8        20        24     9      180.000000        0.620708         2    ;  uncertainty k = 0.347716
        19         8        20        24     9        0.000000        1.184371         3    ;  uncertainty k = 0.173270
        19         8        20        24     9      180.000000        0.062792         4    ;  uncertainty k = 0.094623
        19         8        21        37     9        0.000000       -1.038151         1    ;  uncertainty k = 0.260492
        19         8        21        37     9      180.000000       -0.106934         2    ;  uncertainty k = 0.136191
        19         8        21        37     9        0.000000        0.726714         3    ;  uncertainty k = 0.103983
        19         8        21        37     9      180.000000        0.002894         4    ;  uncertainty k = 0.070703
        19         8        21        38     9        0.000000       -1.038151         1    ;  uncertainty k = 0.260492
        19         8        21        38     9      180.000000       -0.106934         2    ;  uncertainty k = 0.136191
        19         8        21        38     9        0.000000        0.726714         3    ;  uncertainty k = 0.103983
        19         8        21        38     9      180.000000        0.002894         4    ;  uncertainty k = 0.070703
        19         8        21        39     9        0.000000       -1.038151         1    ;  uncertainty k = 0.260492
        19         8        21        39     9      180.000000       -0.106934         2    ;  uncertainty k = 0.136191
        19         8        21        39     9        0.000000        0.726714         3    ;  uncertainty k = 0.103983
        19         8        21        39     9      180.000000        0.002894         4    ;  uncertainty k = 0.070703
        20         8        19        34     9        0.000000       -1.047868         1    ;  uncertainty k = 0.319006
        20         8        19        34     9      180.000000       -1.764486         2    ;  uncertainty k = 0.232136
        20         8        19        34     9        0.000000        0.665503         3    ;  uncertainty k = 0.080606
        20         8        19        34     9      180.000000       -0.335483         4    ;  uncertainty k = 0.059636
        20         8        19        35     9        0.000000       -1.047868         1    ;  uncertainty k = 0.319006
        20         8        19        35     9      180.000000       -1.764486         2    ;  uncertainty k = 0.232136
        20         8        19        35     9        0.000000        0.665503         3    ;  uncertainty k = 0.080606
        20         8        19        35     9      180.000000       -0.335483         4    ;  uncertainty k = 0.059636
        20         8        19        36     9        0.000000       -1.047868         1    ;  uncertainty k = 0.319006
        20         8        19        36     9      180.000000       -1.764486         2    ;  uncertainty k = 0.232136
        20         8        19        36     9        0.000000        0.665503         3    ;  uncertainty k = 0.080606
        20         8        19        36     9      180.000000       -0.335483         4    ;  uncertainty k = 0.059636
        20         8        21        37     9        0.000000       -1.047867         1    ;  uncertainty k = 0.319005
        20         8        21        37     9      180.000000       -1.764484         2    ;  uncertainty k = 0.232136
        20         8        21        37     9        0.000000        0.665502         3    ;  uncertainty k = 0.080606
        20         8        21        37     9      180.000000       -0.335483         4    ;  uncertainty k = 0.059636
        20         8        21        38     9        0.000000       -1.047867         1    ;  uncertainty k = 0.319005
        20         8        21        38     9      180.000000       -1.764484         2    ;  uncertainty k = 0.232136
        20         8        21        38     9        0.000000        0.665502         3    ;  uncertainty k = 0.080606
        20         8        21        38     9      180.000000       -0.335483         4    ;  uncertainty k = 0.059636
        20         8        21        39     9        0.000000       -1.047867         1    ;  uncertainty k = 0.319005
        20         8        21        39     9      180.000000       -1.764484         2    ;  uncertainty k = 0.232136
        20         8        21        39     9        0.000000        0.665502         3    ;  uncertainty k = 0.080606
        20         8        21        39     9      180.000000       -0.335483         4    ;  uncertainty k = 0.059636
        20        24        25        26     9        0.000000       -2.250870         1    ;  uncertainty k = 0.755232
        20        24        25        26     9      180.000000       -4.076707         2    ;  uncertainty k = 0.364624
        20        24        25        26     9        0.000000        2.817731         3    ;  uncertainty k = 0.201705
        20        24        25        26     9      180.000000       -0.175512         4    ;  uncertainty k = 0.165093
        20        24        25        45     9        0.000000        0.819070         1    ;  uncertainty k = 0.445246
        20        24        25        45     9      180.000000       -1.747759         2    ;  uncertainty k = 0.358470
        20        24        25        45     9        0.000000        0.945429         3    ;  uncertainty k = 0.057807
        20        24        25        45     9      180.000000       -0.018563         4    ;  uncertainty k = 0.077948
        20        24        25        46     9        0.000000        0.819070         1    ;  uncertainty k = 0.445246
        20        24        25        46     9      180.000000       -1.747759         2    ;  uncertainty k = 0.358470
        20        24        25        46     9        0.000000        0.945429         3    ;  uncertainty k = 0.057807
        20        24        25        46     9      180.000000       -0.018563         4    ;  uncertainty k = 0.077948
        21         8        19        34     9        0.000000       -1.038152         1    ;  uncertainty k = 0.260491
        21         8        19        34     9      180.000000       -0.106934         2    ;  uncertainty k = 0.136192
        21         8        19        34     9        0.000000        0.726714         3    ;  uncertainty k = 0.103983
        21         8        19        34     9      180.000000        0.002894         4    ;  uncertainty k = 0.070703
        21         8        19        35     9        0.000000       -1.038152         1    ;  uncertainty k = 0.260491
        21         8        19        35     9      180.000000       -0.106934         2    ;  uncertainty k = 0.136192
        21         8        19        35     9        0.000000        0.726714         3    ;  uncertainty k = 0.103983
        21         8        19        35     9      180.000000        0.002894         4    ;  uncertainty k = 0.070703
        21         8        19        36     9        0.000000       -1.038152         1    ;  uncertainty k = 0.260491
        21         8        19        36     9      180.000000       -0.106934         2    ;  uncertainty k = 0.136192
        21         8        19        36     9        0.000000        0.726714         3    ;  uncertainty k = 0.103983
        21         8        19        36     9      180.000000        0.002894         4    ;  uncertainty k = 0.070703
        21         8        20        24     9        0.000000       -2.668938         1    ;  uncertainty k = 0.384871
        21         8        20        24     9      180.000000        0.620708         2    ;  uncertainty k = 0.347716
        21         8        20        24     9        0.000000        1.184371         3    ;  uncertainty k = 0.173270
        21         8        20        24     9      180.000000        0.062792         4    ;  uncertainty k = 0.094623
        22        14        12        31     9        0.000000       -0.303249         1    ;  uncertainty k = 0.309929
        22        14        12        31     9      180.000000        9.141891         2    ;  uncertainty k = 0.424482
        22        14        12        31     9        0.000000        0.727216         3    ;  uncertainty k = 0.302195
        22        14        12        31     9      180.000000        1.166580         4    ;  uncertainty k = 0.166019
        23        11        12        31     9        0.000000       -0.142188         1    ;  uncertainty k = 0.328788
        23        11        12        31     9      180.000000        8.846603         2    ;  uncertainty k = 0.339539
        23        11        12        31     9        0.000000        0.777189         3    ;  uncertainty k = 0.267076
        23        11        12        31     9      180.000000        0.906640         4    ;  uncertainty k = 0.199556
        23        11        13        32     9        0.000000       -0.393780         1    ;  uncertainty k = 0.262326
        23        11        13        32     9      180.000000        9.745061         2    ;  uncertainty k = 0.435080
        23        11        13        32     9        0.000000        0.931964         3    ;  uncertainty k = 0.242917
        23        11        13        32     9      180.000000        0.990274         4    ;  uncertainty k = 0.235528
        24        25        26        47     9        0.000000       13.907986         1    ;  uncertainty k = 0.068868
        24        25        26        47     9      180.000000       -3.628600         2    ;  uncertainty k = 0.208084
        24        25        26        47     9        0.000000        1.140049         3    ;  uncertainty k = 0.053802
        24        25        26        47     9      180.000000        0.312334         4    ;  uncertainty k = 0.057507
        26        25        24        43     9        0.000000       -2.083202         1    ;  uncertainty k = 0.668647
        26        25        24        43     9      180.000000        0.443172         2    ;  uncertainty k = 0.468255
        26        25        24        43     9        0.000000        1.706575         3    ;  uncertainty k = 0.125379
        26        25        24        43     9      180.000000       -0.277121         4    ;  uncertainty k = 0.052528
        26        25        24        44     9        0.000000       -2.083202         1    ;  uncertainty k = 0.668647
        26        25        24        44     9      180.000000        0.443172         2    ;  uncertainty k = 0.468255
        26        25        24        44     9        0.000000        1.706575         3    ;  uncertainty k = 0.125379
        26        25        24        44     9      180.000000       -0.277121         4    ;  uncertainty k = 0.052528
        27         2         4        29     9        0.000000       -0.115988         1    ;  uncertainty k = 0.205187
        27         2         4        29     9      180.000000        7.980709         2    ;  uncertainty k = 0.451604
        27         2         4        29     9        0.000000       -0.401343         3    ;  uncertainty k = 0.201529
        27         2         4        29     9      180.000000        0.303090         4    ;  uncertainty k = 0.226055
        28         3         5        30     9        0.000000       -0.115988         1    ;  uncertainty k = 0.205187
        28         3         5        30     9      180.000000        7.980709         2    ;  uncertainty k = 0.451604
        28         3         5        30     9        0.000000       -0.401343         3    ;  uncertainty k = 0.201529
        28         3         5        30     9      180.000000        0.303090         4    ;  uncertainty k = 0.226055
        43        24        25        45     9        0.000000       -0.184160         1    ;  uncertainty k = 0.185662
        43        24        25        45     9      180.000000       -0.113894         2    ;  uncertainty k = 0.131958
        43        24        25        45     9        0.000000        0.244803         3    ;  uncertainty k = 0.075799
        43        24        25        45     9      180.000000        0.006555         4    ;  uncertainty k = 0.122350
        43        24        25        46     9        0.000000       -0.184160         1    ;  uncertainty k = 0.185662
        43        24        25        46     9      180.000000       -0.113894         2    ;  uncertainty k = 0.131958
        43        24        25        46     9        0.000000        0.244803         3    ;  uncertainty k = 0.075799
        43        24        25        46     9      180.000000        0.006555         4    ;  uncertainty k = 0.122350
        44        24        25        45     9        0.000000       -0.184160         1    ;  uncertainty k = 0.185662
        44        24        25        45     9      180.000000       -0.113894         2    ;  uncertainty k = 0.131958
        44        24        25        45     9        0.000000        0.244803         3    ;  uncertainty k = 0.075799
        44        24        25        45     9      180.000000        0.006555         4    ;  uncertainty k = 0.122350
        44        24        25        46     9        0.000000       -0.184160         1    ;  uncertainty k = 0.185662
        44        24        25        46     9      180.000000       -0.113894         2    ;  uncertainty k = 0.131958
        44        24        25        46     9        0.000000        0.244803         3    ;  uncertainty k = 0.075799
        44        24        25        46     9      180.000000        0.006555         4    ;  uncertainty k = 0.122350
        45        25        26        47     9        0.000000       10.973296         1    ;  uncertainty k = 0.119045
        45        25        26        47     9      180.000000       -2.074165         2    ;  uncertainty k = 0.136006
        45        25        26        47     9        0.000000        0.732196         3    ;  uncertainty k = 0.070452
        45        25        26        47     9      180.000000        0.108840         4    ;  uncertainty k = 0.037114
        46        25        26        47     9        0.000000       10.973296         1    ;  uncertainty k = 0.119045
        46        25        26        47     9      180.000000       -2.074165         2    ;  uncertainty k = 0.136006
        46        25        26        47     9        0.000000        0.732196         3    ;  uncertainty k = 0.070452
        46        25        26        47     9      180.000000        0.108840         4    ;  uncertainty k = 0.037114

[ dihedrals ] ; impropers
;       ai        aj        ak        al funct           phase               k        pn
         1         2         3        17     4      180.000000        8.929751         2    ;  uncertainty k = 0.240647
         1         3        17         2     4      180.000000        8.929751         2    ;  uncertainty k = 0.240647
         1        17         2         3     4      180.000000        8.929751         2    ;  uncertainty k = 0.240647
         2         1         4        27     4      180.000000        4.107817         2    ;  uncertainty k = 0.126426
         2         4        27         1     4      180.000000        4.107817         2    ;  uncertainty k = 0.126426
         2        27         1         4     4      180.000000        4.107817         2    ;  uncertainty k = 0.126426
         3         1         5        28     4      180.000000        4.107817         2    ;  uncertainty k = 0.126426
         3         5        28         1     4      180.000000        4.107817         2    ;  uncertainty k = 0.126426
         3        28         1         5     4      180.000000        4.107817         2    ;  uncertainty k = 0.126426
         4         2         7        29     4      180.000000        3.644628         2    ;  uncertainty k = 0.147922
         4         7        29         2     4      180.000000        3.644628         2    ;  uncertainty k = 0.147922
         4        29         2         7     4      180.000000        3.644628         2    ;  uncertainty k = 0.147922
         5         3         7        30     4      180.000000        3.644628         2    ;  uncertainty k = 0.147922
         5         7        30         3     4      180.000000        3.644628         2    ;  uncertainty k = 0.147922
         5        30         3         7     4      180.000000        3.644628         2    ;  uncertainty k = 0.147922
         7         4         5         8     4      180.000000       13.048774         2    ;  uncertainty k = 0.133728
         7         5         8         4     4      180.000000       13.048774         2    ;  uncertainty k = 0.133728
         7         8         4         5     4      180.000000       13.048774         2    ;  uncertainty k = 0.133728
         9         6        10        14     4      180.000000       21.516057         2    ;  uncertainty k = 0.075383
         9        10        14         6     4      180.000000       21.516057         2    ;  uncertainty k = 0.075383
         9        14         6        10     4      180.000000       21.516057         2    ;  uncertainty k = 0.075383
        10         9        13        15     4      180.000000        5.879881         2    ;  uncertainty k = 0.274631
        10        13        15         9     4      180.000000        5.879881         2    ;  uncertainty k = 0.274631
        10        15         9        13     4      180.000000        5.879881         2    ;  uncertainty k = 0.274631
        11        12        13        23     4      180.000000       17.083694         2    ;  uncertainty k = 0.048816
        11        13        23        12     4      180.000000       17.083694         2    ;  uncertainty k = 0.048816
        11        23        12        13     4      180.000000       17.083694         2    ;  uncertainty k = 0.048816
        12        11        14        31     4      180.000000        3.004267         2    ;  uncertainty k = 0.201134
        12        14        31        11     4      180.000000        3.004267         2    ;  uncertainty k = 0.201134
        12        31        11        14     4      180.000000        3.004267         2    ;  uncertainty k = 0.201134
        13        10        11        32     4      180.000000        3.386148         2    ;  uncertainty k = 0.082049
        13        11        32        10     4      180.000000        3.386148         2    ;  uncertainty k = 0.082049
        13        32        10        11     4      180.000000        3.386148         2    ;  uncertainty k = 0.082049
        14         9        12        22     4      180.000000       14.598771         2    ;  uncertainty k = 0.130151
        14        12        22         9     4      180.000000       14.598771         2    ;  uncertainty k = 0.130151
        14        22         9        12     4      180.000000       14.598771         2    ;  uncertainty k = 0.130151
        15        10        16        18     4      180.000000       50.304812         2    ;  uncertainty k = 0.013988
        15        16        18        10     4      180.000000       50.304812         2    ;  uncertainty k = 0.013988
        15        18        10        16     4      180.000000       50.304812         2    ;  uncertainty k = 0.013988
        16        15        17        33     4      180.000000        0.683152         2    ;  uncertainty k = 0.498652
        16        17        33        15     4      180.000000        0.683152         2    ;  uncertainty k = 0.498652
        16        33        15        17     4      180.000000        0.683152         2    ;  uncertainty k = 0.498652
        17         1         6        16     4      180.000000       30.094872         2    ;  uncertainty k = 0.040032
        17         6        16         1     4      180.000000       30.094872         2    ;  uncertainty k = 0.040032
        17        16         1         6     4      180.000000       30.094872         2    ;  uncertainty k = 0.040032

[ pairs ]
;       ai        aj funct
         1         7     1
         1         9     1
         1        15     1
         1        29     1
         1        30     1
         1        33     1
         2         5     1
         2         6     1
         2         8     1
         2        16     1
         2        28     1
         3         4     1
         3         6     1
         3         8     1
         3        16     1
         3        27     1
         4        17     1
         4        19     1
         4        20     1
         4        21     1
         4        30     1
         5        17     1
         5        19     1
         5        20     1
         5        21     1
         5        29     1
         6        12     1
         6        13     1
         6        15     1
         6        22     1
         6        33     1
         7        24     1
         7        27     1
         7        28     1
         7        34     1
         7        35     1
         7        36     1
         7        37     1
         7        38     1
         7        39     1
         8        25     1
         8        29     1
         8        30     1
         8        43     1
         8        44     1
         9        11     1
         9        16     1
         9        18     1
         9        31     1
         9        32     1
         9        40     1
         9        41     1
         9        42     1
        10        12     1
        10        17     1
        10        22     1
        10        23     1
        10        33     1
        11        15     1
        11        22     1
        12        32     1
        12        40     1
        12        41     1
        12        42     1
        13        14     1
        13        16     1
        13        18     1
        13        31     1
        14        15     1
        14        17     1
        14        23     1
        15        32     1
        17        18     1
        17        27     1
        17        28     1
        18        33     1
        19        24     1
        19        37     1
        19        38     1
        19        39     1
        20        26     1
        20        34     1
        20        35     1
        20        36     1
        20        37     1
        20        38     1
        20        39     1
        20        45     1
        20        46     1
        21        24     1
        21        34     1
        21        35     1
        21        36     1
        22        31     1
        23        31     1
        23        32     1
        24        47     1
        26        43     1
        26        44     1
        27        29     1
        28        30     1
        43        45     1
        43        46     1
        44        45     1
        44        46     1
        45        47     1
        46        47     1
