; ITP file created by ByteFF-joint-25, 2026-02-17 09:49:42.157351

[ atomtypes ]
;name           bonded.type        at.num        mass        charge   ptype           sigma         epsilon
 c0bf                                   6      0.0000       0.00000       A     3.31501e-01     4.12880e-01    ;  uncertainty sigma = 0.000017, epsilon = 0.001089
 c1bf                                   6      0.0000       0.00000       A     3.31519e-01     4.13337e-01    ;  uncertainty sigma = 0.000004, epsilon = 0.000604
 c2bf                                   6      0.0000       0.00000       A     3.31519e-01     4.13337e-01    ;  uncertainty sigma = 0.000004, epsilon = 0.000604
 c3bf                                   6      0.0000       0.00000       A     3.31512e-01     4.12851e-01    ;  uncertainty sigma = 0.000012, epsilon = 0.001342
 c4bf                                   6      0.0000       0.00000       A     3.31525e-01     4.13260e-01    ;  uncertainty sigma = 0.000004, epsilon = 0.000521
 c5bf                                   6      0.0000       0.00000       A     3.31525e-01     4.13260e-01    ;  uncertainty sigma = 0.000004, epsilon = 0.000521
 c6bf                                   6      0.0000       0.00000       A     3.31517e-01     4.13350e-01    ;  uncertainty sigma = 0.000007, epsilon = 0.001286
 n7bf                                   7      0.0000       0.00000       A     3.26867e-01     4.92512e-01    ;  uncertainty sigma = 0.000088, epsilon = 0.003430
 c8bf                                   6      0.0000       0.00000       A     3.31538e-01     4.13505e-01    ;  uncertainty sigma = 0.000008, epsilon = 0.001165
 n9bf                                   7      0.0000       0.00000       A     3.38420e-01     3.93559e-01    ;  uncertainty sigma = 0.000016, epsilon = 0.001456
 c10bf                                  6      0.0000       0.00000       A     3.31532e-01     4.13181e-01    ;  uncertainty sigma = 0.000010, epsilon = 0.000993
 c11bf                                  6      0.0000       0.00000       A     3.31547e-01     4.13870e-01    ;  uncertainty sigma = 0.000010, epsilon = 0.000770
 c12bf                                  6      0.0000       0.00000       A     3.31514e-01     4.13380e-01    ;  uncertainty sigma = 0.000006, epsilon = 0.000759
 c13bf                                  6      0.0000       0.00000       A     3.31508e-01     4.13375e-01    ;  uncertainty sigma = 0.000006, epsilon = 0.000570
 c14bf                                  6      0.0000       0.00000       A     3.31523e-01     4.13317e-01    ;  uncertainty sigma = 0.000004, epsilon = 0.000533
 c15bf                                  6      0.0000       0.00000       A     3.31509e-01     4.13389e-01    ;  uncertainty sigma = 0.000003, epsilon = 0.000662
 o16bf                                  8      0.0000       0.00000       A     3.04814e-01     6.11898e-01    ;  uncertainty sigma = 0.000014, epsilon = 0.001624
 c17bf                                  6      0.0000       0.00000       A     3.39805e-01     4.50435e-01    ;  uncertainty sigma = 0.000008, epsilon = 0.001063
 o18bf                                  8      0.0000       0.00000       A     3.15606e-01     3.03725e-01    ;  uncertainty sigma = 0.000042, epsilon = 0.001479
 f19bf                                  9      0.0000       0.00000       A     3.03425e-01     3.47959e-01    ;  uncertainty sigma = 0.000016, epsilon = 0.000686
 c20bf                                  6      0.0000       0.00000       A     3.39764e-01     4.50317e-01    ;  uncertainty sigma = 0.000009, epsilon = 0.000478
 c21bf                                  6      0.0000       0.00000       A     3.39817e-01     4.50473e-01    ;  uncertainty sigma = 0.000008, epsilon = 0.000724
 o22bf                                  8      0.0000       0.00000       A     3.15605e-01     3.03328e-01    ;  uncertainty sigma = 0.000013, epsilon = 0.001183
 c23bf                                  6      0.0000       0.00000       A     3.39791e-01     4.51217e-01    ;  uncertainty sigma = 0.000006, epsilon = 0.000628
 c24bf                                  6      0.0000       0.00000       A     3.39769e-01     4.50933e-01    ;  uncertainty sigma = 0.000007, epsilon = 0.000491
 c25bf                                  6      0.0000       0.00000       A     3.39769e-01     4.50933e-01    ;  uncertainty sigma = 0.000007, epsilon = 0.000491
 h26bf                                  1      0.0000       0.00000       A     2.62567e-01     6.70633e-02    ;  uncertainty sigma = 0.000011, epsilon = 0.000557
 h27bf                                  1      0.0000       0.00000       A     2.62567e-01     6.70633e-02    ;  uncertainty sigma = 0.000011, epsilon = 0.000557
 h28bf                                  1      0.0000       0.00000       A     2.62556e-01     6.70460e-02    ;  uncertainty sigma = 0.000009, epsilon = 0.000514
 h29bf                                  1      0.0000       0.00000       A     2.62556e-01     6.70460e-02    ;  uncertainty sigma = 0.000009, epsilon = 0.000514
 h30bf                                  1      0.0000       0.00000       A     1.10651e-01     4.13761e-02    ;  uncertainty sigma = 0.000058, epsilon = 0.001253
 h31bf                                  1      0.0000       0.00000       A     2.62584e-01     6.68453e-02    ;  uncertainty sigma = 0.000019, epsilon = 0.000520
 h32bf                                  1      0.0000       0.00000       A     2.62557e-01     6.70627e-02    ;  uncertainty sigma = 0.000009, epsilon = 0.000557
 h33bf                                  1      0.0000       0.00000       A     2.62558e-01     6.69934e-02    ;  uncertainty sigma = 0.000012, epsilon = 0.000628
 h34bf                                  1      0.0000       0.00000       A     2.42188e-01     8.69686e-02    ;  uncertainty sigma = 0.000027, epsilon = 0.000775
 h35bf                                  1      0.0000       0.00000       A     2.42188e-01     8.69686e-02    ;  uncertainty sigma = 0.000027, epsilon = 0.000775
 h36bf                                  1      0.0000       0.00000       A     2.42199e-01     8.69463e-02    ;  uncertainty sigma = 0.000016, epsilon = 0.000785
 h37bf                                  1      0.0000       0.00000       A     2.42199e-01     8.69463e-02    ;  uncertainty sigma = 0.000016, epsilon = 0.000785
 h38bf                                  1      0.0000       0.00000       A     2.42186e-01     8.67158e-02    ;  uncertainty sigma = 0.000012, epsilon = 0.000513
 h39bf                                  1      0.0000       0.00000       A     2.42186e-01     8.67158e-02    ;  uncertainty sigma = 0.000012, epsilon = 0.000513
 h40bf                                  1      0.0000       0.00000       A     2.42186e-01     8.67158e-02    ;  uncertainty sigma = 0.000012, epsilon = 0.000513
 h41bf                                  1      0.0000       0.00000       A     2.60036e-01     8.66291e-02    ;  uncertainty sigma = 0.000010, epsilon = 0.000429
 h42bf                                  1      0.0000       0.00000       A     2.60036e-01     8.66291e-02    ;  uncertainty sigma = 0.000010, epsilon = 0.000429
 h43bf                                  1      0.0000       0.00000       A     2.60036e-01     8.66291e-02    ;  uncertainty sigma = 0.000010, epsilon = 0.000429
 h44bf                                  1      0.0000       0.00000       A     2.60036e-01     8.66291e-02    ;  uncertainty sigma = 0.000010, epsilon = 0.000429
 h45bf                                  1      0.0000       0.00000       A     2.60036e-01     8.66291e-02    ;  uncertainty sigma = 0.000010, epsilon = 0.000429
 h46bf                                  1      0.0000       0.00000       A     2.60036e-01     8.66291e-02    ;  uncertainty sigma = 0.000010, epsilon = 0.000429

[ moleculetype ]
;name             nrexcl
 MOL                   3

[ atoms ]
;       nr            type      resi   res      atom      cgnr      charge          mass ; qtot
         1            c0bf         1   UNL        c0         1    -0.15129       12.0110 ; qtot   -0.151
         2            c1bf         1   UNL        c1         2    -0.08798       12.0110 ; qtot   -0.239
         3            c2bf         1   UNL        c2         3    -0.08798       12.0110 ; qtot   -0.327
         4            c3bf         1   UNL        c3         4     0.56635       12.0110 ; qtot    0.239
         5            c4bf         1   UNL        c4         5    -0.12202       12.0110 ; qtot    0.117
         6            c5bf         1   UNL        c5         6    -0.12202       12.0110 ; qtot   -0.005
         7            c6bf         1   UNL        c6         7    -0.08140       12.0110 ; qtot   -0.086
         8            n7bf         1   UNL        n7         8    -0.50680       14.0070 ; qtot   -0.593
         9            c8bf         1   UNL        c8         9     0.71928       12.0110 ; qtot    0.126
        10            n9bf         1   UNL        n9        10    -0.62332       14.0070 ; qtot   -0.497
        11           c10bf         1   UNL       c10        11     0.17920       12.0110 ; qtot   -0.318
        12           c11bf         1   UNL       c11        12    -0.18212       12.0110 ; qtot   -0.500
        13           c12bf         1   UNL       c12        13    -0.09763       12.0110 ; qtot   -0.598
        14           c13bf         1   UNL       c13        14     0.10691       12.0110 ; qtot   -0.491
        15           c14bf         1   UNL       c14        15    -0.12598       12.0110 ; qtot   -0.617
        16           c15bf         1   UNL       c15        16    -0.10135       12.0110 ; qtot   -0.718
        17           o16bf         1   UNL       o16        17    -0.60449       15.9990 ; qtot   -1.323
        18           c17bf         1   UNL       c17        18     0.20894       12.0110 ; qtot   -1.114
        19           o18bf         1   UNL       o18        19    -0.42960       15.9990 ; qtot   -1.543
        20           f19bf         1   UNL       f19        20    -0.13638       18.9980 ; qtot   -1.680
        21           c20bf         1   UNL       c20        21     0.11212       12.0110 ; qtot   -1.568
        22           c21bf         1   UNL       c21        22     0.11347       12.0110 ; qtot   -1.454
        23           o22bf         1   UNL       o22        23    -0.41260       15.9990 ; qtot   -1.867
        24           c23bf         1   UNL       c23        24     0.11736       12.0110 ; qtot   -1.749
        25           c24bf         1   UNL       c24        25    -0.10436       12.0110 ; qtot   -1.854
        26           c25bf         1   UNL       c25        26    -0.10436       12.0110 ; qtot   -1.958
        27           h26bf         1   UNL       h26        27     0.14623        1.0080 ; qtot   -1.812
        28           h27bf         1   UNL       h27        28     0.14623        1.0080 ; qtot   -1.666
        29           h28bf         1   UNL       h28        29     0.14128        1.0080 ; qtot   -1.524
        30           h29bf         1   UNL       h29        30     0.14128        1.0080 ; qtot   -1.383
        31           h30bf         1   UNL       h30        31     0.33625        1.0080 ; qtot   -1.047
        32           h31bf         1   UNL       h31        32     0.17554        1.0080 ; qtot   -0.871
        33           h32bf         1   UNL       h32        33     0.15611        1.0080 ; qtot   -0.715
        34           h33bf         1   UNL       h33        34     0.15981        1.0080 ; qtot   -0.555
        35           h34bf         1   UNL       h34        35     0.04615        1.0080 ; qtot   -0.509
        36           h35bf         1   UNL       h35        36     0.04615        1.0080 ; qtot   -0.463
        37           h36bf         1   UNL       h36        37     0.04522        1.0080 ; qtot   -0.418
        38           h37bf         1   UNL       h37        38     0.04522        1.0080 ; qtot   -0.373
        39           h38bf         1   UNL       h38        39     0.03239        1.0080 ; qtot   -0.340
        40           h39bf         1   UNL       h39        40     0.03239        1.0080 ; qtot   -0.308
        41           h40bf         1   UNL       h40        41     0.03239        1.0080 ; qtot   -0.275
        42           h41bf         1   UNL       h41        42     0.04591        1.0080 ; qtot   -0.229
        43           h42bf         1   UNL       h42        43     0.04591        1.0080 ; qtot   -0.184
        44           h43bf         1   UNL       h43        44     0.04591        1.0080 ; qtot   -0.138
        45           h44bf         1   UNL       h44        45     0.04591        1.0080 ; qtot   -0.092
        46           h45bf         1   UNL       h45        46     0.04591        1.0080 ; qtot   -0.046
        47           h46bf         1   UNL       h46        47     0.04586        1.0080 ; qtot    0.000

[ bonds ]
;       ai        aj funct               r               k
         1         2     1        0.139881   350469.118408    ;  uncertainty r = 0.000059, k = 3.608143
         1         3     1        0.139881   350469.118408    ;  uncertainty r = 0.000059, k = 3.608143
         1         4     1        0.147341   266942.009082    ;  uncertainty r = 0.000109, k = 11.708921
         2         5     1        0.139201   358796.539941    ;  uncertainty r = 0.000040, k = 3.271885
         2        27     1        0.108751   333157.997168    ;  uncertainty r = 0.000045, k = 1.128348
         3         6     1        0.139201   358796.539941    ;  uncertainty r = 0.000040, k = 3.271885
         3        28     1        0.108751   333157.997168    ;  uncertainty r = 0.000045, k = 1.128348
         4         8     1        0.139072   297625.356738    ;  uncertainty r = 0.000069, k = 20.066650
         4        10     1        0.129809   466468.705273    ;  uncertainty r = 0.000049, k = 7.919352
         5         7     1        0.139616   348846.235107    ;  uncertainty r = 0.000030, k = 2.994715
         5        29     1        0.108782   333494.678418    ;  uncertainty r = 0.000014, k = 1.123854
         6         7     1        0.139616   348846.235107    ;  uncertainty r = 0.000030, k = 2.994715
         6        30     1        0.108782   333494.678418    ;  uncertainty r = 0.000014, k = 1.123854
         7        18     1        0.152021   212602.602759    ;  uncertainty r = 0.000098, k = 9.065159
         8         9     1        0.140241   444690.658398    ;  uncertainty r = 0.000073, k = 13.079054
         8        31     1        0.102058   454589.659180    ;  uncertainty r = 0.000027, k = 4.102127
         9        12     1        0.146536   264613.892969    ;  uncertainty r = 0.000056, k = 18.208752
         9        17     1        0.123441   857064.207031    ;  uncertainty r = 0.000099, k = 12.610758
        10        11     1        0.138675   292907.477930    ;  uncertainty r = 0.000100, k = 22.573749
        11        12     1        0.141709   385237.994971    ;  uncertainty r = 0.000054, k = 10.311902
        11        16     1        0.140964   350832.281641    ;  uncertainty r = 0.000032, k = 4.629265
        12        13     1        0.139898   369180.720264    ;  uncertainty r = 0.000058, k = 4.441338
        13        14     1        0.138124   355371.196387    ;  uncertainty r = 0.000071, k = 8.089200
        13        32     1        0.108596   333125.411816    ;  uncertainty r = 0.000025, k = 2.230278
        14        15     1        0.140315   344554.851563    ;  uncertainty r = 0.000060, k = 7.146618
        14        20     1        0.135438   338566.092969    ;  uncertainty r = 0.000088, k = 4.182301
        15        16     1        0.138302   386095.480029    ;  uncertainty r = 0.000059, k = 4.599865
        15        33     1        0.108763   336320.308496    ;  uncertainty r = 0.000023, k = 0.938580
        16        34     1        0.108708   336704.616455    ;  uncertainty r = 0.000019, k = 1.942435
        18        19     1        0.143227   215242.131152    ;  uncertainty r = 0.000108, k = 9.455878
        18        25     1        0.153295   201459.638306    ;  uncertainty r = 0.000069, k = 2.952150
        18        26     1        0.153295   201459.638306    ;  uncertainty r = 0.000069, k = 2.952150
        19        21     1        0.140737   219797.185352    ;  uncertainty r = 0.000247, k = 12.807958
        21        22     1        0.152175   215028.053564    ;  uncertainty r = 0.000149, k = 4.853207
        21        35     1        0.109859   308946.774512    ;  uncertainty r = 0.000026, k = 1.651774
        21        36     1        0.109859   308946.774512    ;  uncertainty r = 0.000026, k = 1.651774
        22        23     1        0.141255   243950.208936    ;  uncertainty r = 0.000096, k = 5.218764
        22        37     1        0.110018   308166.002930    ;  uncertainty r = 0.000015, k = 1.810566
        22        38     1        0.110018   308166.002930    ;  uncertainty r = 0.000015, k = 1.810566
        23        24     1        0.141734   253386.604980    ;  uncertainty r = 0.000032, k = 4.978212
        24        39     1        0.109816   310520.243506    ;  uncertainty r = 0.000016, k = 1.445195
        24        40     1        0.109816   310520.243506    ;  uncertainty r = 0.000016, k = 1.445195
        24        41     1        0.109816   310520.243506    ;  uncertainty r = 0.000016, k = 1.445195
        25        42     1        0.109524   309973.136475    ;  uncertainty r = 0.000007, k = 2.007841
        25        43     1        0.109524   309973.136475    ;  uncertainty r = 0.000007, k = 2.007841
        25        44     1        0.109524   309973.136475    ;  uncertainty r = 0.000007, k = 2.007841
        26        45     1        0.109524   309973.136475    ;  uncertainty r = 0.000007, k = 2.007841
        26        46     1        0.109524   309973.136475    ;  uncertainty r = 0.000007, k = 2.007841
        26        47     1        0.109524   309973.136475    ;  uncertainty r = 0.000007, k = 2.007841

[ angles ]
;       ai        aj        ak funct           theta             cth
         1         2         5     1      121.903709      512.253027    ;  uncertainty theta = 0.001577, k = 0.044246
         1         2        27     1      118.373268      267.332069    ;  uncertainty theta = 0.002929, k = 0.046096
         1         3         6     1      121.903709      512.253027    ;  uncertainty theta = 0.001577, k = 0.044246
         1         3        28     1      118.373268      267.332069    ;  uncertainty theta = 0.002929, k = 0.046096
         1         4         8     1      116.651688      515.746854    ;  uncertainty theta = 0.005062, k = 0.242782
         1         4        10     1      122.676720      446.759726    ;  uncertainty theta = 0.003665, k = 0.151796
         2         1         3     1      120.778732      421.634371    ;  uncertainty theta = 0.002896, k = 0.258077
         2         1         4     1      117.981766      401.223038    ;  uncertainty theta = 0.002686, k = 0.115669
         2         5         7     1      121.714111      514.868027    ;  uncertainty theta = 0.002658, k = 0.069703
         2         5        29     1      119.593933      285.582579    ;  uncertainty theta = 0.001995, k = 0.043223
         3         1         4     1      117.981766      401.223038    ;  uncertainty theta = 0.002686, k = 0.115669
         3         6         7     1      121.714111      514.868027    ;  uncertainty theta = 0.002658, k = 0.069703
         3         6        30     1      119.593933      285.582579    ;  uncertainty theta = 0.001995, k = 0.043223
         4         8         9     1      121.146103      496.022757    ;  uncertainty theta = 0.003149, k = 0.185690
         4         8        31     1      116.804955      331.084697    ;  uncertainty theta = 0.006464, k = 0.239703
         4        10        11     1      115.240494      416.803803    ;  uncertainty theta = 0.006032, k = 0.412033
         5         2        27     1      120.157059      284.576864    ;  uncertainty theta = 0.003265, k = 0.054874
         5         7         6     1      119.631042      456.048403    ;  uncertainty theta = 0.004071, k = 0.073133
         5         7        18     1      119.896133      372.679955    ;  uncertainty theta = 0.005217, k = 0.065850
         6         3        28     1      120.157059      284.576864    ;  uncertainty theta = 0.003265, k = 0.054874
         6         7        18     1      119.896133      372.679955    ;  uncertainty theta = 0.005217, k = 0.065850
         7         5        29     1      118.847252      262.582486    ;  uncertainty theta = 0.001774, k = 0.052210
         7         6        30     1      118.847252      262.582486    ;  uncertainty theta = 0.001774, k = 0.052210
         7        18        19     1      107.128418      549.910304    ;  uncertainty theta = 0.004502, k = 0.191070
         7        18        25     1      109.823936      573.771029    ;  uncertainty theta = 0.002660, k = 0.169887
         7        18        26     1      109.823936      573.771029    ;  uncertainty theta = 0.002660, k = 0.169887
         8         4        10     1      123.678001      679.251102    ;  uncertainty theta = 0.005921, k = 0.135841
         8         9        12     1      108.865524      389.724125    ;  uncertainty theta = 0.007726, k = 0.270666
         8         9        17     1      124.920670      821.839978    ;  uncertainty theta = 0.002935, k = 0.080731
         9         8        31     1      115.307518      352.933673    ;  uncertainty theta = 0.006787, k = 0.132391
         9        12        11     1      117.297508      491.962548    ;  uncertainty theta = 0.006380, k = 0.238429
         9        12        13     1      117.958519      397.006702    ;  uncertainty theta = 0.003688, k = 0.159107
        10        11        12     1      123.497696      569.871194    ;  uncertainty theta = 0.006306, k = 0.143327
        10        11        16     1      119.959946      511.287341    ;  uncertainty theta = 0.010093, k = 0.072566
        11        12        13     1      121.777725      434.510277    ;  uncertainty theta = 0.001655, k = 0.211459
        11        16        15     1      119.036095      531.350028    ;  uncertainty theta = 0.002742, k = 0.145844
        11        16        34     1      120.508751      271.483094    ;  uncertainty theta = 0.003274, k = 0.096144
        12         9        17     1      128.088593      510.903327    ;  uncertainty theta = 0.002915, k = 0.145050
        12        11        16     1      119.134995      405.934603    ;  uncertainty theta = 0.003584, k = 0.232362
        12        13        14     1      118.287460      472.119193    ;  uncertainty theta = 0.002924, k = 0.132692
        12        13        32     1      120.828979      247.606584    ;  uncertainty theta = 0.006275, k = 0.079915
        13        14        15     1      124.230835      391.108523    ;  uncertainty theta = 0.005452, k = 0.270460
        13        14        20     1      118.829163      496.180609    ;  uncertainty theta = 0.001386, k = 0.097184
        14        13        32     1      121.686180      281.539544    ;  uncertainty theta = 0.002737, k = 0.087294
        14        15        16     1      119.123047      505.026663    ;  uncertainty theta = 0.003003, k = 0.103093
        14        15        33     1      120.507347      283.187997    ;  uncertainty theta = 0.002009, k = 0.088220
        15        14        20     1      118.443443      514.743533    ;  uncertainty theta = 0.002026, k = 0.040363
        15        16        34     1      121.081863      277.905135    ;  uncertainty theta = 0.001912, k = 0.023136
        16        15        33     1      120.849144      280.086036    ;  uncertainty theta = 0.001540, k = 0.061482
        18        19        21     1      109.091209      527.851476    ;  uncertainty theta = 0.003187, k = 0.125230
        18        25        42     1      107.443260      380.424850    ;  uncertainty theta = 0.000731, k = 0.026686
        18        25        43     1      107.443260      380.424850    ;  uncertainty theta = 0.000731, k = 0.026686
        18        25        44     1      107.443260      380.424850    ;  uncertainty theta = 0.000731, k = 0.026686
        18        26        45     1      107.443260      380.424850    ;  uncertainty theta = 0.000731, k = 0.026686
        18        26        46     1      107.443260      380.424850    ;  uncertainty theta = 0.000731, k = 0.026686
        18        26        47     1      107.443260      380.424850    ;  uncertainty theta = 0.000731, k = 0.026686
        19        18        25     1      108.080566      565.492601    ;  uncertainty theta = 0.003414, k = 0.047332
        19        18        26     1      108.080566      565.492601    ;  uncertainty theta = 0.003414, k = 0.047332
        19        21        22     1      107.783371      536.973779    ;  uncertainty theta = 0.001471, k = 0.130034
        19        21        35     1      108.284462      434.719298    ;  uncertainty theta = 0.001735, k = 0.060955
        19        21        36     1      108.284462      434.719298    ;  uncertainty theta = 0.001735, k = 0.060955
        21        22        23     1      108.538353      559.666437    ;  uncertainty theta = 0.003067, k = 0.074605
        21        22        37     1      108.949142      410.423516    ;  uncertainty theta = 0.001550, k = 0.039179
        21        22        38     1      108.949142      410.423516    ;  uncertainty theta = 0.001550, k = 0.039179
        22        21        35     1      109.048813      415.915239    ;  uncertainty theta = 0.001869, k = 0.027275
        22        21        36     1      109.048813      415.915239    ;  uncertainty theta = 0.001869, k = 0.027275
        22        23        24     1      108.970947      557.977413    ;  uncertainty theta = 0.001823, k = 0.051993
        23        22        37     1      108.226791      455.210530    ;  uncertainty theta = 0.000636, k = 0.019319
        23        22        38     1      108.226791      455.210530    ;  uncertainty theta = 0.000636, k = 0.019319
        23        24        39     1      109.457130      459.390125    ;  uncertainty theta = 0.001334, k = 0.022661
        23        24        40     1      109.457130      459.390125    ;  uncertainty theta = 0.001334, k = 0.022661
        23        24        41     1      109.457130      459.390125    ;  uncertainty theta = 0.001334, k = 0.022661
        25        18        26     1      110.199844      598.645132    ;  uncertainty theta = 0.003210, k = 0.094367
        35        21        36     1      107.207848      329.988357    ;  uncertainty theta = 0.000786, k = 0.030611
        37        22        38     1      107.311378      327.011177    ;  uncertainty theta = 0.001076, k = 0.057771
        39        24        40     1      108.631973      326.097427    ;  uncertainty theta = 0.002071, k = 0.017577
        39        24        41     1      108.631973      326.097427    ;  uncertainty theta = 0.002071, k = 0.017577
        40        24        41     1      108.631973      326.097427    ;  uncertainty theta = 0.002071, k = 0.017577
        42        25        43     1      105.703171      317.001396    ;  uncertainty theta = 0.000805, k = 0.012889
        42        25        44     1      105.703171      317.001396    ;  uncertainty theta = 0.000805, k = 0.012889
        43        25        44     1      105.703171      317.001396    ;  uncertainty theta = 0.000805, k = 0.012889
        45        26        46     1      105.703171      317.001396    ;  uncertainty theta = 0.000805, k = 0.012889
        45        26        47     1      105.703171      317.001396    ;  uncertainty theta = 0.000805, k = 0.012889
        46        26        47     1      105.703171      317.001396    ;  uncertainty theta = 0.000805, k = 0.012889

[ dihedrals ] ; propers for gromacs 4.5 or higher, use funct 9
;       ai        aj        ak        al funct           phase               k        pn
         1         2         5         7     9        0.000000       -0.137972         1    ;  uncertainty k = 0.240892
         1         2         5         7     9      180.000000       12.506810         2    ;  uncertainty k = 0.239582
         1         2         5         7     9        0.000000       -0.658128         3    ;  uncertainty k = 0.464897
         1         2         5         7     9      180.000000        0.902160         4    ;  uncertainty k = 0.302997
         1         2         5        29     9        0.000000        0.082548         1    ;  uncertainty k = 0.125681
         1         2         5        29     9      180.000000        8.088583         2    ;  uncertainty k = 0.304129
         1         2         5        29     9        0.000000        1.384322         3    ;  uncertainty k = 0.202549
         1         2         5        29     9      180.000000        1.846001         4    ;  uncertainty k = 0.189784
         1         3         6         7     9        0.000000       -0.137972         1    ;  uncertainty k = 0.240892
         1         3         6         7     9      180.000000       12.506810         2    ;  uncertainty k = 0.239582
         1         3         6         7     9        0.000000       -0.658128         3    ;  uncertainty k = 0.464897
         1         3         6         7     9      180.000000        0.902160         4    ;  uncertainty k = 0.302997
         1         3         6        30     9        0.000000        0.082548         1    ;  uncertainty k = 0.125681
         1         3         6        30     9      180.000000        8.088583         2    ;  uncertainty k = 0.304129
         1         3         6        30     9        0.000000        1.384322         3    ;  uncertainty k = 0.202549
         1         3         6        30     9      180.000000        1.846001         4    ;  uncertainty k = 0.189784
         1         4         8         9     9        0.000000        1.136732         1    ;  uncertainty k = 0.845639
         1         4         8         9     9      180.000000        5.378643         2    ;  uncertainty k = 0.753049
         1         4         8         9     9        0.000000        0.529823         3    ;  uncertainty k = 0.332522
         1         4         8         9     9      180.000000       -0.081540         4    ;  uncertainty k = 0.312631
         1         4         8        31     9        0.000000        0.911623         1    ;  uncertainty k = 0.129052
         1         4         8        31     9      180.000000        4.671519         2    ;  uncertainty k = 0.900675
         1         4         8        31     9        0.000000        1.367313         3    ;  uncertainty k = 0.257053
         1         4         8        31     9      180.000000       -0.076850         4    ;  uncertainty k = 0.266316
         1         4        10        11     9        0.000000       -0.591543         1    ;  uncertainty k = 0.847503
         1         4        10        11     9      180.000000       19.152900         2    ;  uncertainty k = 0.448466
         1         4        10        11     9        0.000000        2.703670         3    ;  uncertainty k = 0.469541
         1         4        10        11     9      180.000000        1.363775         4    ;  uncertainty k = 0.339348
         2         1         3         6     9        0.000000        0.048682         1    ;  uncertainty k = 0.141807
         2         1         3         6     9      180.000000       10.954460         2    ;  uncertainty k = 0.300140
         2         1         3         6     9        0.000000       -0.597233         3    ;  uncertainty k = 0.168557
         2         1         3         6     9      180.000000        0.949425         4    ;  uncertainty k = 0.270092
         2         1         3        28     9        0.000000        0.065425         1    ;  uncertainty k = 0.154407
         2         1         3        28     9      180.000000        6.880288         2    ;  uncertainty k = 0.569493
         2         1         3        28     9        0.000000        1.307046         3    ;  uncertainty k = 0.238387
         2         1         3        28     9      180.000000        1.580984         4    ;  uncertainty k = 0.264455
         2         1         4         8     9        0.000000       -0.008826         1    ;  uncertainty k = 0.287079
         2         1         4         8     9      180.000000        4.137706         2    ;  uncertainty k = 0.387656
         2         1         4         8     9        0.000000        0.542373         3    ;  uncertainty k = 0.125061
         2         1         4         8     9      180.000000       -0.117511         4    ;  uncertainty k = 0.038867
         2         1         4        10     9        0.000000        0.839159         1    ;  uncertainty k = 0.666876
         2         1         4        10     9      180.000000        3.960686         2    ;  uncertainty k = 0.292699
         2         1         4        10     9        0.000000        0.569338         3    ;  uncertainty k = 0.172718
         2         1         4        10     9      180.000000       -0.123687         4    ;  uncertainty k = 0.155165
         2         5         7         6     9        0.000000       -0.145264         1    ;  uncertainty k = 0.123410
         2         5         7         6     9      180.000000       11.092261         2    ;  uncertainty k = 0.357007
         2         5         7         6     9        0.000000       -0.336651         3    ;  uncertainty k = 0.219469
         2         5         7         6     9      180.000000        0.892273         4    ;  uncertainty k = 0.306618
         2         5         7        18     9        0.000000        0.240680         1    ;  uncertainty k = 0.312222
         2         5         7        18     9      180.000000        8.154465         2    ;  uncertainty k = 0.484903
         2         5         7        18     9        0.000000        1.457944         3    ;  uncertainty k = 0.375494
         2         5         7        18     9      180.000000        2.001655         4    ;  uncertainty k = 0.252735
         3         1         2         5     9        0.000000        0.048682         1    ;  uncertainty k = 0.141807
         3         1         2         5     9      180.000000       10.954460         2    ;  uncertainty k = 0.300140
         3         1         2         5     9        0.000000       -0.597233         3    ;  uncertainty k = 0.168557
         3         1         2         5     9      180.000000        0.949425         4    ;  uncertainty k = 0.270092
         3         1         2        27     9        0.000000        0.065425         1    ;  uncertainty k = 0.154407
         3         1         2        27     9      180.000000        6.880288         2    ;  uncertainty k = 0.569493
         3         1         2        27     9        0.000000        1.307046         3    ;  uncertainty k = 0.238387
         3         1         2        27     9      180.000000        1.580984         4    ;  uncertainty k = 0.264455
         3         1         4         8     9        0.000000       -0.008826         1    ;  uncertainty k = 0.287079
         3         1         4         8     9      180.000000        4.137706         2    ;  uncertainty k = 0.387656
         3         1         4         8     9        0.000000        0.542373         3    ;  uncertainty k = 0.125061
         3         1         4         8     9      180.000000       -0.117511         4    ;  uncertainty k = 0.038867
         3         1         4        10     9        0.000000        0.839159         1    ;  uncertainty k = 0.666876
         3         1         4        10     9      180.000000        3.960686         2    ;  uncertainty k = 0.292699
         3         1         4        10     9        0.000000        0.569338         3    ;  uncertainty k = 0.172718
         3         1         4        10     9      180.000000       -0.123687         4    ;  uncertainty k = 0.155165
         3         6         7         5     9        0.000000       -0.145264         1    ;  uncertainty k = 0.123410
         3         6         7         5     9      180.000000       11.092261         2    ;  uncertainty k = 0.357007
         3         6         7         5     9        0.000000       -0.336651         3    ;  uncertainty k = 0.219469
         3         6         7         5     9      180.000000        0.892273         4    ;  uncertainty k = 0.306618
         3         6         7        18     9        0.000000        0.240680         1    ;  uncertainty k = 0.312222
         3         6         7        18     9      180.000000        8.154465         2    ;  uncertainty k = 0.484903
         3         6         7        18     9        0.000000        1.457944         3    ;  uncertainty k = 0.375494
         3         6         7        18     9      180.000000        2.001655         4    ;  uncertainty k = 0.252735
         4         1         2         5     9        0.000000        0.106961         1    ;  uncertainty k = 0.188215
         4         1         2         5     9      180.000000        9.123772         2    ;  uncertainty k = 0.637876
         4         1         2         5     9        0.000000        1.352208         3    ;  uncertainty k = 0.302039
         4         1         2         5     9      180.000000        1.692118         4    ;  uncertainty k = 0.192922
         4         1         2        27     9        0.000000       -0.275867         1    ;  uncertainty k = 0.208465
         4         1         2        27     9      180.000000        7.223174         2    ;  uncertainty k = 0.260370
         4         1         2        27     9        0.000000        0.706164         3    ;  uncertainty k = 0.161255
         4         1         2        27     9      180.000000        1.048776         4    ;  uncertainty k = 0.162565
         4         1         3         6     9        0.000000        0.106961         1    ;  uncertainty k = 0.188215
         4         1         3         6     9      180.000000        9.123772         2    ;  uncertainty k = 0.637876
         4         1         3         6     9        0.000000        1.352208         3    ;  uncertainty k = 0.302039
         4         1         3         6     9      180.000000        1.692118         4    ;  uncertainty k = 0.192922
         4         1         3        28     9        0.000000       -0.275867         1    ;  uncertainty k = 0.208465
         4         1         3        28     9      180.000000        7.223174         2    ;  uncertainty k = 0.260370
         4         1         3        28     9        0.000000        0.706164         3    ;  uncertainty k = 0.161255
         4         1         3        28     9      180.000000        1.048776         4    ;  uncertainty k = 0.162565
         4         8         9        12     9        0.000000        0.299155         1    ;  uncertainty k = 1.495457
         4         8         9        12     9      180.000000        4.160270         2    ;  uncertainty k = 1.161048
         4         8         9        12     9        0.000000        0.720048         3    ;  uncertainty k = 0.199569
         4         8         9        12     9      180.000000        0.476898         4    ;  uncertainty k = 0.377921
         4         8         9        17     9        0.000000        0.129291         1    ;  uncertainty k = 1.265350
         4         8         9        17     9      180.000000       11.179134         2    ;  uncertainty k = 0.473647
         4         8         9        17     9        0.000000        1.319942         3    ;  uncertainty k = 0.341337
         4         8         9        17     9      180.000000       -0.489621         4    ;  uncertainty k = 0.399230
         4        10        11        12     9        0.000000        1.795745         1    ;  uncertainty k = 2.236196
         4        10        11        12     9      180.000000        3.972890         2    ;  uncertainty k = 1.621075
         4        10        11        12     9        0.000000        1.402419         3    ;  uncertainty k = 0.568803
         4        10        11        12     9      180.000000        0.447823         4    ;  uncertainty k = 0.482506
         4        10        11        16     9        0.000000        1.403110         1    ;  uncertainty k = 1.780173
         4        10        11        16     9      180.000000        5.574979         2    ;  uncertainty k = 0.974761
         4        10        11        16     9        0.000000        2.281848         3    ;  uncertainty k = 0.367389
         4        10        11        16     9      180.000000        0.378300         4    ;  uncertainty k = 0.419358
         5         7         6        30     9        0.000000        0.157115         1    ;  uncertainty k = 0.127572
         5         7         6        30     9      180.000000        7.368153         2    ;  uncertainty k = 0.503353
         5         7         6        30     9        0.000000        1.391839         3    ;  uncertainty k = 0.334146
         5         7         6        30     9      180.000000        1.683003         4    ;  uncertainty k = 0.192770
         5         7        18        19     9        0.000000        0.061220         1    ;  uncertainty k = 0.475321
         5         7        18        19     9      180.000000        2.947398         2    ;  uncertainty k = 0.383875
         5         7        18        19     9        0.000000        0.716327         3    ;  uncertainty k = 0.119212
         5         7        18        19     9      180.000000        0.275867         4    ;  uncertainty k = 0.023227
         5         7        18        25     9        0.000000       -0.596197         1    ;  uncertainty k = 0.236527
         5         7        18        25     9      180.000000        2.796758         2    ;  uncertainty k = 0.108991
         5         7        18        25     9        0.000000        0.413259         3    ;  uncertainty k = 0.122148
         5         7        18        25     9      180.000000        0.263881         4    ;  uncertainty k = 0.053676
         5         7        18        26     9        0.000000       -0.596197         1    ;  uncertainty k = 0.236527
         5         7        18        26     9      180.000000        2.796758         2    ;  uncertainty k = 0.108991
         5         7        18        26     9        0.000000        0.413259         3    ;  uncertainty k = 0.122148
         5         7        18        26     9      180.000000        0.263881         4    ;  uncertainty k = 0.053676
         6         7         5        29     9        0.000000        0.157115         1    ;  uncertainty k = 0.127572
         6         7         5        29     9      180.000000        7.368153         2    ;  uncertainty k = 0.503353
         6         7         5        29     9        0.000000        1.391839         3    ;  uncertainty k = 0.334146
         6         7         5        29     9      180.000000        1.683003         4    ;  uncertainty k = 0.192770
         6         7        18        19     9        0.000000        0.061220         1    ;  uncertainty k = 0.475321
         6         7        18        19     9      180.000000        2.947398         2    ;  uncertainty k = 0.383875
         6         7        18        19     9        0.000000        0.716327         3    ;  uncertainty k = 0.119212
         6         7        18        19     9      180.000000        0.275867         4    ;  uncertainty k = 0.023227
         6         7        18        25     9        0.000000       -0.596197         1    ;  uncertainty k = 0.236527
         6         7        18        25     9      180.000000        2.796758         2    ;  uncertainty k = 0.108991
         6         7        18        25     9        0.000000        0.413259         3    ;  uncertainty k = 0.122148
         6         7        18        25     9      180.000000        0.263881         4    ;  uncertainty k = 0.053676
         6         7        18        26     9        0.000000       -0.596197         1    ;  uncertainty k = 0.236527
         6         7        18        26     9      180.000000        2.796758         2    ;  uncertainty k = 0.108991
         6         7        18        26     9        0.000000        0.413259         3    ;  uncertainty k = 0.122148
         6         7        18        26     9      180.000000        0.263881         4    ;  uncertainty k = 0.053676
         7         5         2        27     9        0.000000       -0.015469         1    ;  uncertainty k = 0.241530
         7         5         2        27     9      180.000000        7.513495         2    ;  uncertainty k = 0.165703
         7         5         2        27     9        0.000000        1.249207         3    ;  uncertainty k = 0.213066
         7         5         2        27     9      180.000000        1.862390         4    ;  uncertainty k = 0.205088
         7         6         3        28     9        0.000000       -0.015469         1    ;  uncertainty k = 0.241530
         7         6         3        28     9      180.000000        7.513495         2    ;  uncertainty k = 0.165703
         7         6         3        28     9        0.000000        1.249207         3    ;  uncertainty k = 0.213066
         7         6         3        28     9      180.000000        1.862390         4    ;  uncertainty k = 0.205088
         7        18        19        21     9        0.000000       -1.663187         1    ;  uncertainty k = 0.779024
         7        18        19        21     9      180.000000       -1.294758         2    ;  uncertainty k = 0.191208
         7        18        19        21     9        0.000000        1.463742         3    ;  uncertainty k = 0.167740
         7        18        19        21     9      180.000000        0.027706         4    ;  uncertainty k = 0.151805
         7        18        25        42     9        0.000000        0.233474         1    ;  uncertainty k = 0.308407
         7        18        25        42     9      180.000000       -0.195991         2    ;  uncertainty k = 0.107760
         7        18        25        42     9        0.000000        0.740115         3    ;  uncertainty k = 0.107802
         7        18        25        42     9      180.000000        0.014748         4    ;  uncertainty k = 0.044731
         7        18        25        43     9        0.000000        0.233474         1    ;  uncertainty k = 0.308407
         7        18        25        43     9      180.000000       -0.195991         2    ;  uncertainty k = 0.107760
         7        18        25        43     9        0.000000        0.740115         3    ;  uncertainty k = 0.107802
         7        18        25        43     9      180.000000        0.014748         4    ;  uncertainty k = 0.044731
         7        18        25        44     9        0.000000        0.233474         1    ;  uncertainty k = 0.308407
         7        18        25        44     9      180.000000       -0.195991         2    ;  uncertainty k = 0.107760
         7        18        25        44     9        0.000000        0.740115         3    ;  uncertainty k = 0.107802
         7        18        25        44     9      180.000000        0.014748         4    ;  uncertainty k = 0.044731
         7        18        26        45     9        0.000000        0.233474         1    ;  uncertainty k = 0.308407
         7        18        26        45     9      180.000000       -0.195991         2    ;  uncertainty k = 0.107760
         7        18        26        45     9        0.000000        0.740115         3    ;  uncertainty k = 0.107802
         7        18        26        45     9      180.000000        0.014748         4    ;  uncertainty k = 0.044731
         7        18        26        46     9        0.000000        0.233474         1    ;  uncertainty k = 0.308407
         7        18        26        46     9      180.000000       -0.195991         2    ;  uncertainty k = 0.107760
         7        18        26        46     9        0.000000        0.740115         3    ;  uncertainty k = 0.107802
         7        18        26        46     9      180.000000        0.014748         4    ;  uncertainty k = 0.044731
         7        18        26        47     9        0.000000        0.233474         1    ;  uncertainty k = 0.308407
         7        18        26        47     9      180.000000       -0.195991         2    ;  uncertainty k = 0.107760
         7        18        26        47     9        0.000000        0.740115         3    ;  uncertainty k = 0.107802
         7        18        26        47     9      180.000000        0.014748         4    ;  uncertainty k = 0.044731
         8         4        10        11     9        0.000000       -0.806559         1    ;  uncertainty k = 0.443206
         8         4        10        11     9      180.000000       23.923136         2    ;  uncertainty k = 0.167277
         8         4        10        11     9        0.000000        1.746403         3    ;  uncertainty k = 0.254558
         8         4        10        11     9      180.000000        1.448585         4    ;  uncertainty k = 0.448996
         8         9        12        11     9        0.000000       -1.193947         1    ;  uncertainty k = 0.844290
         8         9        12        11     9      180.000000        2.489744         2    ;  uncertainty k = 0.691617
         8         9        12        11     9        0.000000       -0.230392         3    ;  uncertainty k = 0.457346
         8         9        12        11     9      180.000000        0.546888         4    ;  uncertainty k = 0.237414
         8         9        12        13     9        0.000000        0.354863         1    ;  uncertainty k = 0.703755
         8         9        12        13     9      180.000000        2.980996         2    ;  uncertainty k = 0.626008
         8         9        12        13     9        0.000000        0.683030         3    ;  uncertainty k = 0.504922
         8         9        12        13     9      180.000000        0.519282         4    ;  uncertainty k = 0.265179
         9         8         4        10     9        0.000000        0.194989         1    ;  uncertainty k = 0.883244
         9         8         4        10     9      180.000000        7.090510         2    ;  uncertainty k = 0.650036
         9         8         4        10     9        0.000000        0.606196         3    ;  uncertainty k = 0.671788
         9         8         4        10     9      180.000000        0.383227         4    ;  uncertainty k = 0.217670
         9        12        11        10     9        0.000000       -0.183103         1    ;  uncertainty k = 0.431010
         9        12        11        10     9      180.000000        7.575109         2    ;  uncertainty k = 0.899866
         9        12        11        10     9        0.000000        0.995014         3    ;  uncertainty k = 0.432246
         9        12        11        10     9      180.000000        1.496213         4    ;  uncertainty k = 0.209473
         9        12        11        16     9        0.000000        0.070956         1    ;  uncertainty k = 0.503068
         9        12        11        16     9      180.000000        6.603889         2    ;  uncertainty k = 0.839766
         9        12        11        16     9        0.000000        0.947610         3    ;  uncertainty k = 0.295938
         9        12        11        16     9      180.000000        1.416061         4    ;  uncertainty k = 0.193480
         9        12        13        14     9        0.000000        0.264940         1    ;  uncertainty k = 0.246432
         9        12        13        14     9      180.000000        9.013460         2    ;  uncertainty k = 0.640344
         9        12        13        14     9        0.000000        1.402405         3    ;  uncertainty k = 0.236211
         9        12        13        14     9      180.000000        1.807429         4    ;  uncertainty k = 0.213904
         9        12        13        32     9        0.000000       -0.388182         1    ;  uncertainty k = 0.709542
         9        12        13        32     9      180.000000        7.471749         2    ;  uncertainty k = 0.400571
         9        12        13        32     9        0.000000        0.936545         3    ;  uncertainty k = 0.220275
         9        12        13        32     9      180.000000        1.188458         4    ;  uncertainty k = 0.138462
        10         4         8        31     9        0.000000        5.758951         1    ;  uncertainty k = 1.531634
        10         4         8        31     9      180.000000       10.846313         2    ;  uncertainty k = 0.608795
        10         4         8        31     9        0.000000        1.244465         3    ;  uncertainty k = 0.560007
        10         4         8        31     9      180.000000       -0.235958         4    ;  uncertainty k = 0.089808
        10        11        12        13     9        0.000000        0.049404         1    ;  uncertainty k = 0.402186
        10        11        12        13     9      180.000000        8.514214         2    ;  uncertainty k = 0.717812
        10        11        12        13     9        0.000000        0.658246         3    ;  uncertainty k = 0.224700
        10        11        12        13     9      180.000000        1.431737         4    ;  uncertainty k = 0.311120
        10        11        16        15     9        0.000000        0.123440         1    ;  uncertainty k = 0.423849
        10        11        16        15     9      180.000000       10.614146         2    ;  uncertainty k = 0.337063
        10        11        16        15     9        0.000000        0.825517         3    ;  uncertainty k = 0.234227
        10        11        16        15     9      180.000000        1.460557         4    ;  uncertainty k = 0.150432
        10        11        16        34     9        0.000000       -0.532603         1    ;  uncertainty k = 0.678535
        10        11        16        34     9      180.000000        7.650945         2    ;  uncertainty k = 0.346839
        10        11        16        34     9        0.000000        1.209870         3    ;  uncertainty k = 0.365776
        10        11        16        34     9      180.000000        1.221245         4    ;  uncertainty k = 0.215970
        11        12         9        17     9        0.000000       -2.356332         1    ;  uncertainty k = 0.972284
        11        12         9        17     9      180.000000        4.954601         2    ;  uncertainty k = 0.587205
        11        12         9        17     9        0.000000        0.258130         3    ;  uncertainty k = 0.265379
        11        12         9        17     9      180.000000       -0.085012         4    ;  uncertainty k = 0.204924
        11        12        13        14     9        0.000000        0.050628         1    ;  uncertainty k = 0.400124
        11        12        13        14     9      180.000000       11.708075         2    ;  uncertainty k = 0.364862
        11        12        13        14     9        0.000000       -0.278442         3    ;  uncertainty k = 0.242419
        11        12        13        14     9      180.000000        1.120414         4    ;  uncertainty k = 0.208215
        11        12        13        32     9        0.000000        0.041979         1    ;  uncertainty k = 0.435747
        11        12        13        32     9      180.000000        7.322408         2    ;  uncertainty k = 0.745969
        11        12        13        32     9        0.000000        1.367993         3    ;  uncertainty k = 0.302456
        11        12        13        32     9      180.000000        1.425751         4    ;  uncertainty k = 0.115038
        11        16        15        14     9        0.000000       -0.057073         1    ;  uncertainty k = 0.150982
        11        16        15        14     9      180.000000       15.642469         2    ;  uncertainty k = 0.154884
        11        16        15        14     9        0.000000       -0.221494         3    ;  uncertainty k = 0.546048
        11        16        15        14     9      180.000000        0.972330         4    ;  uncertainty k = 0.230431
        11        16        15        33     9        0.000000        0.150632         1    ;  uncertainty k = 0.194734
        11        16        15        33     9      180.000000        9.803223         2    ;  uncertainty k = 0.267504
        11        16        15        33     9        0.000000        1.485879         3    ;  uncertainty k = 0.156851
        11        16        15        33     9      180.000000        1.684062         4    ;  uncertainty k = 0.083206
        12         9         8        31     9        0.000000        2.496625         1    ;  uncertainty k = 2.318093
        12         9         8        31     9      180.000000        5.316572         2    ;  uncertainty k = 0.889294
        12         9         8        31     9        0.000000        1.796288         3    ;  uncertainty k = 0.190470
        12         9         8        31     9      180.000000       -0.030160         4    ;  uncertainty k = 0.088266
        12        11        16        15     9        0.000000        0.299009         1    ;  uncertainty k = 0.441395
        12        11        16        15     9      180.000000        8.793315         2    ;  uncertainty k = 0.480347
        12        11        16        15     9        0.000000       -0.398610         3    ;  uncertainty k = 0.171034
        12        11        16        15     9      180.000000        1.079568         4    ;  uncertainty k = 0.206112
        12        11        16        34     9        0.000000       -0.086630         1    ;  uncertainty k = 0.278042
        12        11        16        34     9      180.000000        5.469933         2    ;  uncertainty k = 0.424641
        12        11        16        34     9        0.000000        1.374953         3    ;  uncertainty k = 0.418872
        12        11        16        34     9      180.000000        1.196756         4    ;  uncertainty k = 0.132430
        12        13        14        15     9        0.000000        0.014579         1    ;  uncertainty k = 0.406167
        12        13        14        15     9      180.000000        8.580802         2    ;  uncertainty k = 0.496281
        12        13        14        15     9        0.000000        0.411247         3    ;  uncertainty k = 0.429260
        12        13        14        15     9      180.000000        1.349937         4    ;  uncertainty k = 0.402939
        12        13        14        20     9        0.000000        0.052939         1    ;  uncertainty k = 0.279629
        12        13        14        20     9      180.000000       14.300883         2    ;  uncertainty k = 0.204149
        12        13        14        20     9        0.000000        1.453227         3    ;  uncertainty k = 0.306011
        12        13        14        20     9      180.000000        1.325491         4    ;  uncertainty k = 0.084420
        13        12         9        17     9        0.000000       -1.911914         1    ;  uncertainty k = 0.521653
        13        12         9        17     9      180.000000        5.458000         2    ;  uncertainty k = 0.685108
        13        12         9        17     9        0.000000        0.514571         3    ;  uncertainty k = 0.325112
        13        12         9        17     9      180.000000       -0.138469         4    ;  uncertainty k = 0.135496
        13        12        11        16     9        0.000000       -0.184790         1    ;  uncertainty k = 0.321483
        13        12        11        16     9      180.000000        7.012766         2    ;  uncertainty k = 0.723268
        13        12        11        16     9        0.000000        0.265658         3    ;  uncertainty k = 0.306559
        13        12        11        16     9      180.000000        1.386198         4    ;  uncertainty k = 0.296940
        13        14        15        16     9        0.000000       -0.037319         1    ;  uncertainty k = 0.446590
        13        14        15        16     9      180.000000        7.190768         2    ;  uncertainty k = 0.575231
        13        14        15        16     9        0.000000        0.100291         3    ;  uncertainty k = 0.435789
        13        14        15        16     9      180.000000        1.245216         4    ;  uncertainty k = 0.285117
        13        14        15        33     9        0.000000       -0.021606         1    ;  uncertainty k = 0.306379
        13        14        15        33     9      180.000000        5.222008         2    ;  uncertainty k = 0.775373
        13        14        15        33     9        0.000000        1.141408         3    ;  uncertainty k = 0.190575
        13        14        15        33     9      180.000000        1.375914         4    ;  uncertainty k = 0.167968
        14        15        16        34     9        0.000000       -0.011414         1    ;  uncertainty k = 0.293284
        14        15        16        34     9      180.000000        9.463462         2    ;  uncertainty k = 0.336797
        14        15        16        34     9        0.000000        1.362115         3    ;  uncertainty k = 0.433381
        14        15        16        34     9      180.000000        1.933407         4    ;  uncertainty k = 0.228211
        15        14        13        32     9        0.000000        0.166988         1    ;  uncertainty k = 0.092153
        15        14        13        32     9      180.000000        6.142412         2    ;  uncertainty k = 0.526407
        15        14        13        32     9        0.000000        1.428280         3    ;  uncertainty k = 0.294530
        15        14        13        32     9      180.000000        1.629598         4    ;  uncertainty k = 0.083727
        16        15        14        20     9        0.000000       -0.122893         1    ;  uncertainty k = 0.197616
        16        15        14        20     9      180.000000       10.863911         2    ;  uncertainty k = 0.566593
        16        15        14        20     9        0.000000        1.520436         3    ;  uncertainty k = 0.425418
        16        15        14        20     9      180.000000        1.527116         4    ;  uncertainty k = 0.291310
        17         9         8        31     9        0.000000        1.499195         1    ;  uncertainty k = 2.518561
        17         9         8        31     9      180.000000        9.178552         2    ;  uncertainty k = 0.611520
        17         9         8        31     9        0.000000        0.741428         3    ;  uncertainty k = 0.511189
        17         9         8        31     9      180.000000       -0.114753         4    ;  uncertainty k = 0.058823
        18         7         5        29     9        0.000000       -0.052419         1    ;  uncertainty k = 0.465931
        18         7         5        29     9      180.000000        7.665529         2    ;  uncertainty k = 0.232670
        18         7         5        29     9        0.000000        0.593496         3    ;  uncertainty k = 0.201102
        18         7         5        29     9      180.000000        0.986892         4    ;  uncertainty k = 0.083204
        18         7         6        30     9        0.000000       -0.052419         1    ;  uncertainty k = 0.465931
        18         7         6        30     9      180.000000        7.665529         2    ;  uncertainty k = 0.232670
        18         7         6        30     9        0.000000        0.593496         3    ;  uncertainty k = 0.201102
        18         7         6        30     9      180.000000        0.986892         4    ;  uncertainty k = 0.083204
        18        19        21        22     9        0.000000       -2.938708         1    ;  uncertainty k = 1.127490
        18        19        21        22     9      180.000000       -1.247845         2    ;  uncertainty k = 0.536483
        18        19        21        22     9        0.000000        0.885675         3    ;  uncertainty k = 0.287524
        18        19        21        22     9      180.000000        0.067617         4    ;  uncertainty k = 0.095697
        18        19        21        35     9        0.000000       -0.014889         1    ;  uncertainty k = 0.220596
        18        19        21        35     9      180.000000       -1.703934         2    ;  uncertainty k = 0.442792
        18        19        21        35     9        0.000000        0.871160         3    ;  uncertainty k = 0.093539
        18        19        21        35     9      180.000000        0.044980         4    ;  uncertainty k = 0.081794
        18        19        21        36     9        0.000000       -0.014889         1    ;  uncertainty k = 0.220596
        18        19        21        36     9      180.000000       -1.703934         2    ;  uncertainty k = 0.442792
        18        19        21        36     9        0.000000        0.871160         3    ;  uncertainty k = 0.093539
        18        19        21        36     9      180.000000        0.044980         4    ;  uncertainty k = 0.081794
        19        18        25        42     9        0.000000       -1.044299         1    ;  uncertainty k = 0.321388
        19        18        25        42     9      180.000000       -1.774549         2    ;  uncertainty k = 0.243146
        19        18        25        42     9        0.000000        0.666456         3    ;  uncertainty k = 0.077920
        19        18        25        42     9      180.000000       -0.333412         4    ;  uncertainty k = 0.059864
        19        18        25        43     9        0.000000       -1.044299         1    ;  uncertainty k = 0.321388
        19        18        25        43     9      180.000000       -1.774549         2    ;  uncertainty k = 0.243146
        19        18        25        43     9        0.000000        0.666456         3    ;  uncertainty k = 0.077920
        19        18        25        43     9      180.000000       -0.333412         4    ;  uncertainty k = 0.059864
        19        18        25        44     9        0.000000       -1.044299         1    ;  uncertainty k = 0.321388
        19        18        25        44     9      180.000000       -1.774549         2    ;  uncertainty k = 0.243146
        19        18        25        44     9        0.000000        0.666456         3    ;  uncertainty k = 0.077920
        19        18        25        44     9      180.000000       -0.333412         4    ;  uncertainty k = 0.059864
        19        18        26        45     9        0.000000       -1.044299         1    ;  uncertainty k = 0.321388
        19        18        26        45     9      180.000000       -1.774549         2    ;  uncertainty k = 0.243146
        19        18        26        45     9        0.000000        0.666456         3    ;  uncertainty k = 0.077920
        19        18        26        45     9      180.000000       -0.333412         4    ;  uncertainty k = 0.059864
        19        18        26        46     9        0.000000       -1.044299         1    ;  uncertainty k = 0.321388
        19        18        26        46     9      180.000000       -1.774549         2    ;  uncertainty k = 0.243146
        19        18        26        46     9        0.000000        0.666456         3    ;  uncertainty k = 0.077920
        19        18        26        46     9      180.000000       -0.333412         4    ;  uncertainty k = 0.059864
        19        18        26        47     9        0.000000       -1.044299         1    ;  uncertainty k = 0.321388
        19        18        26        47     9      180.000000       -1.774549         2    ;  uncertainty k = 0.243146
        19        18        26        47     9        0.000000        0.666456         3    ;  uncertainty k = 0.077920
        19        18        26        47     9      180.000000       -0.333412         4    ;  uncertainty k = 0.059864
        19        21        22        23     9        0.000000       -1.739246         1    ;  uncertainty k = 0.546387
        19        21        22        23     9      180.000000       -5.470249         2    ;  uncertainty k = 0.638583
        19        21        22        23     9        0.000000        2.830917         3    ;  uncertainty k = 0.351346
        19        21        22        23     9      180.000000        0.144748         4    ;  uncertainty k = 0.211842
        19        21        22        37     9        0.000000        0.407199         1    ;  uncertainty k = 0.514779
        19        21        22        37     9      180.000000       -1.392744         2    ;  uncertainty k = 0.378965
        19        21        22        37     9        0.000000        0.992166         3    ;  uncertainty k = 0.124582
        19        21        22        37     9      180.000000       -0.040977         4    ;  uncertainty k = 0.068083
        19        21        22        38     9        0.000000        0.407199         1    ;  uncertainty k = 0.514779
        19        21        22        38     9      180.000000       -1.392744         2    ;  uncertainty k = 0.378965
        19        21        22        38     9        0.000000        0.992166         3    ;  uncertainty k = 0.124582
        19        21        22        38     9      180.000000       -0.040977         4    ;  uncertainty k = 0.068083
        20        14        13        32     9        0.000000       -0.388026         1    ;  uncertainty k = 0.271818
        20        14        13        32     9      180.000000        9.843061         2    ;  uncertainty k = 0.427435
        20        14        13        32     9        0.000000        0.955047         3    ;  uncertainty k = 0.236449
        20        14        13        32     9      180.000000        1.015023         4    ;  uncertainty k = 0.197015
        20        14        15        33     9        0.000000       -0.164895         1    ;  uncertainty k = 0.458056
        20        14        15        33     9      180.000000        8.717669         2    ;  uncertainty k = 0.312533
        20        14        15        33     9        0.000000        0.777601         3    ;  uncertainty k = 0.256890
        20        14        15        33     9      180.000000        0.897535         4    ;  uncertainty k = 0.157117
        21        19        18        25     9        0.000000       -2.615259         1    ;  uncertainty k = 0.307102
        21        19        18        25     9      180.000000        0.590586         2    ;  uncertainty k = 0.308337
        21        19        18        25     9        0.000000        1.150392         3    ;  uncertainty k = 0.137139
        21        19        18        25     9      180.000000        0.059420         4    ;  uncertainty k = 0.101658
        21        19        18        26     9        0.000000       -2.615259         1    ;  uncertainty k = 0.307102
        21        19        18        26     9      180.000000        0.590586         2    ;  uncertainty k = 0.308337
        21        19        18        26     9        0.000000        1.150392         3    ;  uncertainty k = 0.137139
        21        19        18        26     9      180.000000        0.059420         4    ;  uncertainty k = 0.101658
        21        22        23        24     9        0.000000       -2.241206         1    ;  uncertainty k = 0.499309
        21        22        23        24     9      180.000000       -1.072521         2    ;  uncertainty k = 0.150588
        21        22        23        24     9        0.000000        1.164913         3    ;  uncertainty k = 0.204980
        21        22        23        24     9      180.000000        0.089894         4    ;  uncertainty k = 0.066987
        22        23        24        39     9        0.000000       -1.434204         1    ;  uncertainty k = 0.386104
        22        23        24        39     9      180.000000       -1.929653         2    ;  uncertainty k = 0.204746
        22        23        24        39     9        0.000000        1.187305         3    ;  uncertainty k = 0.050012
        22        23        24        39     9      180.000000        0.013010         4    ;  uncertainty k = 0.026160
        22        23        24        40     9        0.000000       -1.434204         1    ;  uncertainty k = 0.386104
        22        23        24        40     9      180.000000       -1.929653         2    ;  uncertainty k = 0.204746
        22        23        24        40     9        0.000000        1.187305         3    ;  uncertainty k = 0.050012
        22        23        24        40     9      180.000000        0.013010         4    ;  uncertainty k = 0.026160
        22        23        24        41     9        0.000000       -1.434204         1    ;  uncertainty k = 0.386104
        22        23        24        41     9      180.000000       -1.929653         2    ;  uncertainty k = 0.204746
        22        23        24        41     9        0.000000        1.187305         3    ;  uncertainty k = 0.050012
        22        23        24        41     9      180.000000        0.013010         4    ;  uncertainty k = 0.026160
        23        22        21        35     9        0.000000        0.169083         1    ;  uncertainty k = 0.512863
        23        22        21        35     9      180.000000       -1.264686         2    ;  uncertainty k = 0.331574
        23        22        21        35     9        0.000000        1.097251         3    ;  uncertainty k = 0.111150
        23        22        21        35     9      180.000000       -0.060671         4    ;  uncertainty k = 0.079804
        23        22        21        36     9        0.000000        0.169083         1    ;  uncertainty k = 0.512863
        23        22        21        36     9      180.000000       -1.264686         2    ;  uncertainty k = 0.331574
        23        22        21        36     9        0.000000        1.097251         3    ;  uncertainty k = 0.111150
        23        22        21        36     9      180.000000       -0.060671         4    ;  uncertainty k = 0.079804
        24        23        22        37     9        0.000000       -1.120856         1    ;  uncertainty k = 0.294642
        24        23        22        37     9      180.000000       -1.492056         2    ;  uncertainty k = 0.162082
        24        23        22        37     9        0.000000        1.138851         3    ;  uncertainty k = 0.126883
        24        23        22        37     9      180.000000        0.064757         4    ;  uncertainty k = 0.071540
        24        23        22        38     9        0.000000       -1.120856         1    ;  uncertainty k = 0.294642
        24        23        22        38     9      180.000000       -1.492056         2    ;  uncertainty k = 0.162082
        24        23        22        38     9        0.000000        1.138851         3    ;  uncertainty k = 0.126883
        24        23        22        38     9      180.000000        0.064757         4    ;  uncertainty k = 0.071540
        25        18        26        45     9        0.000000       -1.038153         1    ;  uncertainty k = 0.260492
        25        18        26        45     9      180.000000       -0.106933         2    ;  uncertainty k = 0.136192
        25        18        26        45     9        0.000000        0.726714         3    ;  uncertainty k = 0.103984
        25        18        26        45     9      180.000000        0.002894         4    ;  uncertainty k = 0.070703
        25        18        26        46     9        0.000000       -1.038153         1    ;  uncertainty k = 0.260492
        25        18        26        46     9      180.000000       -0.106933         2    ;  uncertainty k = 0.136192
        25        18        26        46     9        0.000000        0.726714         3    ;  uncertainty k = 0.103984
        25        18        26        46     9      180.000000        0.002894         4    ;  uncertainty k = 0.070703
        25        18        26        47     9        0.000000       -1.038153         1    ;  uncertainty k = 0.260492
        25        18        26        47     9      180.000000       -0.106933         2    ;  uncertainty k = 0.136192
        25        18        26        47     9        0.000000        0.726714         3    ;  uncertainty k = 0.103984
        25        18        26        47     9      180.000000        0.002894         4    ;  uncertainty k = 0.070703
        26        18        25        42     9        0.000000       -1.038153         1    ;  uncertainty k = 0.260492
        26        18        25        42     9      180.000000       -0.106933         2    ;  uncertainty k = 0.136192
        26        18        25        42     9        0.000000        0.726714         3    ;  uncertainty k = 0.103984
        26        18        25        42     9      180.000000        0.002894         4    ;  uncertainty k = 0.070703
        26        18        25        43     9        0.000000       -1.038153         1    ;  uncertainty k = 0.260492
        26        18        25        43     9      180.000000       -0.106933         2    ;  uncertainty k = 0.136192
        26        18        25        43     9        0.000000        0.726714         3    ;  uncertainty k = 0.103984
        26        18        25        43     9      180.000000        0.002894         4    ;  uncertainty k = 0.070703
        26        18        25        44     9        0.000000       -1.038153         1    ;  uncertainty k = 0.260492
        26        18        25        44     9      180.000000       -0.106933         2    ;  uncertainty k = 0.136192
        26        18        25        44     9        0.000000        0.726714         3    ;  uncertainty k = 0.103984
        26        18        25        44     9      180.000000        0.002894         4    ;  uncertainty k = 0.070703
        27         2         5        29     9        0.000000       -0.115988         1    ;  uncertainty k = 0.205187
        27         2         5        29     9      180.000000        7.980707         2    ;  uncertainty k = 0.451603
        27         2         5        29     9        0.000000       -0.401343         3    ;  uncertainty k = 0.201530
        27         2         5        29     9      180.000000        0.303090         4    ;  uncertainty k = 0.226056
        28         3         6        30     9        0.000000       -0.115988         1    ;  uncertainty k = 0.205187
        28         3         6        30     9      180.000000        7.980707         2    ;  uncertainty k = 0.451603
        28         3         6        30     9        0.000000       -0.401343         3    ;  uncertainty k = 0.201530
        28         3         6        30     9      180.000000        0.303090         4    ;  uncertainty k = 0.226056
        33        15        16        34     9        0.000000       -0.169011         1    ;  uncertainty k = 0.251724
        33        15        16        34     9      180.000000        8.399341         2    ;  uncertainty k = 0.338025
        33        15        16        34     9        0.000000       -0.223565         3    ;  uncertainty k = 0.293097
        33        15        16        34     9      180.000000        0.239211         4    ;  uncertainty k = 0.177227
        35        21        22        37     9        0.000000        0.000845         1    ;  uncertainty k = 0.296808
        35        21        22        37     9      180.000000       -0.327216         2    ;  uncertainty k = 0.110253
        35        21        22        37     9        0.000000        0.223742         3    ;  uncertainty k = 0.067379
        35        21        22        37     9      180.000000        0.028856         4    ;  uncertainty k = 0.083764
        35        21        22        38     9        0.000000        0.000845         1    ;  uncertainty k = 0.296808
        35        21        22        38     9      180.000000       -0.327216         2    ;  uncertainty k = 0.110253
        35        21        22        38     9        0.000000        0.223742         3    ;  uncertainty k = 0.067379
        35        21        22        38     9      180.000000        0.028856         4    ;  uncertainty k = 0.083764
        36        21        22        37     9        0.000000        0.000845         1    ;  uncertainty k = 0.296808
        36        21        22        37     9      180.000000       -0.327216         2    ;  uncertainty k = 0.110253
        36        21        22        37     9        0.000000        0.223742         3    ;  uncertainty k = 0.067379
        36        21        22        37     9      180.000000        0.028856         4    ;  uncertainty k = 0.083764
        36        21        22        38     9        0.000000        0.000845         1    ;  uncertainty k = 0.296808
        36        21        22        38     9      180.000000       -0.327216         2    ;  uncertainty k = 0.110253
        36        21        22        38     9        0.000000        0.223742         3    ;  uncertainty k = 0.067379
        36        21        22        38     9      180.000000        0.028856         4    ;  uncertainty k = 0.083764

[ dihedrals ] ; impropers
;       ai        aj        ak        al funct           phase               k        pn
         1         2         3         4     4      180.000000        8.897300         2    ;  uncertainty k = 0.236668
         1         3         4         2     4      180.000000        8.897300         2    ;  uncertainty k = 0.236668
         1         4         2         3     4      180.000000        8.897300         2    ;  uncertainty k = 0.236668
         2         1         5        27     4      180.000000        4.107818         2    ;  uncertainty k = 0.126426
         2         5        27         1     4      180.000000        4.107818         2    ;  uncertainty k = 0.126426
         2        27         1         5     4      180.000000        4.107818         2    ;  uncertainty k = 0.126426
         3         1         6        28     4      180.000000        4.107818         2    ;  uncertainty k = 0.126426
         3         6        28         1     4      180.000000        4.107818         2    ;  uncertainty k = 0.126426
         3        28         1         6     4      180.000000        4.107818         2    ;  uncertainty k = 0.126426
         4         1         8        10     4      180.000000       30.410742         2    ;  uncertainty k = 0.037194
         4         8        10         1     4      180.000000       30.410742         2    ;  uncertainty k = 0.037194
         4        10         1         8     4      180.000000       30.410742         2    ;  uncertainty k = 0.037194
         5         2         7        29     4      180.000000        3.644625         2    ;  uncertainty k = 0.147920
         5         7        29         2     4      180.000000        3.644625         2    ;  uncertainty k = 0.147920
         5        29         2         7     4      180.000000        3.644625         2    ;  uncertainty k = 0.147920
         6         3         7        30     4      180.000000        3.644625         2    ;  uncertainty k = 0.147920
         6         7        30         3     4      180.000000        3.644625         2    ;  uncertainty k = 0.147920
         6        30         3         7     4      180.000000        3.644625         2    ;  uncertainty k = 0.147920
         7         5         6        18     4      180.000000       13.048774         2    ;  uncertainty k = 0.133728
         7         6        18         5     4      180.000000       13.048774         2    ;  uncertainty k = 0.133728
         7        18         5         6     4      180.000000       13.048774         2    ;  uncertainty k = 0.133728
         8         4         9        31     4      180.000000        0.721307         2    ;  uncertainty k = 0.517020
         8         9        31         4     4      180.000000        0.721307         2    ;  uncertainty k = 0.517020
         8        31         4         9     4      180.000000        0.721307         2    ;  uncertainty k = 0.517020
         9         8        12        17     4      180.000000       50.258063         2    ;  uncertainty k = 0.010206
         9        12        17         8     4      180.000000       50.258063         2    ;  uncertainty k = 0.010206
         9        17         8        12     4      180.000000       50.258063         2    ;  uncertainty k = 0.010206
        11        10        12        16     4      180.000000       21.108002         2    ;  uncertainty k = 0.036468
        11        12        16        10     4      180.000000       21.108002         2    ;  uncertainty k = 0.036468
        11        16        10        12     4      180.000000       21.108002         2    ;  uncertainty k = 0.036468
        12         9        11        13     4      180.000000        5.434745         2    ;  uncertainty k = 0.365733
        12        11        13         9     4      180.000000        5.434745         2    ;  uncertainty k = 0.365733
        12        13         9        11     4      180.000000        5.434745         2    ;  uncertainty k = 0.365733
        13        12        14        32     4      180.000000        3.847248         2    ;  uncertainty k = 0.056781
        13        14        32        12     4      180.000000        3.847248         2    ;  uncertainty k = 0.056781
        13        32        12        14     4      180.000000        3.847248         2    ;  uncertainty k = 0.056781
        14        13        15        20     4      180.000000       16.721155         2    ;  uncertainty k = 0.059128
        14        15        20        13     4      180.000000       16.721155         2    ;  uncertainty k = 0.059128
        14        20        13        15     4      180.000000       16.721155         2    ;  uncertainty k = 0.059128
        15        14        16        33     4      180.000000        3.605822         2    ;  uncertainty k = 0.146573
        15        16        33        14     4      180.000000        3.605822         2    ;  uncertainty k = 0.146573
        15        33        14        16     4      180.000000        3.605822         2    ;  uncertainty k = 0.146573
        16        11        15        34     4      180.000000        3.056720         2    ;  uncertainty k = 0.286145
        16        15        34        11     4      180.000000        3.056720         2    ;  uncertainty k = 0.286145
        16        34        11        15     4      180.000000        3.056720         2    ;  uncertainty k = 0.286145

[ pairs ]
;       ai        aj funct
         1         7     1
         1         9     1
         1        11     1
         1        29     1
         1        30     1
         1        31     1
         2         6     1
         2         8     1
         2        10     1
         2        18     1
         2        28     1
         3         5     1
         3         8     1
         3        10     1
         3        18     1
         3        27     1
         4         5     1
         4         6     1
         4        12     1
         4        16     1
         4        17     1
         4        27     1
         4        28     1
         5        19     1
         5        25     1
         5        26     1
         5        30     1
         6        19     1
         6        25     1
         6        26     1
         6        29     1
         7        21     1
         7        27     1
         7        28     1
         7        42     1
         7        43     1
         7        44     1
         7        45     1
         7        46     1
         7        47     1
         8        11     1
         8        13     1
         9        10     1
         9        14     1
         9        16     1
         9        32     1
        10        13     1
        10        15     1
        10        31     1
        10        34     1
        11        14     1
        11        17     1
        11        32     1
        11        33     1
        12        15     1
        12        20     1
        12        31     1
        12        34     1
        13        16     1
        13        17     1
        13        33     1
        14        34     1
        15        32     1
        16        20     1
        17        31     1
        18        22     1
        18        29     1
        18        30     1
        18        35     1
        18        36     1
        19        23     1
        19        37     1
        19        38     1
        19        42     1
        19        43     1
        19        44     1
        19        45     1
        19        46     1
        19        47     1
        20        32     1
        20        33     1
        21        24     1
        21        25     1
        21        26     1
        22        39     1
        22        40     1
        22        41     1
        23        35     1
        23        36     1
        24        37     1
        24        38     1
        25        45     1
        25        46     1
        25        47     1
        26        42     1
        26        43     1
        26        44     1
        27        29     1
        28        30     1
        33        34     1
        35        37     1
        35        38     1
        36        37     1
        36        38     1
