; ITP file created by ByteFF-joint-25, 2026-02-17 09:52:24.942359

[ atomtypes ]
;name           bonded.type        at.num        mass        charge   ptype           sigma         epsilon
 c0bf                                   6      0.0000       0.00000       A     3.31530e-01     4.13047e-01    ;  uncertainty sigma = 0.000016, epsilon = 0.001170
 n1bf                                   7      0.0000       0.00000       A     3.38400e-01     3.93111e-01    ;  uncertainty sigma = 0.000028, epsilon = 0.001386
 c2bf                                   6      0.0000       0.00000       A     3.31524e-01     4.13215e-01    ;  uncertainty sigma = 0.000006, epsilon = 0.000809
 c3bf                                   6      0.0000       0.00000       A     3.31533e-01     4.13945e-01    ;  uncertainty sigma = 0.000009, epsilon = 0.001966
 c4bf                                   6      0.0000       0.00000       A     3.31514e-01     4.13356e-01    ;  uncertainty sigma = 0.000010, epsilon = 0.000971
 c5bf                                   6      0.0000       0.00000       A     3.31539e-01     4.13162e-01    ;  uncertainty sigma = 0.000008, epsilon = 0.000754
 c6bf                                   6      0.0000       0.00000       A     3.31542e-01     4.13185e-01    ;  uncertainty sigma = 0.000010, epsilon = 0.001170
 n7bf                                   7      0.0000       0.00000       A     3.26969e-01     4.91737e-01    ;  uncertainty sigma = 0.000024, epsilon = 0.004628
 c8bf                                   6      0.0000       0.00000       A     3.31532e-01     4.13485e-01    ;  uncertainty sigma = 0.000007, epsilon = 0.001145
 n9bf                                   7      0.0000       0.00000       A     3.38466e-01     3.93551e-01    ;  uncertainty sigma = 0.000018, epsilon = 0.001299
 c10bf                                  6      0.0000       0.00000       A     3.31528e-01     4.13223e-01    ;  uncertainty sigma = 0.000010, epsilon = 0.001046
 c11bf                                  6      0.0000       0.00000       A     3.31547e-01     4.13870e-01    ;  uncertainty sigma = 0.000010, epsilon = 0.000770
 c12bf                                  6      0.0000       0.00000       A     3.31514e-01     4.13380e-01    ;  uncertainty sigma = 0.000006, epsilon = 0.000759
 c13bf                                  6      0.0000       0.00000       A     3.31508e-01     4.13375e-01    ;  uncertainty sigma = 0.000006, epsilon = 0.000570
 c14bf                                  6      0.0000       0.00000       A     3.31523e-01     4.13317e-01    ;  uncertainty sigma = 0.000004, epsilon = 0.000533
 c15bf                                  6      0.0000       0.00000       A     3.31509e-01     4.13389e-01    ;  uncertainty sigma = 0.000003, epsilon = 0.000662
 o16bf                                  8      0.0000       0.00000       A     3.04814e-01     6.11898e-01    ;  uncertainty sigma = 0.000014, epsilon = 0.001624
 c17bf                                  6      0.0000       0.00000       A     3.39760e-01     4.50539e-01    ;  uncertainty sigma = 0.000026, epsilon = 0.000905
 o18bf                                  8      0.0000       0.00000       A     3.24288e-01     3.89722e-01    ;  uncertainty sigma = 0.000036, epsilon = 0.001617
 f19bf                                  9      0.0000       0.00000       A     3.03425e-01     3.47959e-01    ;  uncertainty sigma = 0.000016, epsilon = 0.000686
 c20bf                                  6      0.0000       0.00000       A     3.39762e-01     4.50754e-01    ;  uncertainty sigma = 0.000005, epsilon = 0.000458
 c21bf                                  6      0.0000       0.00000       A     3.39762e-01     4.50754e-01    ;  uncertainty sigma = 0.000005, epsilon = 0.000458
 h22bf                                  1      0.0000       0.00000       A     2.62581e-01     6.70190e-02    ;  uncertainty sigma = 0.000015, epsilon = 0.000654
 h23bf                                  1      0.0000       0.00000       A     2.53599e-01     6.69544e-02    ;  uncertainty sigma = 0.000025, epsilon = 0.000581
 h24bf                                  1      0.0000       0.00000       A     2.62552e-01     6.70584e-02    ;  uncertainty sigma = 0.000010, epsilon = 0.000617
 h25bf                                  1      0.0000       0.00000       A     1.10662e-01     4.14340e-02    ;  uncertainty sigma = 0.000067, epsilon = 0.001384
 h26bf                                  1      0.0000       0.00000       A     2.62584e-01     6.68453e-02    ;  uncertainty sigma = 0.000019, epsilon = 0.000520
 h27bf                                  1      0.0000       0.00000       A     2.62557e-01     6.70627e-02    ;  uncertainty sigma = 0.000009, epsilon = 0.000557
 h28bf                                  1      0.0000       0.00000       A     2.62558e-01     6.69935e-02    ;  uncertainty sigma = 0.000012, epsilon = 0.000628
 h29bf                                  1      0.0000       0.00000       A     2.60031e-01     8.67183e-02    ;  uncertainty sigma = 0.000009, epsilon = 0.000447
 h30bf                                  1      0.0000       0.00000       A     2.60031e-01     8.67183e-02    ;  uncertainty sigma = 0.000009, epsilon = 0.000447
 h31bf                                  1      0.0000       0.00000       A     2.60031e-01     8.67183e-02    ;  uncertainty sigma = 0.000009, epsilon = 0.000447
 h32bf                                  1      0.0000       0.00000       A     2.60031e-01     8.67183e-02    ;  uncertainty sigma = 0.000009, epsilon = 0.000447
 h33bf                                  1      0.0000       0.00000       A     2.60031e-01     8.67183e-02    ;  uncertainty sigma = 0.000009, epsilon = 0.000447
 h34bf                                  1      0.0000       0.00000       A     2.60031e-01     8.67183e-02    ;  uncertainty sigma = 0.000009, epsilon = 0.000447
 h35bf                                  1      0.0000       0.00000       A     5.37866e-02     1.91555e-02    ;  uncertainty sigma = 0.000161, epsilon = 0.001189

[ moleculetype ]
;name             nrexcl
 MOL                   3

[ atoms ]
;       nr            type      resi   res      atom      cgnr      charge          mass ; qtot
         1            c0bf         1   UNL        c0         1     0.36233       12.0110 ; qtot    0.362
         2            n1bf         1   UNL        n1         2    -0.65831       14.0070 ; qtot   -0.296
         3            c2bf         1   UNL        c2         3    -0.19140       12.0110 ; qtot   -0.487
         4            c3bf         1   UNL        c3         4     0.44819       12.0110 ; qtot   -0.039
         5            c4bf         1   UNL        c4         5     0.41391       12.0110 ; qtot    0.375
         6            c5bf         1   UNL        c5         6    -0.08579       12.0110 ; qtot    0.289
         7            c6bf         1   UNL        c6         7    -0.20855       12.0110 ; qtot    0.080
         8            n7bf         1   UNL        n7         8    -0.49622       14.0070 ; qtot   -0.416
         9            c8bf         1   UNL        c8         9     0.72153       12.0110 ; qtot    0.306
        10            n9bf         1   UNL        n9        10    -0.60923       14.0070 ; qtot   -0.304
        11           c10bf         1   UNL       c10        11     0.17348       12.0110 ; qtot   -0.130
        12           c11bf         1   UNL       c11        12    -0.17730       12.0110 ; qtot   -0.307
        13           c12bf         1   UNL       c12        13    -0.09763       12.0110 ; qtot   -0.405
        14           c13bf         1   UNL       c13        14     0.10690       12.0110 ; qtot   -0.298
        15           c14bf         1   UNL       c14        15    -0.12598       12.0110 ; qtot   -0.424
        16           c15bf         1   UNL       c15        16    -0.09662       12.0110 ; qtot   -0.521
        17           o16bf         1   UNL       o16        17    -0.60267       15.9990 ; qtot   -1.123
        18           c17bf         1   UNL       c17        18     0.20888       12.0110 ; qtot   -0.914
        19           o18bf         1   UNL       o18        19    -0.60283       15.9990 ; qtot   -1.517
        20           f19bf         1   UNL       f19        20    -0.13638       18.9980 ; qtot   -1.654
        21           c20bf         1   UNL       c20        21    -0.10419       12.0110 ; qtot   -1.758
        22           c21bf         1   UNL       c21        22    -0.10419       12.0110 ; qtot   -1.862
        23           h22bf         1   UNL       h22        23     0.16346        1.0080 ; qtot   -1.699
        24           h23bf         1   UNL       h23        24     0.02844        1.0080 ; qtot   -1.670
        25           h24bf         1   UNL       h24        25     0.14828        1.0080 ; qtot   -1.522
        26           h25bf         1   UNL       h25        26     0.34989        1.0080 ; qtot   -1.172
        27           h26bf         1   UNL       h26        27     0.17554        1.0080 ; qtot   -0.996
        28           h27bf         1   UNL       h27        28     0.15611        1.0080 ; qtot   -0.840
        29           h28bf         1   UNL       h28        29     0.15981        1.0080 ; qtot   -0.681
        30           h29bf         1   UNL       h29        30     0.04615        1.0080 ; qtot   -0.634
        31           h30bf         1   UNL       h30        31     0.04615        1.0080 ; qtot   -0.588
        32           h31bf         1   UNL       h31        32     0.04615        1.0080 ; qtot   -0.542
        33           h32bf         1   UNL       h32        33     0.04615        1.0080 ; qtot   -0.496
        34           h33bf         1   UNL       h33        34     0.04615        1.0080 ; qtot   -0.450
        35           h34bf         1   UNL       h34        35     0.04615        1.0080 ; qtot   -0.404
        36           h35bf         1   UNL       h35        36     0.40364        1.0080 ; qtot    0.000

[ bonds ]
;       ai        aj funct               r               k
         1         2     1        0.133332   387651.277344    ;  uncertainty r = 0.000064, k = 8.838614
         1         3     1        0.139557   341910.586035    ;  uncertainty r = 0.000042, k = 2.822405
         1         4     1        0.146570   271650.490234    ;  uncertainty r = 0.000261, k = 21.297761
         2         5     1        0.133293   380037.873389    ;  uncertainty r = 0.000027, k = 4.175084
         3         6     1        0.138807   371025.393359    ;  uncertainty r = 0.000078, k = 0.940300
         3        23     1        0.108738   337859.787598    ;  uncertainty r = 0.000024, k = 0.546432
         4         8     1        0.138477   279622.179834    ;  uncertainty r = 0.000281, k = 31.500975
         4        10     1        0.129388   477640.220215    ;  uncertainty r = 0.000106, k = 12.428469
         5         7     1        0.139916   342311.774023    ;  uncertainty r = 0.000080, k = 8.622585
         5        24     1        0.109002   335730.043750    ;  uncertainty r = 0.000044, k = 0.967479
         6         7     1        0.139392   362660.713184    ;  uncertainty r = 0.000079, k = 5.711886
         6        25     1        0.108751   331970.598193    ;  uncertainty r = 0.000017, k = 1.818342
         7        18     1        0.152180   213129.982373    ;  uncertainty r = 0.000157, k = 9.940697
         8         9     1        0.140185   456590.287402    ;  uncertainty r = 0.000077, k = 9.986776
         8        26     1        0.102233   441514.403809    ;  uncertainty r = 0.000098, k = 5.598174
         9        12     1        0.146666   261947.154785    ;  uncertainty r = 0.000050, k = 17.219704
         9        17     1        0.123416   862848.158008    ;  uncertainty r = 0.000086, k = 11.855467
        10        11     1        0.138855   292577.717236    ;  uncertainty r = 0.000137, k = 25.321774
        11        12     1        0.141749   383160.959717    ;  uncertainty r = 0.000068, k = 10.706247
        11        16     1        0.140951   353340.919580    ;  uncertainty r = 0.000045, k = 3.395896
        12        13     1        0.139898   369180.720264    ;  uncertainty r = 0.000058, k = 4.441380
        13        14     1        0.138124   355371.221924    ;  uncertainty r = 0.000071, k = 8.089216
        13        27     1        0.108596   333125.462891    ;  uncertainty r = 0.000025, k = 2.230261
        14        15     1        0.140315   344554.851563    ;  uncertainty r = 0.000060, k = 7.146636
        14        20     1        0.135438   338566.118506    ;  uncertainty r = 0.000088, k = 4.182277
        15        16     1        0.138302   386095.480029    ;  uncertainty r = 0.000059, k = 4.599865
        15        28     1        0.108763   336320.282959    ;  uncertainty r = 0.000023, k = 0.938598
        16        29     1        0.108708   336704.641992    ;  uncertainty r = 0.000019, k = 1.942410
        18        19     1        0.144749   265528.172559    ;  uncertainty r = 0.000078, k = 13.104747
        18        21     1        0.153497   207452.380688    ;  uncertainty r = 0.000022, k = 4.514361
        18        22     1        0.153497   207452.380688    ;  uncertainty r = 0.000022, k = 4.514361
        19        36     1        0.097217   467798.780078    ;  uncertainty r = 0.000030, k = 4.375602
        21        30     1        0.109565   310084.248438    ;  uncertainty r = 0.000020, k = 1.156602
        21        31     1        0.109565   310084.248438    ;  uncertainty r = 0.000020, k = 1.156602
        21        32     1        0.109565   310084.248438    ;  uncertainty r = 0.000020, k = 1.156602
        22        33     1        0.109565   310084.248438    ;  uncertainty r = 0.000020, k = 1.156602
        22        34     1        0.109565   310084.248438    ;  uncertainty r = 0.000020, k = 1.156604
        22        35     1        0.109565   310084.248438    ;  uncertainty r = 0.000020, k = 1.156604

[ angles ]
;       ai        aj        ak funct           theta             cth
         1         2         5     1      119.160721      406.811387    ;  uncertainty theta = 0.001891, k = 0.232801
         1         3         6     1      118.098633      461.250823    ;  uncertainty theta = 0.002881, k = 0.145577
         1         3        23     1      120.691750      262.469596    ;  uncertainty theta = 0.003213, k = 0.095641
         1         4         8     1      113.710167      462.790295    ;  uncertainty theta = 0.003805, k = 0.334371
         1         4        10     1      118.290016      410.188351    ;  uncertainty theta = 0.002572, k = 0.205131
         2         1         3     1      123.820091      599.088839    ;  uncertainty theta = 0.002486, k = 0.169078
         2         1         4     1      112.721352      453.736528    ;  uncertainty theta = 0.006380, k = 0.087912
         2         5         7     1      125.534958      682.897674    ;  uncertainty theta = 0.001144, k = 0.115419
         2         5        24     1      116.305862      333.447103    ;  uncertainty theta = 0.002949, k = 0.110756
         3         1         4     1      117.682144      379.926398    ;  uncertainty theta = 0.006125, k = 0.143055
         3         6         7     1      120.184303      542.990960    ;  uncertainty theta = 0.002359, k = 0.092392
         3         6        25     1      120.100563      275.810932    ;  uncertainty theta = 0.001809, k = 0.100612
         4         8         9     1      120.961975      500.794143    ;  uncertainty theta = 0.006540, k = 0.168651
         4         8        26     1      117.287888      323.097104    ;  uncertainty theta = 0.008032, k = 0.122220
         4        10        11     1      115.435059      411.222955    ;  uncertainty theta = 0.002889, k = 0.305789
         5         7         6     1      117.765602      426.735121    ;  uncertainty theta = 0.004526, k = 0.259501
         5         7        18     1      120.901489      375.262619    ;  uncertainty theta = 0.005109, k = 0.244997
         6         3        23     1      121.863052      282.415212    ;  uncertainty theta = 0.002334, k = 0.054609
         6         7        18     1      121.048325      375.320780    ;  uncertainty theta = 0.004007, k = 0.103563
         7         5        24     1      118.605247      253.188724    ;  uncertainty theta = 0.002020, k = 0.118731
         7         6        25     1      119.036987      261.567833    ;  uncertainty theta = 0.002160, k = 0.114521
         7        18        19     1      109.531326      697.433588    ;  uncertainty theta = 0.002451, k = 0.176415
         7        18        21     1      109.489586      552.439371    ;  uncertainty theta = 0.002400, k = 0.063102
         7        18        22     1      109.489586      552.439371    ;  uncertainty theta = 0.002400, k = 0.063102
         8         4        10     1      124.548729      693.469015    ;  uncertainty theta = 0.006954, k = 0.255156
         8         9        12     1      108.773315      388.679497    ;  uncertainty theta = 0.007923, k = 0.247320
         8         9        17     1      125.165955      815.931266    ;  uncertainty theta = 0.003000, k = 0.075015
         9         8        26     1      116.494667      346.122766    ;  uncertainty theta = 0.007681, k = 0.232186
         9        12        11     1      117.402542      491.091382    ;  uncertainty theta = 0.006475, k = 0.240546
         9        12        13     1      117.871689      396.660099    ;  uncertainty theta = 0.004002, k = 0.158056
        10        11        12     1      123.638573      562.660408    ;  uncertainty theta = 0.006452, k = 0.121424
        10        11        16     1      120.088707      505.297069    ;  uncertainty theta = 0.008586, k = 0.083442
        11        12        13     1      121.730240      433.292827    ;  uncertainty theta = 0.001515, k = 0.229541
        11        16        15     1      119.011742      531.065449    ;  uncertainty theta = 0.002836, k = 0.149986
        11        16        29     1      120.410805      271.353589    ;  uncertainty theta = 0.003399, k = 0.089372
        12         9        17     1      127.962990      512.645787    ;  uncertainty theta = 0.002719, k = 0.159629
        12        11        16     1      119.286110      406.083484    ;  uncertainty theta = 0.003489, k = 0.251506
        12        13        14     1      118.287453      472.119161    ;  uncertainty theta = 0.002924, k = 0.132692
        12        13        27     1      120.828979      247.606568    ;  uncertainty theta = 0.006275, k = 0.079915
        13        14        15     1      124.230835      391.108523    ;  uncertainty theta = 0.005452, k = 0.270459
        13        14        20     1      118.829163      496.180577    ;  uncertainty theta = 0.001386, k = 0.097184
        14        13        27     1      121.686180      281.539576    ;  uncertainty theta = 0.002737, k = 0.087294
        14        15        16     1      119.123047      505.026663    ;  uncertainty theta = 0.003003, k = 0.103093
        14        15        28     1      120.507347      283.187997    ;  uncertainty theta = 0.002009, k = 0.088221
        15        14        20     1      118.443443      514.743597    ;  uncertainty theta = 0.002026, k = 0.040363
        15        16        29     1      121.081863      277.905135    ;  uncertainty theta = 0.001912, k = 0.023135
        16        15        28     1      120.849144      280.086068    ;  uncertainty theta = 0.001540, k = 0.061482
        18        19        36     1      107.631386      483.513404    ;  uncertainty theta = 0.001933, k = 0.084579
        18        21        30     1      107.206177      376.175890    ;  uncertainty theta = 0.000945, k = 0.036710
        18        21        31     1      107.206177      376.175890    ;  uncertainty theta = 0.000945, k = 0.036710
        18        21        32     1      107.206177      376.175890    ;  uncertainty theta = 0.000945, k = 0.036710
        18        22        33     1      107.206177      376.175890    ;  uncertainty theta = 0.000945, k = 0.036710
        18        22        34     1      107.206177      376.175890    ;  uncertainty theta = 0.000945, k = 0.036710
        18        22        35     1      107.206177      376.175890    ;  uncertainty theta = 0.000945, k = 0.036710
        19        18        21     1      109.009911      687.757577    ;  uncertainty theta = 0.002726, k = 0.121251
        19        18        22     1      109.009911      687.757577    ;  uncertainty theta = 0.002726, k = 0.121251
        21        18        22     1      110.199783      562.161604    ;  uncertainty theta = 0.001557, k = 0.090673
        30        21        31     1      105.692032      317.739418    ;  uncertainty theta = 0.001173, k = 0.008167
        30        21        32     1      105.692032      317.739418    ;  uncertainty theta = 0.001173, k = 0.008167
        31        21        32     1      105.692032      317.739418    ;  uncertainty theta = 0.001173, k = 0.008167
        33        22        34     1      105.692032      317.739450    ;  uncertainty theta = 0.001173, k = 0.008167
        33        22        35     1      105.692032      317.739450    ;  uncertainty theta = 0.001173, k = 0.008167
        34        22        35     1      105.692032      317.739450    ;  uncertainty theta = 0.001173, k = 0.008167

[ dihedrals ] ; propers for gromacs 4.5 or higher, use funct 9
;       ai        aj        ak        al funct           phase               k        pn
         1         2         5         7     9        0.000000       -0.403037         1    ;  uncertainty k = 0.171844
         1         2         5         7     9      180.000000       14.165868         2    ;  uncertainty k = 0.291753
         1         2         5         7     9        0.000000        1.224819         3    ;  uncertainty k = 0.419227
         1         2         5         7     9      180.000000        1.334931         4    ;  uncertainty k = 0.257482
         1         2         5        24     9        0.000000        0.366419         1    ;  uncertainty k = 0.489731
         1         2         5        24     9      180.000000       16.024709         2    ;  uncertainty k = 0.500912
         1         2         5        24     9        0.000000        2.377301         3    ;  uncertainty k = 0.645961
         1         2         5        24     9      180.000000        1.497216         4    ;  uncertainty k = 0.289708
         1         3         6         7     9        0.000000       -0.016020         1    ;  uncertainty k = 0.339486
         1         3         6         7     9      180.000000       12.556420         2    ;  uncertainty k = 0.449122
         1         3         6         7     9        0.000000       -0.847214         3    ;  uncertainty k = 0.421352
         1         3         6         7     9      180.000000        0.834669         4    ;  uncertainty k = 0.293933
         1         3         6        25     9        0.000000       -0.042289         1    ;  uncertainty k = 0.343543
         1         3         6        25     9      180.000000        8.014758         2    ;  uncertainty k = 0.434963
         1         3         6        25     9        0.000000        1.229077         3    ;  uncertainty k = 0.299170
         1         3         6        25     9      180.000000        1.644704         4    ;  uncertainty k = 0.148718
         1         4         8         9     9        0.000000        0.493490         1    ;  uncertainty k = 1.848912
         1         4         8         9     9      180.000000        5.608000         2    ;  uncertainty k = 0.847780
         1         4         8         9     9        0.000000        0.577483         3    ;  uncertainty k = 0.284954
         1         4         8         9     9      180.000000       -0.091299         4    ;  uncertainty k = 0.414887
         1         4         8        26     9        0.000000        0.117417         1    ;  uncertainty k = 1.771901
         1         4         8        26     9      180.000000        4.596525         2    ;  uncertainty k = 1.126135
         1         4         8        26     9        0.000000        1.054280         3    ;  uncertainty k = 0.572251
         1         4         8        26     9      180.000000       -0.117898         4    ;  uncertainty k = 0.201953
         1         4        10        11     9        0.000000       -0.521511         1    ;  uncertainty k = 0.766036
         1         4        10        11     9      180.000000       19.927163         2    ;  uncertainty k = 0.359479
         1         4        10        11     9        0.000000        2.787621         3    ;  uncertainty k = 0.261085
         1         4        10        11     9      180.000000        1.279116         4    ;  uncertainty k = 0.492707
         2         1         3         6     9        0.000000       -0.215238         1    ;  uncertainty k = 0.249719
         2         1         3         6     9      180.000000       11.757274         2    ;  uncertainty k = 0.414001
         2         1         3         6     9        0.000000       -0.485273         3    ;  uncertainty k = 0.383097
         2         1         3         6     9      180.000000        1.068659         4    ;  uncertainty k = 0.325106
         2         1         3        23     9        0.000000       -0.072633         1    ;  uncertainty k = 0.113580
         2         1         3        23     9      180.000000        7.488569         2    ;  uncertainty k = 0.545742
         2         1         3        23     9        0.000000        0.934390         3    ;  uncertainty k = 0.200058
         2         1         3        23     9      180.000000        1.580474         4    ;  uncertainty k = 0.177411
         2         1         4         8     9        0.000000        1.498771         1    ;  uncertainty k = 1.263584
         2         1         4         8     9      180.000000        4.328100         2    ;  uncertainty k = 0.392007
         2         1         4         8     9        0.000000        0.155877         3    ;  uncertainty k = 0.533902
         2         1         4         8     9      180.000000        0.047340         4    ;  uncertainty k = 0.128345
         2         1         4        10     9        0.000000       -1.850003         1    ;  uncertainty k = 1.612120
         2         1         4        10     9      180.000000        4.568821         2    ;  uncertainty k = 0.372185
         2         1         4        10     9        0.000000        1.023161         3    ;  uncertainty k = 0.415079
         2         1         4        10     9      180.000000        0.089158         4    ;  uncertainty k = 0.089255
         2         5         7         6     9        0.000000       -0.283768         1    ;  uncertainty k = 0.500486
         2         5         7         6     9      180.000000       12.097698         2    ;  uncertainty k = 0.424103
         2         5         7         6     9        0.000000       -0.152543         3    ;  uncertainty k = 0.178660
         2         5         7         6     9      180.000000        1.136180         4    ;  uncertainty k = 0.266394
         2         5         7        18     9        0.000000        0.014886         1    ;  uncertainty k = 0.254382
         2         5         7        18     9      180.000000        8.233055         2    ;  uncertainty k = 0.332889
         2         5         7        18     9        0.000000        1.120483         3    ;  uncertainty k = 0.307815
         2         5         7        18     9      180.000000        1.784332         4    ;  uncertainty k = 0.176720
         3         1         2         5     9        0.000000       -0.363269         1    ;  uncertainty k = 0.737902
         3         1         2         5     9      180.000000       13.000773         2    ;  uncertainty k = 0.132460
         3         1         2         5     9        0.000000        1.646770         3    ;  uncertainty k = 0.534815
         3         1         2         5     9      180.000000        1.160601         4    ;  uncertainty k = 0.300118
         3         1         4         8     9        0.000000       -0.403456         1    ;  uncertainty k = 0.810909
         3         1         4         8     9      180.000000        4.121904         2    ;  uncertainty k = 0.628444
         3         1         4         8     9        0.000000        0.810400         3    ;  uncertainty k = 0.247794
         3         1         4         8     9      180.000000       -0.043979         4    ;  uncertainty k = 0.076588
         3         1         4        10     9        0.000000        1.316003         1    ;  uncertainty k = 0.704001
         3         1         4        10     9      180.000000        3.682016         2    ;  uncertainty k = 0.196140
         3         1         4        10     9        0.000000        0.506502         3    ;  uncertainty k = 0.184209
         3         1         4        10     9      180.000000       -0.118604         4    ;  uncertainty k = 0.206038
         3         6         7         5     9        0.000000       -0.087083         1    ;  uncertainty k = 0.297044
         3         6         7         5     9      180.000000       10.901355         2    ;  uncertainty k = 0.304694
         3         6         7         5     9        0.000000       -0.553607         3    ;  uncertainty k = 0.389790
         3         6         7         5     9      180.000000        0.930536         4    ;  uncertainty k = 0.290797
         3         6         7        18     9        0.000000        0.190731         1    ;  uncertainty k = 0.243822
         3         6         7        18     9      180.000000        8.798354         2    ;  uncertainty k = 0.438930
         3         6         7        18     9        0.000000        1.353220         3    ;  uncertainty k = 0.383456
         3         6         7        18     9      180.000000        1.922737         4    ;  uncertainty k = 0.290493
         4         1         2         5     9        0.000000        0.601246         1    ;  uncertainty k = 0.590696
         4         1         2         5     9      180.000000       14.859501         2    ;  uncertainty k = 0.401767
         4         1         2         5     9        0.000000        2.694866         3    ;  uncertainty k = 0.274510
         4         1         2         5     9      180.000000        1.414695         4    ;  uncertainty k = 0.464385
         4         1         3         6     9        0.000000        0.094350         1    ;  uncertainty k = 0.419177
         4         1         3         6     9      180.000000        7.736989         2    ;  uncertainty k = 0.899770
         4         1         3         6     9        0.000000        0.971635         3    ;  uncertainty k = 0.166840
         4         1         3         6     9      180.000000        1.419364         4    ;  uncertainty k = 0.287235
         4         1         3        23     9        0.000000       -0.215833         1    ;  uncertainty k = 0.168224
         4         1         3        23     9      180.000000        6.265561         2    ;  uncertainty k = 0.760904
         4         1         3        23     9        0.000000        0.591466         3    ;  uncertainty k = 0.313933
         4         1         3        23     9      180.000000        0.871595         4    ;  uncertainty k = 0.340185
         4         8         9        12     9        0.000000        0.814968         1    ;  uncertainty k = 1.613878
         4         8         9        12     9      180.000000        4.492150         2    ;  uncertainty k = 1.279804
         4         8         9        12     9        0.000000        0.835756         3    ;  uncertainty k = 0.244176
         4         8         9        12     9      180.000000        0.496398         4    ;  uncertainty k = 0.397061
         4         8         9        17     9        0.000000        0.712228         1    ;  uncertainty k = 1.034502
         4         8         9        17     9      180.000000       11.311012         2    ;  uncertainty k = 0.386674
         4         8         9        17     9        0.000000        1.196136         3    ;  uncertainty k = 0.543483
         4         8         9        17     9      180.000000       -0.497048         4    ;  uncertainty k = 0.288919
         4        10        11        12     9        0.000000        1.544506         1    ;  uncertainty k = 2.040954
         4        10        11        12     9      180.000000        4.540807         2    ;  uncertainty k = 1.442703
         4        10        11        12     9        0.000000        1.440893         3    ;  uncertainty k = 0.518953
         4        10        11        12     9      180.000000        0.403812         4    ;  uncertainty k = 0.452263
         4        10        11        16     9        0.000000        1.223328         1    ;  uncertainty k = 1.583083
         4        10        11        16     9      180.000000        6.068353         2    ;  uncertainty k = 0.877216
         4        10        11        16     9        0.000000        2.205809         3    ;  uncertainty k = 0.374809
         4        10        11        16     9      180.000000        0.305774         4    ;  uncertainty k = 0.463946
         5         7         6        25     9        0.000000       -0.051466         1    ;  uncertainty k = 0.336763
         5         7         6        25     9      180.000000        7.155019         2    ;  uncertainty k = 0.551849
         5         7         6        25     9        0.000000        1.230272         3    ;  uncertainty k = 0.305390
         5         7         6        25     9      180.000000        1.560367         4    ;  uncertainty k = 0.176957
         5         7        18        19     9        0.000000       -1.895890         1    ;  uncertainty k = 0.760633
         5         7        18        19     9      180.000000        3.921730         2    ;  uncertainty k = 0.079888
         5         7        18        19     9        0.000000        0.552911         3    ;  uncertainty k = 0.126402
         5         7        18        19     9      180.000000        0.486396         4    ;  uncertainty k = 0.036373
         5         7        18        21     9        0.000000       -0.589688         1    ;  uncertainty k = 0.538049
         5         7        18        21     9      180.000000        2.561292         2    ;  uncertainty k = 0.257490
         5         7        18        21     9        0.000000        0.408946         3    ;  uncertainty k = 0.076637
         5         7        18        21     9      180.000000        0.247815         4    ;  uncertainty k = 0.080556
         5         7        18        22     9        0.000000       -0.589688         1    ;  uncertainty k = 0.538049
         5         7        18        22     9      180.000000        2.561292         2    ;  uncertainty k = 0.257490
         5         7        18        22     9        0.000000        0.408946         3    ;  uncertainty k = 0.076637
         5         7        18        22     9      180.000000        0.247815         4    ;  uncertainty k = 0.080556
         6         7         5        24     9        0.000000       -0.135442         1    ;  uncertainty k = 0.702785
         6         7         5        24     9      180.000000        5.843830         2    ;  uncertainty k = 0.633237
         6         7         5        24     9        0.000000        1.187863         3    ;  uncertainty k = 0.302470
         6         7         5        24     9      180.000000        1.491023         4    ;  uncertainty k = 0.179679
         6         7        18        19     9        0.000000       -1.080455         1    ;  uncertainty k = 0.482427
         6         7        18        19     9      180.000000        3.891315         2    ;  uncertainty k = 0.212797
         6         7        18        19     9        0.000000        0.493811         3    ;  uncertainty k = 0.066911
         6         7        18        19     9      180.000000        0.463952         4    ;  uncertainty k = 0.066845
         6         7        18        21     9        0.000000       -0.131634         1    ;  uncertainty k = 0.207646
         6         7        18        21     9      180.000000        2.636771         2    ;  uncertainty k = 0.162079
         6         7        18        21     9        0.000000        0.397264         3    ;  uncertainty k = 0.070614
         6         7        18        21     9      180.000000        0.284706         4    ;  uncertainty k = 0.069058
         6         7        18        22     9        0.000000       -0.131634         1    ;  uncertainty k = 0.207646
         6         7        18        22     9      180.000000        2.636771         2    ;  uncertainty k = 0.162079
         6         7        18        22     9        0.000000        0.397264         3    ;  uncertainty k = 0.070614
         6         7        18        22     9      180.000000        0.284706         4    ;  uncertainty k = 0.069058
         7         6         3        23     9        0.000000        0.137918         1    ;  uncertainty k = 0.041453
         7         6         3        23     9      180.000000        8.000127         2    ;  uncertainty k = 0.263672
         7         6         3        23     9        0.000000        1.362940         3    ;  uncertainty k = 0.394674
         7         6         3        23     9      180.000000        1.925917         4    ;  uncertainty k = 0.178505
         7        18        19        36     9        0.000000       14.055705         1    ;  uncertainty k = 0.234919
         7        18        19        36     9      180.000000       -3.286886         2    ;  uncertainty k = 0.195485
         7        18        19        36     9        0.000000        0.960242         3    ;  uncertainty k = 0.107565
         7        18        19        36     9      180.000000        0.211324         4    ;  uncertainty k = 0.082875
         7        18        21        30     9        0.000000        0.120222         1    ;  uncertainty k = 0.382151
         7        18        21        30     9      180.000000       -0.228983         2    ;  uncertainty k = 0.234658
         7        18        21        30     9        0.000000        0.650823         3    ;  uncertainty k = 0.137138
         7        18        21        30     9      180.000000       -0.006628         4    ;  uncertainty k = 0.052603
         7        18        21        31     9        0.000000        0.120222         1    ;  uncertainty k = 0.382151
         7        18        21        31     9      180.000000       -0.228983         2    ;  uncertainty k = 0.234658
         7        18        21        31     9        0.000000        0.650823         3    ;  uncertainty k = 0.137138
         7        18        21        31     9      180.000000       -0.006628         4    ;  uncertainty k = 0.052603
         7        18        21        32     9        0.000000        0.120222         1    ;  uncertainty k = 0.382151
         7        18        21        32     9      180.000000       -0.228983         2    ;  uncertainty k = 0.234658
         7        18        21        32     9        0.000000        0.650823         3    ;  uncertainty k = 0.137138
         7        18        21        32     9      180.000000       -0.006628         4    ;  uncertainty k = 0.052603
         7        18        22        33     9        0.000000        0.120222         1    ;  uncertainty k = 0.382151
         7        18        22        33     9      180.000000       -0.228983         2    ;  uncertainty k = 0.234658
         7        18        22        33     9        0.000000        0.650823         3    ;  uncertainty k = 0.137138
         7        18        22        33     9      180.000000       -0.006628         4    ;  uncertainty k = 0.052603
         7        18        22        34     9        0.000000        0.120222         1    ;  uncertainty k = 0.382151
         7        18        22        34     9      180.000000       -0.228983         2    ;  uncertainty k = 0.234658
         7        18        22        34     9        0.000000        0.650823         3    ;  uncertainty k = 0.137138
         7        18        22        34     9      180.000000       -0.006628         4    ;  uncertainty k = 0.052603
         7        18        22        35     9        0.000000        0.120222         1    ;  uncertainty k = 0.382151
         7        18        22        35     9      180.000000       -0.228983         2    ;  uncertainty k = 0.234658
         7        18        22        35     9        0.000000        0.650823         3    ;  uncertainty k = 0.137138
         7        18        22        35     9      180.000000       -0.006628         4    ;  uncertainty k = 0.052603
         8         4        10        11     9        0.000000       -0.764296         1    ;  uncertainty k = 0.682198
         8         4        10        11     9      180.000000       25.076161         2    ;  uncertainty k = 0.181745
         8         4        10        11     9        0.000000        1.662462         3    ;  uncertainty k = 0.108264
         8         4        10        11     9      180.000000        1.388084         4    ;  uncertainty k = 0.572943
         8         9        12        11     9        0.000000       -0.963332         1    ;  uncertainty k = 0.880098
         8         9        12        11     9      180.000000        2.413764         2    ;  uncertainty k = 0.784059
         8         9        12        11     9        0.000000       -0.212025         3    ;  uncertainty k = 0.495025
         8         9        12        11     9      180.000000        0.545924         4    ;  uncertainty k = 0.232914
         8         9        12        13     9        0.000000        0.432719         1    ;  uncertainty k = 0.769440
         8         9        12        13     9      180.000000        3.057649         2    ;  uncertainty k = 0.582947
         8         9        12        13     9        0.000000        0.705580         3    ;  uncertainty k = 0.518167
         8         9        12        13     9      180.000000        0.504470         4    ;  uncertainty k = 0.254652
         9         8         4        10     9        0.000000       -0.227077         1    ;  uncertainty k = 0.822624
         9         8         4        10     9      180.000000        7.977213         2    ;  uncertainty k = 0.533869
         9         8         4        10     9        0.000000        0.497058         3    ;  uncertainty k = 0.615013
         9         8         4        10     9      180.000000        0.354720         4    ;  uncertainty k = 0.181041
         9        12        11        10     9        0.000000       -0.219143         1    ;  uncertainty k = 0.394907
         9        12        11        10     9      180.000000        7.607855         2    ;  uncertainty k = 0.913186
         9        12        11        10     9        0.000000        1.028935         3    ;  uncertainty k = 0.353733
         9        12        11        10     9      180.000000        1.496792         4    ;  uncertainty k = 0.191917
         9        12        11        16     9        0.000000        0.058395         1    ;  uncertainty k = 0.486986
         9        12        11        16     9      180.000000        6.643501         2    ;  uncertainty k = 0.847910
         9        12        11        16     9        0.000000        0.953836         3    ;  uncertainty k = 0.307262
         9        12        11        16     9      180.000000        1.407091         4    ;  uncertainty k = 0.212812
         9        12        13        14     9        0.000000        0.248897         1    ;  uncertainty k = 0.262364
         9        12        13        14     9      180.000000        8.979785         2    ;  uncertainty k = 0.642128
         9        12        13        14     9        0.000000        1.409530         3    ;  uncertainty k = 0.238415
         9        12        13        14     9      180.000000        1.804692         4    ;  uncertainty k = 0.208829
         9        12        13        27     9        0.000000       -0.389304         1    ;  uncertainty k = 0.731156
         9        12        13        27     9      180.000000        7.432141         2    ;  uncertainty k = 0.400346
         9        12        13        27     9        0.000000        0.940863         3    ;  uncertainty k = 0.223227
         9        12        13        27     9      180.000000        1.191438         4    ;  uncertainty k = 0.132485
        10         4         8        26     9        0.000000        5.447577         1    ;  uncertainty k = 2.314368
        10         4         8        26     9      180.000000       10.994480         2    ;  uncertainty k = 0.615362
        10         4         8        26     9        0.000000        1.187201         3    ;  uncertainty k = 0.582394
        10         4         8        26     9      180.000000       -0.209181         4    ;  uncertainty k = 0.103369
        10        11        12        13     9        0.000000        0.023798         1    ;  uncertainty k = 0.337905
        10        11        12        13     9      180.000000        8.614837         2    ;  uncertainty k = 0.807523
        10        11        12        13     9        0.000000        0.666115         3    ;  uncertainty k = 0.197816
        10        11        12        13     9      180.000000        1.405051         4    ;  uncertainty k = 0.329251
        10        11        16        15     9        0.000000        0.092920         1    ;  uncertainty k = 0.501109
        10        11        16        15     9      180.000000       10.779433         2    ;  uncertainty k = 0.227187
        10        11        16        15     9        0.000000        0.814724         3    ;  uncertainty k = 0.219691
        10        11        16        15     9      180.000000        1.441067         4    ;  uncertainty k = 0.178561
        10        11        16        29     9        0.000000       -0.523901         1    ;  uncertainty k = 0.595299
        10        11        16        29     9      180.000000        7.677044         2    ;  uncertainty k = 0.278993
        10        11        16        29     9        0.000000        1.214908         3    ;  uncertainty k = 0.416963
        10        11        16        29     9      180.000000        1.211790         4    ;  uncertainty k = 0.232811
        11        12         9        17     9        0.000000       -2.454189         1    ;  uncertainty k = 1.021167
        11        12         9        17     9      180.000000        4.813382         2    ;  uncertainty k = 0.680660
        11        12         9        17     9        0.000000        0.257352         3    ;  uncertainty k = 0.259442
        11        12         9        17     9      180.000000       -0.065660         4    ;  uncertainty k = 0.233781
        11        12        13        14     9        0.000000        0.062628         1    ;  uncertainty k = 0.390238
        11        12        13        14     9      180.000000       11.627584         2    ;  uncertainty k = 0.353653
        11        12        13        14     9        0.000000       -0.278641         3    ;  uncertainty k = 0.256309
        11        12        13        14     9      180.000000        1.125246         4    ;  uncertainty k = 0.209021
        11        12        13        27     9        0.000000        0.026018         1    ;  uncertainty k = 0.445059
        11        12        13        27     9      180.000000        7.286990         2    ;  uncertainty k = 0.748166
        11        12        13        27     9        0.000000        1.367801         3    ;  uncertainty k = 0.296664
        11        12        13        27     9      180.000000        1.427483         4    ;  uncertainty k = 0.109429
        11        16        15        14     9        0.000000       -0.053064         1    ;  uncertainty k = 0.157012
        11        16        15        14     9      180.000000       15.636350         2    ;  uncertainty k = 0.148604
        11        16        15        14     9        0.000000       -0.225201         3    ;  uncertainty k = 0.539705
        11        16        15        14     9      180.000000        0.964461         4    ;  uncertainty k = 0.226388
        11        16        15        28     9        0.000000        0.145428         1    ;  uncertainty k = 0.208820
        11        16        15        28     9      180.000000        9.780915         2    ;  uncertainty k = 0.257937
        11        16        15        28     9        0.000000        1.486209         3    ;  uncertainty k = 0.163544
        11        16        15        28     9      180.000000        1.687250         4    ;  uncertainty k = 0.079727
        12         9         8        26     9        0.000000        2.466328         1    ;  uncertainty k = 2.234996
        12         9         8        26     9      180.000000        5.345975         2    ;  uncertainty k = 0.876561
        12         9         8        26     9        0.000000        1.829822         3    ;  uncertainty k = 0.220603
        12         9         8        26     9      180.000000        0.006321         4    ;  uncertainty k = 0.149307
        12        11        16        15     9        0.000000        0.303807         1    ;  uncertainty k = 0.451687
        12        11        16        15     9      180.000000        8.805170         2    ;  uncertainty k = 0.481006
        12        11        16        15     9        0.000000       -0.402815         3    ;  uncertainty k = 0.186323
        12        11        16        15     9      180.000000        1.072743         4    ;  uncertainty k = 0.217611
        12        11        16        29     9        0.000000       -0.094882         1    ;  uncertainty k = 0.265599
        12        11        16        29     9      180.000000        5.482967         2    ;  uncertainty k = 0.378275
        12        11        16        29     9        0.000000        1.370747         3    ;  uncertainty k = 0.428947
        12        11        16        29     9      180.000000        1.207020         4    ;  uncertainty k = 0.132700
        12        13        14        15     9        0.000000        0.014579         1    ;  uncertainty k = 0.406167
        12        13        14        15     9      180.000000        8.580802         2    ;  uncertainty k = 0.496281
        12        13        14        15     9        0.000000        0.411247         3    ;  uncertainty k = 0.429260
        12        13        14        15     9      180.000000        1.349937         4    ;  uncertainty k = 0.402939
        12        13        14        20     9        0.000000        0.052940         1    ;  uncertainty k = 0.279630
        12        13        14        20     9      180.000000       14.300883         2    ;  uncertainty k = 0.204149
        12        13        14        20     9        0.000000        1.453226         3    ;  uncertainty k = 0.306012
        12        13        14        20     9      180.000000        1.325491         4    ;  uncertainty k = 0.084420
        13        12         9        17     9        0.000000       -1.973524         1    ;  uncertainty k = 0.587519
        13        12         9        17     9      180.000000        5.450785         2    ;  uncertainty k = 0.668557
        13        12         9        17     9        0.000000        0.511122         3    ;  uncertainty k = 0.315205
        13        12         9        17     9      180.000000       -0.149233         4    ;  uncertainty k = 0.139150
        13        12        11        16     9        0.000000       -0.187831         1    ;  uncertainty k = 0.324134
        13        12        11        16     9      180.000000        7.021821         2    ;  uncertainty k = 0.744813
        13        12        11        16     9        0.000000        0.264731         3    ;  uncertainty k = 0.286946
        13        12        11        16     9      180.000000        1.376567         4    ;  uncertainty k = 0.302371
        13        14        15        16     9        0.000000       -0.037319         1    ;  uncertainty k = 0.446590
        13        14        15        16     9      180.000000        7.190768         2    ;  uncertainty k = 0.575231
        13        14        15        16     9        0.000000        0.100291         3    ;  uncertainty k = 0.435789
        13        14        15        16     9      180.000000        1.245216         4    ;  uncertainty k = 0.285117
        13        14        15        28     9        0.000000       -0.021606         1    ;  uncertainty k = 0.306379
        13        14        15        28     9      180.000000        5.222010         2    ;  uncertainty k = 0.775374
        13        14        15        28     9        0.000000        1.141408         3    ;  uncertainty k = 0.190576
        13        14        15        28     9      180.000000        1.375915         4    ;  uncertainty k = 0.167968
        14        15        16        29     9        0.000000       -0.011413         1    ;  uncertainty k = 0.293283
        14        15        16        29     9      180.000000        9.463463         2    ;  uncertainty k = 0.336796
        14        15        16        29     9        0.000000        1.362115         3    ;  uncertainty k = 0.433380
        14        15        16        29     9      180.000000        1.933407         4    ;  uncertainty k = 0.228211
        15        14        13        27     9        0.000000        0.166988         1    ;  uncertainty k = 0.092153
        15        14        13        27     9      180.000000        6.142412         2    ;  uncertainty k = 0.526407
        15        14        13        27     9        0.000000        1.428280         3    ;  uncertainty k = 0.294530
        15        14        13        27     9      180.000000        1.629598         4    ;  uncertainty k = 0.083727
        16        15        14        20     9        0.000000       -0.122892         1    ;  uncertainty k = 0.197616
        16        15        14        20     9      180.000000       10.863914         2    ;  uncertainty k = 0.566593
        16        15        14        20     9        0.000000        1.520435         3    ;  uncertainty k = 0.425418
        16        15        14        20     9      180.000000        1.527116         4    ;  uncertainty k = 0.291310
        17         9         8        26     9        0.000000        1.689103         1    ;  uncertainty k = 2.300187
        17         9         8        26     9      180.000000        9.088951         2    ;  uncertainty k = 0.638694
        17         9         8        26     9        0.000000        0.696400         3    ;  uncertainty k = 0.588779
        17         9         8        26     9      180.000000       -0.113479         4    ;  uncertainty k = 0.047781
        18         7         5        24     9        0.000000       -0.172336         1    ;  uncertainty k = 0.386774
        18         7         5        24     9      180.000000        6.410342         2    ;  uncertainty k = 0.196908
        18         7         5        24     9        0.000000        0.507321         3    ;  uncertainty k = 0.328464
        18         7         5        24     9      180.000000        1.031213         4    ;  uncertainty k = 0.153190
        18         7         6        25     9        0.000000       -0.013750         1    ;  uncertainty k = 0.446614
        18         7         6        25     9      180.000000        7.889419         2    ;  uncertainty k = 0.343040
        18         7         6        25     9        0.000000        0.579171         3    ;  uncertainty k = 0.326563
        18         7         6        25     9      180.000000        0.975045         4    ;  uncertainty k = 0.147043
        19        18        21        30     9        0.000000       -1.963076         1    ;  uncertainty k = 0.556760
        19        18        21        30     9      180.000000       -0.960941         2    ;  uncertainty k = 0.294148
        19        18        21        30     9        0.000000        0.836042         3    ;  uncertainty k = 0.075626
        19        18        21        30     9      180.000000       -0.210062         4    ;  uncertainty k = 0.047878
        19        18        21        31     9        0.000000       -1.963076         1    ;  uncertainty k = 0.556760
        19        18        21        31     9      180.000000       -0.960941         2    ;  uncertainty k = 0.294148
        19        18        21        31     9        0.000000        0.836042         3    ;  uncertainty k = 0.075626
        19        18        21        31     9      180.000000       -0.210062         4    ;  uncertainty k = 0.047878
        19        18        21        32     9        0.000000       -1.963076         1    ;  uncertainty k = 0.556760
        19        18        21        32     9      180.000000       -0.960941         2    ;  uncertainty k = 0.294148
        19        18        21        32     9        0.000000        0.836042         3    ;  uncertainty k = 0.075626
        19        18        21        32     9      180.000000       -0.210062         4    ;  uncertainty k = 0.047878
        19        18        22        33     9        0.000000       -1.963076         1    ;  uncertainty k = 0.556760
        19        18        22        33     9      180.000000       -0.960941         2    ;  uncertainty k = 0.294148
        19        18        22        33     9        0.000000        0.836042         3    ;  uncertainty k = 0.075626
        19        18        22        33     9      180.000000       -0.210062         4    ;  uncertainty k = 0.047878
        19        18        22        34     9        0.000000       -1.963076         1    ;  uncertainty k = 0.556760
        19        18        22        34     9      180.000000       -0.960941         2    ;  uncertainty k = 0.294148
        19        18        22        34     9        0.000000        0.836042         3    ;  uncertainty k = 0.075626
        19        18        22        34     9      180.000000       -0.210062         4    ;  uncertainty k = 0.047878
        19        18        22        35     9        0.000000       -1.963076         1    ;  uncertainty k = 0.556760
        19        18        22        35     9      180.000000       -0.960941         2    ;  uncertainty k = 0.294148
        19        18        22        35     9        0.000000        0.836042         3    ;  uncertainty k = 0.075626
        19        18        22        35     9      180.000000       -0.210062         4    ;  uncertainty k = 0.047878
        20        14        13        27     9        0.000000       -0.388026         1    ;  uncertainty k = 0.271818
        20        14        13        27     9      180.000000        9.843061         2    ;  uncertainty k = 0.427435
        20        14        13        27     9        0.000000        0.955048         3    ;  uncertainty k = 0.236450
        20        14        13        27     9      180.000000        1.015023         4    ;  uncertainty k = 0.197015
        20        14        15        28     9        0.000000       -0.164895         1    ;  uncertainty k = 0.458055
        20        14        15        28     9      180.000000        8.717667         2    ;  uncertainty k = 0.312533
        20        14        15        28     9        0.000000        0.777600         3    ;  uncertainty k = 0.256890
        20        14        15        28     9      180.000000        0.897535         4    ;  uncertainty k = 0.157117
        21        18        19        36     9        0.000000       12.759508         1    ;  uncertainty k = 0.332957
        21        18        19        36     9      180.000000       -1.649955         2    ;  uncertainty k = 0.231795
        21        18        19        36     9        0.000000        1.060523         3    ;  uncertainty k = 0.154711
        21        18        19        36     9      180.000000        0.364004         4    ;  uncertainty k = 0.097016
        21        18        22        33     9        0.000000       -1.110670         1    ;  uncertainty k = 0.263181
        21        18        22        33     9      180.000000       -0.061370         2    ;  uncertainty k = 0.087557
        21        18        22        33     9        0.000000        0.738150         3    ;  uncertainty k = 0.074053
        21        18        22        33     9      180.000000       -0.030892         4    ;  uncertainty k = 0.055725
        21        18        22        34     9        0.000000       -1.110670         1    ;  uncertainty k = 0.263181
        21        18        22        34     9      180.000000       -0.061370         2    ;  uncertainty k = 0.087557
        21        18        22        34     9        0.000000        0.738150         3    ;  uncertainty k = 0.074053
        21        18        22        34     9      180.000000       -0.030892         4    ;  uncertainty k = 0.055725
        21        18        22        35     9        0.000000       -1.110670         1    ;  uncertainty k = 0.263181
        21        18        22        35     9      180.000000       -0.061370         2    ;  uncertainty k = 0.087557
        21        18        22        35     9        0.000000        0.738150         3    ;  uncertainty k = 0.074053
        21        18        22        35     9      180.000000       -0.030892         4    ;  uncertainty k = 0.055725
        22        18        19        36     9        0.000000       12.759508         1    ;  uncertainty k = 0.332957
        22        18        19        36     9      180.000000       -1.649955         2    ;  uncertainty k = 0.231795
        22        18        19        36     9        0.000000        1.060523         3    ;  uncertainty k = 0.154711
        22        18        19        36     9      180.000000        0.364004         4    ;  uncertainty k = 0.097016
        22        18        21        30     9        0.000000       -1.110670         1    ;  uncertainty k = 0.263181
        22        18        21        30     9      180.000000       -0.061370         2    ;  uncertainty k = 0.087557
        22        18        21        30     9        0.000000        0.738150         3    ;  uncertainty k = 0.074053
        22        18        21        30     9      180.000000       -0.030892         4    ;  uncertainty k = 0.055725
        22        18        21        31     9        0.000000       -1.110670         1    ;  uncertainty k = 0.263181
        22        18        21        31     9      180.000000       -0.061370         2    ;  uncertainty k = 0.087557
        22        18        21        31     9        0.000000        0.738150         3    ;  uncertainty k = 0.074053
        22        18        21        31     9      180.000000       -0.030892         4    ;  uncertainty k = 0.055725
        22        18        21        32     9        0.000000       -1.110670         1    ;  uncertainty k = 0.263181
        22        18        21        32     9      180.000000       -0.061370         2    ;  uncertainty k = 0.087557
        22        18        21        32     9        0.000000        0.738150         3    ;  uncertainty k = 0.074053
        22        18        21        32     9      180.000000       -0.030892         4    ;  uncertainty k = 0.055725
        23         3         6        25     9        0.000000       -0.192627         1    ;  uncertainty k = 0.230115
        23         3         6        25     9      180.000000        8.170222         2    ;  uncertainty k = 0.475780
        23         3         6        25     9        0.000000       -0.495218         3    ;  uncertainty k = 0.250133
        23         3         6        25     9      180.000000        0.231993         4    ;  uncertainty k = 0.209229
        28        15        16        29     9        0.000000       -0.169011         1    ;  uncertainty k = 0.251725
        28        15        16        29     9      180.000000        8.399339         2    ;  uncertainty k = 0.338024
        28        15        16        29     9        0.000000       -0.223565         3    ;  uncertainty k = 0.293096
        28        15        16        29     9      180.000000        0.239211         4    ;  uncertainty k = 0.177226

[ dihedrals ] ; impropers
;       ai        aj        ak        al funct           phase               k        pn
         1         2         3         4     4      180.000000       18.233960         2    ;  uncertainty k = 0.062266
         1         3         4         2     4      180.000000       18.233960         2    ;  uncertainty k = 0.062266
         1         4         2         3     4      180.000000       18.233960         2    ;  uncertainty k = 0.062266
         3         1         6        23     4      180.000000        3.645050         2    ;  uncertainty k = 0.189460
         3         6        23         1     4      180.000000        3.645050         2    ;  uncertainty k = 0.189460
         3        23         1         6     4      180.000000        3.645050         2    ;  uncertainty k = 0.189460
         4         1         8        10     4      180.000000       25.878916         2    ;  uncertainty k = 0.127412
         4         8        10         1     4      180.000000       25.878916         2    ;  uncertainty k = 0.127412
         4        10         1         8     4      180.000000       25.878916         2    ;  uncertainty k = 0.127412
         5         2         7        24     4      180.000000       13.454942         2    ;  uncertainty k = 0.131248
         5         7        24         2     4      180.000000       13.454942         2    ;  uncertainty k = 0.131248
         5        24         2         7     4      180.000000       13.454942         2    ;  uncertainty k = 0.131248
         6         3         7        25     4      180.000000        5.872518         2    ;  uncertainty k = 0.155112
         6         7        25         3     4      180.000000        5.872518         2    ;  uncertainty k = 0.155112
         6        25         3         7     4      180.000000        5.872518         2    ;  uncertainty k = 0.155112
         7         5         6        18     4      180.000000       11.272886         2    ;  uncertainty k = 0.057860
         7         6        18         5     4      180.000000       11.272886         2    ;  uncertainty k = 0.057860
         7        18         5         6     4      180.000000       11.272886         2    ;  uncertainty k = 0.057860
         8         4         9        26     4      180.000000        1.187012         2    ;  uncertainty k = 0.230213
         8         9        26         4     4      180.000000        1.187012         2    ;  uncertainty k = 0.230213
         8        26         4         9     4      180.000000        1.187012         2    ;  uncertainty k = 0.230213
         9         8        12        17     4      180.000000       50.271843         2    ;  uncertainty k = 0.015867
         9        12        17         8     4      180.000000       50.271843         2    ;  uncertainty k = 0.015867
         9        17         8        12     4      180.000000       50.271843         2    ;  uncertainty k = 0.015867
        11        10        12        16     4      180.000000       20.579203         2    ;  uncertainty k = 0.027238
        11        12        16        10     4      180.000000       20.579203         2    ;  uncertainty k = 0.027238
        11        16        10        12     4      180.000000       20.579203         2    ;  uncertainty k = 0.027238
        12         9        11        13     4      180.000000        5.563108         2    ;  uncertainty k = 0.345295
        12        11        13         9     4      180.000000        5.563108         2    ;  uncertainty k = 0.345295
        12        13         9        11     4      180.000000        5.563108         2    ;  uncertainty k = 0.345295
        13        12        14        27     4      180.000000        3.847248         2    ;  uncertainty k = 0.056781
        13        14        27        12     4      180.000000        3.847248         2    ;  uncertainty k = 0.056781
        13        27        12        14     4      180.000000        3.847248         2    ;  uncertainty k = 0.056781
        14        13        15        20     4      180.000000       16.721153         2    ;  uncertainty k = 0.059128
        14        15        20        13     4      180.000000       16.721153         2    ;  uncertainty k = 0.059128
        14        20        13        15     4      180.000000       16.721153         2    ;  uncertainty k = 0.059128
        15        14        16        28     4      180.000000        3.605829         2    ;  uncertainty k = 0.146573
        15        16        28        14     4      180.000000        3.605829         2    ;  uncertainty k = 0.146573
        15        28        14        16     4      180.000000        3.605829         2    ;  uncertainty k = 0.146573
        16        11        15        29     4      180.000000        3.151096         2    ;  uncertainty k = 0.254261
        16        15        29        11     4      180.000000        3.151096         2    ;  uncertainty k = 0.254261
        16        29        11        15     4      180.000000        3.151096         2    ;  uncertainty k = 0.254261

[ pairs ]
;       ai        aj funct
         1         7     1
         1         9     1
         1        11     1
         1        24     1
         1        25     1
         1        26     1
         2         6     1
         2         8     1
         2        10     1
         2        18     1
         2        23     1
         3         5     1
         3         8     1
         3        10     1
         3        18     1
         4         5     1
         4         6     1
         4        12     1
         4        16     1
         4        17     1
         4        23     1
         5        19     1
         5        21     1
         5        22     1
         5        25     1
         6        19     1
         6        21     1
         6        22     1
         6        24     1
         7        23     1
         7        30     1
         7        31     1
         7        32     1
         7        33     1
         7        34     1
         7        35     1
         7        36     1
         8        11     1
         8        13     1
         9        10     1
         9        14     1
         9        16     1
         9        27     1
        10        13     1
        10        15     1
        10        26     1
        10        29     1
        11        14     1
        11        17     1
        11        27     1
        11        28     1
        12        15     1
        12        20     1
        12        26     1
        12        29     1
        13        16     1
        13        17     1
        13        28     1
        14        29     1
        15        27     1
        16        20     1
        17        26     1
        18        24     1
        18        25     1
        19        30     1
        19        31     1
        19        32     1
        19        33     1
        19        34     1
        19        35     1
        20        27     1
        20        28     1
        21        33     1
        21        34     1
        21        35     1
        21        36     1
        22        30     1
        22        31     1
        22        32     1
        22        36     1
        23        25     1
        28        29     1
