; ITP file created by ByteFF-joint-25, 2026-02-17 09:50:24.058915

[ atomtypes ]
;name           bonded.type        at.num        mass        charge   ptype           sigma         epsilon
 c0bf                                   6      0.0000       0.00000       A     3.31509e-01     4.13389e-01    ;  uncertainty sigma = 0.000003, epsilon = 0.000662
 c1bf                                   6      0.0000       0.00000       A     3.31532e-01     4.13181e-01    ;  uncertainty sigma = 0.000010, epsilon = 0.000993
 c2bf                                   6      0.0000       0.00000       A     3.31523e-01     4.13317e-01    ;  uncertainty sigma = 0.000004, epsilon = 0.000533
 c3bf                                   6      0.0000       0.00000       A     3.31547e-01     4.13871e-01    ;  uncertainty sigma = 0.000010, epsilon = 0.000770
 n4bf                                   7      0.0000       0.00000       A     3.38420e-01     3.93559e-01    ;  uncertainty sigma = 0.000016, epsilon = 0.001456
 c5bf                                   6      0.0000       0.00000       A     3.31508e-01     4.13375e-01    ;  uncertainty sigma = 0.000006, epsilon = 0.000570
 c6bf                                   6      0.0000       0.00000       A     3.31514e-01     4.13380e-01    ;  uncertainty sigma = 0.000006, epsilon = 0.000759
 c7bf                                   6      0.0000       0.00000       A     3.31538e-01     4.13505e-01    ;  uncertainty sigma = 0.000008, epsilon = 0.001165
 n8bf                                   7      0.0000       0.00000       A     3.26867e-01     4.92512e-01    ;  uncertainty sigma = 0.000088, epsilon = 0.003430
 o9bf                                   8      0.0000       0.00000       A     3.04814e-01     6.11899e-01    ;  uncertainty sigma = 0.000014, epsilon = 0.001624
 c10bf                                  6      0.0000       0.00000       A     3.31512e-01     4.12851e-01    ;  uncertainty sigma = 0.000012, epsilon = 0.001342
 c11bf                                  6      0.0000       0.00000       A     3.31503e-01     4.12926e-01    ;  uncertainty sigma = 0.000017, epsilon = 0.001214
 c12bf                                  6      0.0000       0.00000       A     3.31521e-01     4.13221e-01    ;  uncertainty sigma = 0.000007, epsilon = 0.000531
 c13bf                                  6      0.0000       0.00000       A     3.31510e-01     4.13288e-01    ;  uncertainty sigma = 0.000007, epsilon = 0.000539
 c14bf                                  6      0.0000       0.00000       A     3.31520e-01     4.14308e-01    ;  uncertainty sigma = 0.000025, epsilon = 0.001437
 c15bf                                  6      0.0000       0.00000       A     3.31510e-01     4.13288e-01    ;  uncertainty sigma = 0.000007, epsilon = 0.000539
 c16bf                                  6      0.0000       0.00000       A     3.31521e-01     4.13221e-01    ;  uncertainty sigma = 0.000007, epsilon = 0.000531
 f17bf                                  9      0.0000       0.00000       A     3.03425e-01     3.47959e-01    ;  uncertainty sigma = 0.000016, epsilon = 0.000686
 n18bf                                  7      0.0000       0.00000       A     3.19351e-01     8.98957e-01    ;  uncertainty sigma = 0.000297, epsilon = 0.004846
 c19bf                                  6      0.0000       0.00000       A     3.39744e-01     4.51169e-01    ;  uncertainty sigma = 0.000015, epsilon = 0.000830
 c20bf                                  6      0.0000       0.00000       A     3.39767e-01     4.50823e-01    ;  uncertainty sigma = 0.000015, epsilon = 0.000828
 n21bf                                  7      0.0000       0.00000       A     2.58881e-01     1.06502e+01    ;  uncertainty sigma = 0.000040, epsilon = 0.001179
 c22bf                                  6      0.0000       0.00000       A     3.39767e-01     4.50823e-01    ;  uncertainty sigma = 0.000015, epsilon = 0.000828
 c23bf                                  6      0.0000       0.00000       A     3.39744e-01     4.51169e-01    ;  uncertainty sigma = 0.000015, epsilon = 0.000830
 c24bf                                  6      0.0000       0.00000       A     3.39781e-01     4.50860e-01    ;  uncertainty sigma = 0.000006, epsilon = 0.000464
 h25bf                                  1      0.0000       0.00000       A     2.62557e-01     6.70626e-02    ;  uncertainty sigma = 0.000009, epsilon = 0.000557
 h26bf                                  1      0.0000       0.00000       A     2.62584e-01     6.68454e-02    ;  uncertainty sigma = 0.000019, epsilon = 0.000520
 h27bf                                  1      0.0000       0.00000       A     1.10651e-01     4.13762e-02    ;  uncertainty sigma = 0.000058, epsilon = 0.001253
 h28bf                                  1      0.0000       0.00000       A     2.62560e-01     6.71048e-02    ;  uncertainty sigma = 0.000011, epsilon = 0.000616
 h29bf                                  1      0.0000       0.00000       A     2.62562e-01     6.71535e-02    ;  uncertainty sigma = 0.000014, epsilon = 0.000450
 h30bf                                  1      0.0000       0.00000       A     2.62562e-01     6.71535e-02    ;  uncertainty sigma = 0.000014, epsilon = 0.000450
 h31bf                                  1      0.0000       0.00000       A     2.62560e-01     6.71048e-02    ;  uncertainty sigma = 0.000011, epsilon = 0.000616
 h32bf                                  1      0.0000       0.00000       A     2.42246e-01     8.71276e-02    ;  uncertainty sigma = 0.000045, epsilon = 0.000667
 h33bf                                  1      0.0000       0.00000       A     2.42246e-01     8.71276e-02    ;  uncertainty sigma = 0.000045, epsilon = 0.000667
 h34bf                                  1      0.0000       0.00000       A     1.88796e-01     8.67689e-02    ;  uncertainty sigma = 0.000038, epsilon = 0.000621
 h35bf                                  1      0.0000       0.00000       A     1.88796e-01     8.67689e-02    ;  uncertainty sigma = 0.000038, epsilon = 0.000621
 h36bf                                  1      0.0000       0.00000       A     1.88796e-01     8.67689e-02    ;  uncertainty sigma = 0.000038, epsilon = 0.000621
 h37bf                                  1      0.0000       0.00000       A     1.88796e-01     8.67689e-02    ;  uncertainty sigma = 0.000038, epsilon = 0.000621
 h38bf                                  1      0.0000       0.00000       A     2.42246e-01     8.71276e-02    ;  uncertainty sigma = 0.000045, epsilon = 0.000667
 h39bf                                  1      0.0000       0.00000       A     2.42246e-01     8.71276e-02    ;  uncertainty sigma = 0.000045, epsilon = 0.000667
 h40bf                                  1      0.0000       0.00000       A     1.88744e-01     8.64263e-02    ;  uncertainty sigma = 0.000038, epsilon = 0.000477
 h41bf                                  1      0.0000       0.00000       A     1.88744e-01     8.64263e-02    ;  uncertainty sigma = 0.000038, epsilon = 0.000477
 h42bf                                  1      0.0000       0.00000       A     1.88744e-01     8.64263e-02    ;  uncertainty sigma = 0.000038, epsilon = 0.000477
 h43bf                                  1      0.0000       0.00000       A     1.10667e-01     4.11537e-02    ;  uncertainty sigma = 0.000102, epsilon = 0.000787
 h44bf                                  1      0.0000       0.00000       A     2.62558e-01     6.69934e-02    ;  uncertainty sigma = 0.000012, epsilon = 0.000629

[ moleculetype ]
;name             nrexcl
 MOL                   3

[ atoms ]
;       nr            type      resi   res      atom      cgnr      charge          mass ; qtot
         1            c0bf         1   UNL        c0         1    -0.10135       12.0110 ; qtot   -0.101
         2            c1bf         1   UNL        c1         2     0.17920       12.0110 ; qtot    0.078
         3            c2bf         1   UNL        c2         3    -0.12598       12.0110 ; qtot   -0.048
         4            c3bf         1   UNL        c3         4    -0.18212       12.0110 ; qtot   -0.230
         5            n4bf         1   UNL        n4         5    -0.62332       14.0070 ; qtot   -0.854
         6            c5bf         1   UNL        c5         6     0.10691       12.0110 ; qtot   -0.747
         7            c6bf         1   UNL        c6         7    -0.09763       12.0110 ; qtot   -0.844
         8            c7bf         1   UNL        c7         8     0.71928       12.0110 ; qtot   -0.125
         9            n8bf         1   UNL        n8         9    -0.50680       14.0070 ; qtot   -0.632
        10            o9bf         1   UNL        o9        10    -0.60449       15.9990 ; qtot   -1.236
        11           c10bf         1   UNL       c10        11     0.56801       12.0110 ; qtot   -0.668
        12           c11bf         1   UNL       c11        12    -0.17282       12.0110 ; qtot   -0.841
        13           c12bf         1   UNL       c12        13    -0.05267       12.0110 ; qtot   -0.894
        14           c13bf         1   UNL       c13        14    -0.17391       12.0110 ; qtot   -1.068
        15           c14bf         1   UNL       c14        15     0.13320       12.0110 ; qtot   -0.934
        16           c15bf         1   UNL       c15        16    -0.17391       12.0110 ; qtot   -1.108
        17           c16bf         1   UNL       c16        17    -0.05267       12.0110 ; qtot   -1.161
        18           f17bf         1   UNL       f17        18    -0.13638       18.9980 ; qtot   -1.297
        19           n18bf         1   UNL       n18        19    -0.65683       14.0070 ; qtot   -1.954
        20           c19bf         1   UNL       c19        20     0.17259       12.0110 ; qtot   -1.782
        21           c20bf         1   UNL       c20        21     0.12422       12.0110 ; qtot   -1.657
        22           n21bf         1   UNL       n21        22    -0.71099       14.0070 ; qtot   -2.368
        23           c22bf         1   UNL       c22        23     0.12422       12.0110 ; qtot   -2.244
        24           c23bf         1   UNL       c23        24     0.17259       12.0110 ; qtot   -2.072
        25           c24bf         1   UNL       c24        25     0.11438       12.0110 ; qtot   -1.957
        26           h25bf         1   UNL       h25        26     0.15611        1.0080 ; qtot   -1.801
        27           h26bf         1   UNL       h26        27     0.17554        1.0080 ; qtot   -1.626
        28           h27bf         1   UNL       h27        28     0.33625        1.0080 ; qtot   -1.289
        29           h28bf         1   UNL       h28        29     0.14721        1.0080 ; qtot   -1.142
        30           h29bf         1   UNL       h29        30     0.13159        1.0080 ; qtot   -1.011
        31           h30bf         1   UNL       h30        31     0.13159        1.0080 ; qtot   -0.879
        32           h31bf         1   UNL       h31        32     0.14721        1.0080 ; qtot   -0.732
        33           h32bf         1   UNL       h32        33     0.09385        1.0080 ; qtot   -0.638
        34           h33bf         1   UNL       h33        34     0.09385        1.0080 ; qtot   -0.544
        35           h34bf         1   UNL       h34        35     0.10740        1.0080 ; qtot   -0.437
        36           h35bf         1   UNL       h35        36     0.10740        1.0080 ; qtot   -0.329
        37           h36bf         1   UNL       h36        37     0.10740        1.0080 ; qtot   -0.222
        38           h37bf         1   UNL       h37        38     0.10740        1.0080 ; qtot   -0.114
        39           h38bf         1   UNL       h38        39     0.09385        1.0080 ; qtot   -0.021
        40           h39bf         1   UNL       h39        40     0.09385        1.0080 ; qtot    0.073
        41           h40bf         1   UNL       h40        41     0.10378        1.0080 ; qtot    0.177
        42           h41bf         1   UNL       h41        42     0.10378        1.0080 ; qtot    0.281
        43           h42bf         1   UNL       h42        43     0.10378        1.0080 ; qtot    0.385
        44           h43bf         1   UNL       h43        44     0.45566        1.0080 ; qtot    0.840
        45           h44bf         1   UNL       h44        45     0.15977        1.0080 ; qtot    1.000

[ bonds ]
;       ai        aj funct               r               k
         1         2     1        0.140964   350832.205029    ;  uncertainty r = 0.000032, k = 4.629232
         1         3     1        0.138302   386095.505566    ;  uncertainty r = 0.000059, k = 4.599888
         1        45     1        0.108708   336704.641992    ;  uncertainty r = 0.000019, k = 1.942411
         2         4     1        0.141709   385237.969434    ;  uncertainty r = 0.000054, k = 10.311958
         2         5     1        0.138675   292907.452393    ;  uncertainty r = 0.000100, k = 22.573795
         3         6     1        0.140315   344554.851563    ;  uncertainty r = 0.000060, k = 7.146609
         3        26     1        0.108763   336320.308496    ;  uncertainty r = 0.000023, k = 0.938600
         4         7     1        0.139898   369180.720264    ;  uncertainty r = 0.000058, k = 4.441355
         4         8     1        0.146536   264613.892969    ;  uncertainty r = 0.000056, k = 18.208748
         5        11     1        0.129809   466468.756348    ;  uncertainty r = 0.000049, k = 7.919414
         6         7     1        0.138124   355371.196387    ;  uncertainty r = 0.000071, k = 8.089235
         6        18     1        0.135438   338566.118506    ;  uncertainty r = 0.000088, k = 4.182305
         7        27     1        0.108596   333125.437354    ;  uncertainty r = 0.000025, k = 2.230261
         8         9     1        0.140241   444690.658398    ;  uncertainty r = 0.000073, k = 13.079046
         8        10     1        0.123441   857064.411328    ;  uncertainty r = 0.000099, k = 12.610759
         9        11     1        0.139072   297625.382275    ;  uncertainty r = 0.000069, k = 20.066683
         9        28     1        0.102058   454589.659180    ;  uncertainty r = 0.000027, k = 4.102090
        11        12     1        0.147206   269148.491943    ;  uncertainty r = 0.000100, k = 11.917880
        12        13     1        0.139995   349975.869141    ;  uncertainty r = 0.000087, k = 1.917708
        12        17     1        0.139995   349975.869141    ;  uncertainty r = 0.000087, k = 1.917708
        13        14     1        0.138785   358013.853076    ;  uncertainty r = 0.000052, k = 6.272952
        13        29     1        0.108703   332360.294482    ;  uncertainty r = 0.000039, k = 0.855964
        14        15     1        0.140292   353378.995410    ;  uncertainty r = 0.000135, k = 7.672536
        14        30     1        0.108867   337753.170166    ;  uncertainty r = 0.000052, k = 1.869488
        15        16     1        0.140292   353378.995410    ;  uncertainty r = 0.000135, k = 7.672538
        15        19     1        0.142787   333801.328027    ;  uncertainty r = 0.000221, k = 17.391788
        16        17     1        0.138785   358013.853076    ;  uncertainty r = 0.000052, k = 6.272952
        16        31     1        0.108867   337753.195703    ;  uncertainty r = 0.000052, k = 1.869473
        17        32     1        0.108703   332360.294482    ;  uncertainty r = 0.000039, k = 0.855951
        19        20     1        0.145472   274606.359570    ;  uncertainty r = 0.000086, k = 12.854378
        19        24     1        0.145472   274606.359570    ;  uncertainty r = 0.000086, k = 12.854350
        20        21     1        0.153172   209651.457788    ;  uncertainty r = 0.000093, k = 12.418840
        20        33     1        0.109709   308999.789551    ;  uncertainty r = 0.000039, k = 4.661972
        20        34     1        0.109709   308999.789551    ;  uncertainty r = 0.000039, k = 4.661972
        21        22     1        0.151727   180224.203931    ;  uncertainty r = 0.000082, k = 21.188804
        21        35     1        0.109136   312296.426074    ;  uncertainty r = 0.000030, k = 2.201238
        21        36     1        0.109136   312296.426074    ;  uncertainty r = 0.000030, k = 2.201219
        22        23     1        0.151727   180224.203931    ;  uncertainty r = 0.000082, k = 21.188737
        22        25     1        0.150407   205691.635303    ;  uncertainty r = 0.000063, k = 20.938905
        22        44     1        0.102876   383403.996387    ;  uncertainty r = 0.000036, k = 3.619356
        23        24     1        0.153172   209651.457788    ;  uncertainty r = 0.000093, k = 12.418844
        23        37     1        0.109136   312296.426074    ;  uncertainty r = 0.000030, k = 2.201219
        23        38     1        0.109136   312296.426074    ;  uncertainty r = 0.000030, k = 2.201219
        24        39     1        0.109709   308999.764014    ;  uncertainty r = 0.000039, k = 4.661977
        24        40     1        0.109709   308999.764014    ;  uncertainty r = 0.000039, k = 4.661977
        25        41     1        0.108997   315136.433545    ;  uncertainty r = 0.000021, k = 4.095509
        25        42     1        0.108997   315136.433545    ;  uncertainty r = 0.000021, k = 4.095509
        25        43     1        0.108997   315136.433545    ;  uncertainty r = 0.000021, k = 4.095509

[ angles ]
;       ai        aj        ak funct           theta             cth
         1         2         4     1      119.134995      405.934571    ;  uncertainty theta = 0.003584, k = 0.232361
         1         2         5     1      119.959961      511.287405    ;  uncertainty theta = 0.010093, k = 0.072566
         1         3         6     1      119.123047      505.026663    ;  uncertainty theta = 0.003003, k = 0.103093
         1         3        26     1      120.849144      280.086036    ;  uncertainty theta = 0.001540, k = 0.061482
         2         1         3     1      119.036095      531.350028    ;  uncertainty theta = 0.002742, k = 0.145844
         2         1        45     1      120.508751      271.483126    ;  uncertainty theta = 0.003274, k = 0.096144
         2         4         7     1      121.777733      434.510277    ;  uncertainty theta = 0.001655, k = 0.211458
         2         4         8     1      117.297508      491.962516    ;  uncertainty theta = 0.006380, k = 0.238428
         2         5        11     1      115.240494      416.803867    ;  uncertainty theta = 0.006032, k = 0.412033
         3         1        45     1      121.081863      277.905199    ;  uncertainty theta = 0.001912, k = 0.023135
         3         6         7     1      124.230835      391.108491    ;  uncertainty theta = 0.005452, k = 0.270460
         3         6        18     1      118.443443      514.743533    ;  uncertainty theta = 0.002026, k = 0.040363
         4         2         5     1      123.497696      569.871194    ;  uncertainty theta = 0.006306, k = 0.143327
         4         7         6     1      118.287453      472.119161    ;  uncertainty theta = 0.002924, k = 0.132691
         4         7        27     1      120.828979      247.606536    ;  uncertainty theta = 0.006275, k = 0.079914
         4         8         9     1      108.865517      389.724125    ;  uncertainty theta = 0.007726, k = 0.270666
         4         8        10     1      128.088593      510.903263    ;  uncertainty theta = 0.002915, k = 0.145050
         5        11         9     1      123.678001      679.251166    ;  uncertainty theta = 0.005921, k = 0.135841
         5        11        12     1      122.712082      447.681009    ;  uncertainty theta = 0.003701, k = 0.159155
         6         3        26     1      120.507347      283.187997    ;  uncertainty theta = 0.002009, k = 0.088221
         6         7        27     1      121.686180      281.539576    ;  uncertainty theta = 0.002737, k = 0.087293
         7         4         8     1      117.958511      397.006702    ;  uncertainty theta = 0.003688, k = 0.159108
         7         6        18     1      118.829163      496.180609    ;  uncertainty theta = 0.001386, k = 0.097184
         8         9        11     1      121.146103      496.022693    ;  uncertainty theta = 0.003149, k = 0.185690
         8         9        28     1      115.307518      352.933705    ;  uncertainty theta = 0.006787, k = 0.132391
         9         8        10     1      124.920670      821.839978    ;  uncertainty theta = 0.002935, k = 0.080730
         9        11        12     1      116.676109      516.125825    ;  uncertainty theta = 0.005541, k = 0.236727
        11         9        28     1      116.804947      331.084697    ;  uncertainty theta = 0.006464, k = 0.239703
        11        12        13     1      118.043594      401.262014    ;  uncertainty theta = 0.003089, k = 0.107719
        11        12        17     1      118.043594      401.262014    ;  uncertainty theta = 0.003089, k = 0.107719
        12        13        14     1      122.917526      513.807056    ;  uncertainty theta = 0.002336, k = 0.113041
        12        13        29     1      118.225731      268.005898    ;  uncertainty theta = 0.002982, k = 0.073775
        12        17        16     1      122.917526      513.807056    ;  uncertainty theta = 0.002336, k = 0.113041
        12        17        32     1      118.225731      268.005898    ;  uncertainty theta = 0.002982, k = 0.073775
        13        12        17     1      120.858437      429.279670    ;  uncertainty theta = 0.002284, k = 0.221084
        13        14        15     1      120.921677      525.173463    ;  uncertainty theta = 0.003555, k = 0.088975
        13        14        30     1      120.013268      289.283162    ;  uncertainty theta = 0.002360, k = 0.065711
        14        13        29     1      120.248764      282.803504    ;  uncertainty theta = 0.003214, k = 0.092730
        14        15        16     1      119.618446      349.747504    ;  uncertainty theta = 0.005467, k = 0.321049
        14        15        19     1      122.426537      460.655297    ;  uncertainty theta = 0.002701, k = 0.187216
        15        14        30     1      118.949631      277.320590    ;  uncertainty theta = 0.001219, k = 0.111692
        15        16        17     1      120.921677      525.173463    ;  uncertainty theta = 0.003555, k = 0.088975
        15        16        31     1      118.949631      277.320590    ;  uncertainty theta = 0.001219, k = 0.111692
        15        19        20     1      111.575050      437.756874    ;  uncertainty theta = 0.004165, k = 0.107788
        15        19        24     1      111.575050      437.756937    ;  uncertainty theta = 0.004165, k = 0.107788
        16        15        19     1      122.426537      460.655297    ;  uncertainty theta = 0.002701, k = 0.187216
        16        17        32     1      120.248764      282.803504    ;  uncertainty theta = 0.003214, k = 0.092730
        17        16        31     1      120.013268      289.283162    ;  uncertainty theta = 0.002360, k = 0.065711
        19        20        21     1      109.690758      678.136471    ;  uncertainty theta = 0.004157, k = 0.178954
        19        20        33     1      109.078247      456.505102    ;  uncertainty theta = 0.002708, k = 0.059314
        19        20        34     1      109.078247      456.505102    ;  uncertainty theta = 0.002708, k = 0.059314
        19        24        23     1      109.690758      678.136471    ;  uncertainty theta = 0.004157, k = 0.178954
        19        24        39     1      109.078247      456.505134    ;  uncertainty theta = 0.002708, k = 0.059314
        19        24        40     1      109.078247      456.505134    ;  uncertainty theta = 0.002708, k = 0.059314
        20        19        24     1      105.334633      433.701517    ;  uncertainty theta = 0.012581, k = 0.180050
        20        21        22     1      109.524094      695.565995    ;  uncertainty theta = 0.003056, k = 0.173935
        20        21        35     1      110.979431      404.054593    ;  uncertainty theta = 0.002556, k = 0.059508
        20        21        36     1      110.979431      404.054593    ;  uncertainty theta = 0.002556, k = 0.059508
        21        20        33     1      108.353661      420.124585    ;  uncertainty theta = 0.000757, k = 0.102440
        21        20        34     1      108.353661      420.124585    ;  uncertainty theta = 0.000757, k = 0.102440
        21        22        23     1      111.061707      629.182662    ;  uncertainty theta = 0.006302, k = 0.200109
        21        22        25     1      112.145241      646.110510    ;  uncertainty theta = 0.002805, k = 0.156652
        21        22        44     1      106.727951      441.633566    ;  uncertainty theta = 0.003897, k = 0.191867
        22        21        35     1      106.557762      467.024284    ;  uncertainty theta = 0.002749, k = 0.128282
        22        21        36     1      106.557762      467.024284    ;  uncertainty theta = 0.002749, k = 0.128282
        22        23        24     1      109.524109      695.565931    ;  uncertainty theta = 0.003056, k = 0.173935
        22        23        37     1      106.557762      467.024284    ;  uncertainty theta = 0.002749, k = 0.128282
        22        23        38     1      106.557762      467.024284    ;  uncertainty theta = 0.002749, k = 0.128282
        22        25        41     1      107.999168      472.858492    ;  uncertainty theta = 0.002431, k = 0.070588
        22        25        42     1      107.999168      472.858492    ;  uncertainty theta = 0.002431, k = 0.070588
        22        25        43     1      107.999168      472.858492    ;  uncertainty theta = 0.002431, k = 0.070588
        23        22        25     1      112.145241      646.110638    ;  uncertainty theta = 0.002805, k = 0.156652
        23        22        44     1      106.727951      441.633566    ;  uncertainty theta = 0.003897, k = 0.191867
        23        24        39     1      108.353661      420.124649    ;  uncertainty theta = 0.000757, k = 0.102440
        23        24        40     1      108.353661      420.124649    ;  uncertainty theta = 0.000757, k = 0.102440
        24        23        37     1      110.979431      404.054593    ;  uncertainty theta = 0.002556, k = 0.059508
        24        23        38     1      110.979431      404.054593    ;  uncertainty theta = 0.002556, k = 0.059508
        25        22        44     1      106.585144      457.162874    ;  uncertainty theta = 0.003657, k = 0.168387
        33        20        34     1      106.119186      318.742963    ;  uncertainty theta = 0.001976, k = 0.084293
        35        21        36     1      108.202126      323.802886    ;  uncertainty theta = 0.004327, k = 0.069539
        37        23        38     1      108.202126      323.802886    ;  uncertainty theta = 0.004327, k = 0.069539
        39        24        40     1      106.119186      318.742963    ;  uncertainty theta = 0.001976, k = 0.084293
        41        25        42     1      108.552261      323.952150    ;  uncertainty theta = 0.003725, k = 0.034987
        41        25        43     1      108.552261      323.952150    ;  uncertainty theta = 0.003725, k = 0.034987
        42        25        43     1      108.552261      323.952150    ;  uncertainty theta = 0.003725, k = 0.034987

[ dihedrals ] ; propers for gromacs 4.5 or higher, use funct 9
;       ai        aj        ak        al funct           phase               k        pn
         1         2         4         7     9        0.000000       -0.184790         1    ;  uncertainty k = 0.321486
         1         2         4         7     9      180.000000        7.012765         2    ;  uncertainty k = 0.723269
         1         2         4         7     9        0.000000        0.265657         3    ;  uncertainty k = 0.306559
         1         2         4         7     9      180.000000        1.386198         4    ;  uncertainty k = 0.296939
         1         2         4         8     9        0.000000        0.070955         1    ;  uncertainty k = 0.503067
         1         2         4         8     9      180.000000        6.603892         2    ;  uncertainty k = 0.839765
         1         2         4         8     9        0.000000        0.947610         3    ;  uncertainty k = 0.295938
         1         2         4         8     9      180.000000        1.416061         4    ;  uncertainty k = 0.193480
         1         2         5        11     9        0.000000        1.403110         1    ;  uncertainty k = 1.780173
         1         2         5        11     9      180.000000        5.574977         2    ;  uncertainty k = 0.974761
         1         2         5        11     9        0.000000        2.281849         3    ;  uncertainty k = 0.367388
         1         2         5        11     9      180.000000        0.378300         4    ;  uncertainty k = 0.419358
         1         3         6         7     9        0.000000       -0.037320         1    ;  uncertainty k = 0.446590
         1         3         6         7     9      180.000000        7.190768         2    ;  uncertainty k = 0.575230
         1         3         6         7     9        0.000000        0.100290         3    ;  uncertainty k = 0.435788
         1         3         6         7     9      180.000000        1.245216         4    ;  uncertainty k = 0.285117
         1         3         6        18     9        0.000000       -0.122892         1    ;  uncertainty k = 0.197615
         1         3         6        18     9      180.000000       10.863912         2    ;  uncertainty k = 0.566594
         1         3         6        18     9        0.000000        1.520436         3    ;  uncertainty k = 0.425418
         1         3         6        18     9      180.000000        1.527117         4    ;  uncertainty k = 0.291310
         2         1         3         6     9        0.000000       -0.057073         1    ;  uncertainty k = 0.150985
         2         1         3         6     9      180.000000       15.642469         2    ;  uncertainty k = 0.154884
         2         1         3         6     9        0.000000       -0.221494         3    ;  uncertainty k = 0.546048
         2         1         3         6     9      180.000000        0.972330         4    ;  uncertainty k = 0.230431
         2         1         3        26     9        0.000000        0.150631         1    ;  uncertainty k = 0.194735
         2         1         3        26     9      180.000000        9.803223         2    ;  uncertainty k = 0.267504
         2         1         3        26     9        0.000000        1.485879         3    ;  uncertainty k = 0.156851
         2         1         3        26     9      180.000000        1.684062         4    ;  uncertainty k = 0.083206
         2         4         7         6     9        0.000000        0.050628         1    ;  uncertainty k = 0.400123
         2         4         7         6     9      180.000000       11.708080         2    ;  uncertainty k = 0.364861
         2         4         7         6     9        0.000000       -0.278443         3    ;  uncertainty k = 0.242420
         2         4         7         6     9      180.000000        1.120413         4    ;  uncertainty k = 0.208216
         2         4         7        27     9        0.000000        0.041981         1    ;  uncertainty k = 0.435749
         2         4         7        27     9      180.000000        7.322408         2    ;  uncertainty k = 0.745969
         2         4         7        27     9        0.000000        1.367994         3    ;  uncertainty k = 0.302457
         2         4         7        27     9      180.000000        1.425752         4    ;  uncertainty k = 0.115038
         2         4         8         9     9        0.000000       -1.193949         1    ;  uncertainty k = 0.844290
         2         4         8         9     9      180.000000        2.489746         2    ;  uncertainty k = 0.691617
         2         4         8         9     9        0.000000       -0.230394         3    ;  uncertainty k = 0.457346
         2         4         8         9     9      180.000000        0.546888         4    ;  uncertainty k = 0.237414
         2         4         8        10     9        0.000000       -2.356332         1    ;  uncertainty k = 0.972286
         2         4         8        10     9      180.000000        4.954601         2    ;  uncertainty k = 0.587205
         2         4         8        10     9        0.000000        0.258129         3    ;  uncertainty k = 0.265379
         2         4         8        10     9      180.000000       -0.085012         4    ;  uncertainty k = 0.204923
         2         5        11         9     9        0.000000       -0.806560         1    ;  uncertainty k = 0.443205
         2         5        11         9     9      180.000000       23.923140         2    ;  uncertainty k = 0.167277
         2         5        11         9     9        0.000000        1.746404         3    ;  uncertainty k = 0.254558
         2         5        11         9     9      180.000000        1.448584         4    ;  uncertainty k = 0.448997
         2         5        11        12     9        0.000000       -0.695984         1    ;  uncertainty k = 0.864327
         2         5        11        12     9      180.000000       19.223981         2    ;  uncertainty k = 0.453281
         2         5        11        12     9        0.000000        2.708676         3    ;  uncertainty k = 0.475640
         2         5        11        12     9      180.000000        1.348033         4    ;  uncertainty k = 0.322002
         3         1         2         4     9        0.000000        0.299010         1    ;  uncertainty k = 0.441394
         3         1         2         4     9      180.000000        8.793316         2    ;  uncertainty k = 0.480346
         3         1         2         4     9        0.000000       -0.398610         3    ;  uncertainty k = 0.171035
         3         1         2         4     9      180.000000        1.079569         4    ;  uncertainty k = 0.206112
         3         1         2         5     9        0.000000        0.123441         1    ;  uncertainty k = 0.423850
         3         1         2         5     9      180.000000       10.614146         2    ;  uncertainty k = 0.337062
         3         1         2         5     9        0.000000        0.825517         3    ;  uncertainty k = 0.234227
         3         1         2         5     9      180.000000        1.460557         4    ;  uncertainty k = 0.150431
         3         6         7         4     9        0.000000        0.014580         1    ;  uncertainty k = 0.406168
         3         6         7         4     9      180.000000        8.580803         2    ;  uncertainty k = 0.496282
         3         6         7         4     9        0.000000        0.411247         3    ;  uncertainty k = 0.429260
         3         6         7         4     9      180.000000        1.349937         4    ;  uncertainty k = 0.402939
         3         6         7        27     9        0.000000        0.166988         1    ;  uncertainty k = 0.092153
         3         6         7        27     9      180.000000        6.142410         2    ;  uncertainty k = 0.526407
         3         6         7        27     9        0.000000        1.428280         3    ;  uncertainty k = 0.294529
         3         6         7        27     9      180.000000        1.629598         4    ;  uncertainty k = 0.083727
         4         2         1        45     9        0.000000       -0.086630         1    ;  uncertainty k = 0.278043
         4         2         1        45     9      180.000000        5.469934         2    ;  uncertainty k = 0.424640
         4         2         1        45     9        0.000000        1.374954         3    ;  uncertainty k = 0.418873
         4         2         1        45     9      180.000000        1.196756         4    ;  uncertainty k = 0.132430
         4         2         5        11     9        0.000000        1.795741         1    ;  uncertainty k = 2.236194
         4         2         5        11     9      180.000000        3.972890         2    ;  uncertainty k = 1.621073
         4         2         5        11     9        0.000000        1.402420         3    ;  uncertainty k = 0.568804
         4         2         5        11     9      180.000000        0.447823         4    ;  uncertainty k = 0.482506
         4         7         6        18     9        0.000000        0.052940         1    ;  uncertainty k = 0.279630
         4         7         6        18     9      180.000000       14.300887         2    ;  uncertainty k = 0.204150
         4         7         6        18     9        0.000000        1.453226         3    ;  uncertainty k = 0.306010
         4         7         6        18     9      180.000000        1.325492         4    ;  uncertainty k = 0.084421
         4         8         9        11     9        0.000000        0.299155         1    ;  uncertainty k = 1.495458
         4         8         9        11     9      180.000000        4.160269         2    ;  uncertainty k = 1.161050
         4         8         9        11     9        0.000000        0.720046         3    ;  uncertainty k = 0.199570
         4         8         9        11     9      180.000000        0.476898         4    ;  uncertainty k = 0.377921
         4         8         9        28     9        0.000000        2.496625         1    ;  uncertainty k = 2.318088
         4         8         9        28     9      180.000000        5.316572         2    ;  uncertainty k = 0.889294
         4         8         9        28     9        0.000000        1.796287         3    ;  uncertainty k = 0.190470
         4         8         9        28     9      180.000000       -0.030160         4    ;  uncertainty k = 0.088266
         5         2         1        45     9        0.000000       -0.532603         1    ;  uncertainty k = 0.678536
         5         2         1        45     9      180.000000        7.650950         2    ;  uncertainty k = 0.346838
         5         2         1        45     9        0.000000        1.209870         3    ;  uncertainty k = 0.365776
         5         2         1        45     9      180.000000        1.221244         4    ;  uncertainty k = 0.215969
         5         2         4         7     9        0.000000        0.049402         1    ;  uncertainty k = 0.402186
         5         2         4         7     9      180.000000        8.514216         2    ;  uncertainty k = 0.717814
         5         2         4         7     9        0.000000        0.658246         3    ;  uncertainty k = 0.224700
         5         2         4         7     9      180.000000        1.431737         4    ;  uncertainty k = 0.311120
         5         2         4         8     9        0.000000       -0.183103         1    ;  uncertainty k = 0.431012
         5         2         4         8     9      180.000000        7.575105         2    ;  uncertainty k = 0.899866
         5         2         4         8     9        0.000000        0.995014         3    ;  uncertainty k = 0.432246
         5         2         4         8     9      180.000000        1.496214         4    ;  uncertainty k = 0.209473
         5        11         9         8     9        0.000000        0.194990         1    ;  uncertainty k = 0.883244
         5        11         9         8     9      180.000000        7.090508         2    ;  uncertainty k = 0.650035
         5        11         9         8     9        0.000000        0.606196         3    ;  uncertainty k = 0.671787
         5        11         9         8     9      180.000000        0.383228         4    ;  uncertainty k = 0.217670
         5        11         9        28     9        0.000000        5.758950         1    ;  uncertainty k = 1.531635
         5        11         9        28     9      180.000000       10.846313         2    ;  uncertainty k = 0.608795
         5        11         9        28     9        0.000000        1.244464         3    ;  uncertainty k = 0.560006
         5        11         9        28     9      180.000000       -0.235958         4    ;  uncertainty k = 0.089809
         5        11        12        13     9        0.000000        0.768361         1    ;  uncertainty k = 0.701614
         5        11        12        13     9      180.000000        4.090085         2    ;  uncertainty k = 0.324899
         5        11        12        13     9        0.000000        0.583412         3    ;  uncertainty k = 0.176292
         5        11        12        13     9      180.000000       -0.135381         4    ;  uncertainty k = 0.165094
         5        11        12        17     9        0.000000        0.768361         1    ;  uncertainty k = 0.701614
         5        11        12        17     9      180.000000        4.090085         2    ;  uncertainty k = 0.324899
         5        11        12        17     9        0.000000        0.583412         3    ;  uncertainty k = 0.176292
         5        11        12        17     9      180.000000       -0.135381         4    ;  uncertainty k = 0.165094
         6         3         1        45     9        0.000000       -0.011413         1    ;  uncertainty k = 0.293285
         6         3         1        45     9      180.000000        9.463462         2    ;  uncertainty k = 0.336795
         6         3         1        45     9        0.000000        1.362115         3    ;  uncertainty k = 0.433380
         6         3         1        45     9      180.000000        1.933407         4    ;  uncertainty k = 0.228211
         6         7         4         8     9        0.000000        0.264940         1    ;  uncertainty k = 0.246431
         6         7         4         8     9      180.000000        9.013462         2    ;  uncertainty k = 0.640345
         6         7         4         8     9        0.000000        1.402405         3    ;  uncertainty k = 0.236211
         6         7         4         8     9      180.000000        1.807428         4    ;  uncertainty k = 0.213904
         7         4         8         9     9        0.000000        0.354863         1    ;  uncertainty k = 0.703754
         7         4         8         9     9      180.000000        2.980996         2    ;  uncertainty k = 0.626009
         7         4         8         9     9        0.000000        0.683030         3    ;  uncertainty k = 0.504923
         7         4         8         9     9      180.000000        0.519281         4    ;  uncertainty k = 0.265179
         7         4         8        10     9        0.000000       -1.911914         1    ;  uncertainty k = 0.521653
         7         4         8        10     9      180.000000        5.458000         2    ;  uncertainty k = 0.685108
         7         4         8        10     9        0.000000        0.514570         3    ;  uncertainty k = 0.325112
         7         4         8        10     9      180.000000       -0.138469         4    ;  uncertainty k = 0.135496
         7         6         3        26     9        0.000000       -0.021607         1    ;  uncertainty k = 0.306379
         7         6         3        26     9      180.000000        5.222009         2    ;  uncertainty k = 0.775374
         7         6         3        26     9        0.000000        1.141407         3    ;  uncertainty k = 0.190575
         7         6         3        26     9      180.000000        1.375914         4    ;  uncertainty k = 0.167968
         8         4         7        27     9        0.000000       -0.388183         1    ;  uncertainty k = 0.709543
         8         4         7        27     9      180.000000        7.471749         2    ;  uncertainty k = 0.400570
         8         4         7        27     9        0.000000        0.936545         3    ;  uncertainty k = 0.220276
         8         4         7        27     9      180.000000        1.188458         4    ;  uncertainty k = 0.138463
         8         9        11        12     9        0.000000        1.082556         1    ;  uncertainty k = 0.793619
         8         9        11        12     9      180.000000        5.405041         2    ;  uncertainty k = 0.790914
         8         9        11        12     9        0.000000        0.524392         3    ;  uncertainty k = 0.349352
         8         9        11        12     9      180.000000       -0.086386         4    ;  uncertainty k = 0.311581
         9        11        12        13     9        0.000000        0.084938         1    ;  uncertainty k = 0.354983
         9        11        12        13     9      180.000000        4.294182         2    ;  uncertainty k = 0.399585
         9        11        12        13     9        0.000000        0.578568         3    ;  uncertainty k = 0.115233
         9        11        12        13     9      180.000000       -0.106439         4    ;  uncertainty k = 0.051775
         9        11        12        17     9        0.000000        0.084938         1    ;  uncertainty k = 0.354983
         9        11        12        17     9      180.000000        4.294182         2    ;  uncertainty k = 0.399585
         9        11        12        17     9        0.000000        0.578568         3    ;  uncertainty k = 0.115233
         9        11        12        17     9      180.000000       -0.106439         4    ;  uncertainty k = 0.051775
        10         8         9        11     9        0.000000        0.129290         1    ;  uncertainty k = 1.265351
        10         8         9        11     9      180.000000       11.179130         2    ;  uncertainty k = 0.473645
        10         8         9        11     9        0.000000        1.319941         3    ;  uncertainty k = 0.341337
        10         8         9        11     9      180.000000       -0.489621         4    ;  uncertainty k = 0.399230
        10         8         9        28     9        0.000000        1.499196         1    ;  uncertainty k = 2.518562
        10         8         9        28     9      180.000000        9.178552         2    ;  uncertainty k = 0.611521
        10         8         9        28     9        0.000000        0.741428         3    ;  uncertainty k = 0.511189
        10         8         9        28     9      180.000000       -0.114754         4    ;  uncertainty k = 0.058823
        11        12        13        14     9        0.000000        0.052303         1    ;  uncertainty k = 0.232522
        11        12        13        14     9      180.000000        8.863318         2    ;  uncertainty k = 0.555441
        11        12        13        14     9        0.000000        1.272320         3    ;  uncertainty k = 0.271568
        11        12        13        14     9      180.000000        1.699186         4    ;  uncertainty k = 0.176091
        11        12        13        29     9        0.000000       -0.314577         1    ;  uncertainty k = 0.135964
        11        12        13        29     9      180.000000        7.122502         2    ;  uncertainty k = 0.247667
        11        12        13        29     9        0.000000        0.711389         3    ;  uncertainty k = 0.192128
        11        12        13        29     9      180.000000        1.035594         4    ;  uncertainty k = 0.198971
        11        12        17        16     9        0.000000        0.052303         1    ;  uncertainty k = 0.232522
        11        12        17        16     9      180.000000        8.863318         2    ;  uncertainty k = 0.555441
        11        12        17        16     9        0.000000        1.272320         3    ;  uncertainty k = 0.271568
        11        12        17        16     9      180.000000        1.699186         4    ;  uncertainty k = 0.176091
        11        12        17        32     9        0.000000       -0.314577         1    ;  uncertainty k = 0.135964
        11        12        17        32     9      180.000000        7.122502         2    ;  uncertainty k = 0.247667
        11        12        17        32     9        0.000000        0.711389         3    ;  uncertainty k = 0.192128
        11        12        17        32     9      180.000000        1.035594         4    ;  uncertainty k = 0.198971
        12        11         9        28     9        0.000000        0.824007         1    ;  uncertainty k = 0.184195
        12        11         9        28     9      180.000000        4.726683         2    ;  uncertainty k = 0.828636
        12        11         9        28     9        0.000000        1.371554         3    ;  uncertainty k = 0.239647
        12        11         9        28     9      180.000000       -0.074777         4    ;  uncertainty k = 0.262178
        12        13        14        15     9        0.000000       -0.175784         1    ;  uncertainty k = 0.299042
        12        13        14        15     9      180.000000       13.396286         2    ;  uncertainty k = 0.374144
        12        13        14        15     9        0.000000       -0.698352         3    ;  uncertainty k = 0.517098
        12        13        14        15     9      180.000000        0.840474         4    ;  uncertainty k = 0.223041
        12        13        14        30     9        0.000000        0.145262         1    ;  uncertainty k = 0.146453
        12        13        14        30     9      180.000000        8.518850         2    ;  uncertainty k = 0.283647
        12        13        14        30     9        0.000000        1.449275         3    ;  uncertainty k = 0.214330
        12        13        14        30     9      180.000000        1.887271         4    ;  uncertainty k = 0.155295
        12        17        16        15     9        0.000000       -0.175784         1    ;  uncertainty k = 0.299042
        12        17        16        15     9      180.000000       13.396286         2    ;  uncertainty k = 0.374144
        12        17        16        15     9        0.000000       -0.698352         3    ;  uncertainty k = 0.517098
        12        17        16        15     9      180.000000        0.840474         4    ;  uncertainty k = 0.223041
        12        17        16        31     9        0.000000        0.145262         1    ;  uncertainty k = 0.146453
        12        17        16        31     9      180.000000        8.518850         2    ;  uncertainty k = 0.283647
        12        17        16        31     9        0.000000        1.449275         3    ;  uncertainty k = 0.214330
        12        17        16        31     9      180.000000        1.887271         4    ;  uncertainty k = 0.155295
        13        12        17        16     9        0.000000        0.087415         1    ;  uncertainty k = 0.207054
        13        12        17        16     9      180.000000       10.831488         2    ;  uncertainty k = 0.334987
        13        12        17        16     9        0.000000       -0.619418         3    ;  uncertainty k = 0.278121
        13        12        17        16     9      180.000000        0.987997         4    ;  uncertainty k = 0.308313
        13        12        17        32     9        0.000000       -0.028277         1    ;  uncertainty k = 0.223279
        13        12        17        32     9      180.000000        6.758672         2    ;  uncertainty k = 0.525976
        13        12        17        32     9        0.000000        1.276034         3    ;  uncertainty k = 0.242993
        13        12        17        32     9      180.000000        1.530534         4    ;  uncertainty k = 0.258873
        13        14        15        16     9        0.000000       -0.120928         1    ;  uncertainty k = 0.344222
        13        14        15        16     9      180.000000        8.919701         2    ;  uncertainty k = 0.664519
        13        14        15        16     9        0.000000        0.046617         3    ;  uncertainty k = 0.271394
        13        14        15        16     9      180.000000        1.266847         4    ;  uncertainty k = 0.305873
        13        14        15        19     9        0.000000        0.260039         1    ;  uncertainty k = 0.421118
        13        14        15        19     9      180.000000        9.468911         2    ;  uncertainty k = 0.427961
        13        14        15        19     9        0.000000        1.240943         3    ;  uncertainty k = 0.389699
        13        14        15        19     9      180.000000        1.646554         4    ;  uncertainty k = 0.232249
        14        13        12        17     9        0.000000        0.087415         1    ;  uncertainty k = 0.207054
        14        13        12        17     9      180.000000       10.831488         2    ;  uncertainty k = 0.334987
        14        13        12        17     9        0.000000       -0.619418         3    ;  uncertainty k = 0.278121
        14        13        12        17     9      180.000000        0.987997         4    ;  uncertainty k = 0.308313
        14        15        16        17     9        0.000000       -0.120928         1    ;  uncertainty k = 0.344222
        14        15        16        17     9      180.000000        8.919701         2    ;  uncertainty k = 0.664519
        14        15        16        17     9        0.000000        0.046617         3    ;  uncertainty k = 0.271394
        14        15        16        17     9      180.000000        1.266847         4    ;  uncertainty k = 0.305873
        14        15        16        31     9        0.000000        0.222561         1    ;  uncertainty k = 0.408685
        14        15        16        31     9      180.000000        6.488009         2    ;  uncertainty k = 0.829621
        14        15        16        31     9        0.000000        1.405364         3    ;  uncertainty k = 0.181156
        14        15        16        31     9      180.000000        1.594286         4    ;  uncertainty k = 0.222008
        14        15        19        20     9        0.000000        0.985563         1    ;  uncertainty k = 0.276755
        14        15        19        20     9      180.000000        6.200820         2    ;  uncertainty k = 0.277227
        14        15        19        20     9        0.000000        0.508848         3    ;  uncertainty k = 0.142507
        14        15        19        20     9      180.000000        0.164727         4    ;  uncertainty k = 0.081530
        14        15        19        24     9        0.000000        0.985566         1    ;  uncertainty k = 0.276755
        14        15        19        24     9      180.000000        6.200820         2    ;  uncertainty k = 0.277227
        14        15        19        24     9        0.000000        0.508849         3    ;  uncertainty k = 0.142507
        14        15        19        24     9      180.000000        0.164728         4    ;  uncertainty k = 0.081530
        15        14        13        29     9        0.000000        0.070052         1    ;  uncertainty k = 0.469208
        15        14        13        29     9      180.000000        8.536928         2    ;  uncertainty k = 0.469918
        15        14        13        29     9        0.000000        1.176509         3    ;  uncertainty k = 0.341251
        15        14        13        29     9      180.000000        1.718999         4    ;  uncertainty k = 0.182290
        15        16        17        32     9        0.000000        0.070052         1    ;  uncertainty k = 0.469208
        15        16        17        32     9      180.000000        8.536928         2    ;  uncertainty k = 0.469918
        15        16        17        32     9        0.000000        1.176509         3    ;  uncertainty k = 0.341251
        15        16        17        32     9      180.000000        1.718999         4    ;  uncertainty k = 0.182290
        15        19        20        21     9        0.000000        0.611926         1    ;  uncertainty k = 0.956112
        15        19        20        21     9      180.000000       -0.755341         2    ;  uncertainty k = 0.449279
        15        19        20        21     9        0.000000        0.039062         3    ;  uncertainty k = 0.125185
        15        19        20        21     9      180.000000        0.136936         4    ;  uncertainty k = 0.155150
        15        19        20        33     9        0.000000        0.436997         1    ;  uncertainty k = 0.498364
        15        19        20        33     9      180.000000       -1.559583         2    ;  uncertainty k = 0.395054
        15        19        20        33     9        0.000000        0.378938         3    ;  uncertainty k = 0.127867
        15        19        20        33     9      180.000000        0.125457         4    ;  uncertainty k = 0.119789
        15        19        20        34     9        0.000000        0.436997         1    ;  uncertainty k = 0.498364
        15        19        20        34     9      180.000000       -1.559583         2    ;  uncertainty k = 0.395054
        15        19        20        34     9        0.000000        0.378938         3    ;  uncertainty k = 0.127867
        15        19        20        34     9      180.000000        0.125457         4    ;  uncertainty k = 0.119789
        15        19        24        23     9        0.000000        0.611927         1    ;  uncertainty k = 0.956112
        15        19        24        23     9      180.000000       -0.755341         2    ;  uncertainty k = 0.449279
        15        19        24        23     9        0.000000        0.039062         3    ;  uncertainty k = 0.125186
        15        19        24        23     9      180.000000        0.136936         4    ;  uncertainty k = 0.155151
        15        19        24        39     9        0.000000        0.436997         1    ;  uncertainty k = 0.498363
        15        19        24        39     9      180.000000       -1.559583         2    ;  uncertainty k = 0.395053
        15        19        24        39     9        0.000000        0.378938         3    ;  uncertainty k = 0.127867
        15        19        24        39     9      180.000000        0.125457         4    ;  uncertainty k = 0.119789
        15        19        24        40     9        0.000000        0.436997         1    ;  uncertainty k = 0.498363
        15        19        24        40     9      180.000000       -1.559583         2    ;  uncertainty k = 0.395053
        15        19        24        40     9        0.000000        0.378938         3    ;  uncertainty k = 0.127867
        15        19        24        40     9      180.000000        0.125457         4    ;  uncertainty k = 0.119789
        16        15        14        30     9        0.000000        0.222561         1    ;  uncertainty k = 0.408685
        16        15        14        30     9      180.000000        6.488009         2    ;  uncertainty k = 0.829621
        16        15        14        30     9        0.000000        1.405364         3    ;  uncertainty k = 0.181156
        16        15        14        30     9      180.000000        1.594286         4    ;  uncertainty k = 0.222008
        16        15        19        20     9        0.000000        0.985563         1    ;  uncertainty k = 0.276755
        16        15        19        20     9      180.000000        6.200820         2    ;  uncertainty k = 0.277227
        16        15        19        20     9        0.000000        0.508848         3    ;  uncertainty k = 0.142507
        16        15        19        20     9      180.000000        0.164727         4    ;  uncertainty k = 0.081530
        16        15        19        24     9        0.000000        0.985566         1    ;  uncertainty k = 0.276755
        16        15        19        24     9      180.000000        6.200820         2    ;  uncertainty k = 0.277227
        16        15        19        24     9        0.000000        0.508849         3    ;  uncertainty k = 0.142507
        16        15        19        24     9      180.000000        0.164728         4    ;  uncertainty k = 0.081530
        17        12        13        29     9        0.000000       -0.028277         1    ;  uncertainty k = 0.223279
        17        12        13        29     9      180.000000        6.758672         2    ;  uncertainty k = 0.525976
        17        12        13        29     9        0.000000        1.276034         3    ;  uncertainty k = 0.242993
        17        12        13        29     9      180.000000        1.530534         4    ;  uncertainty k = 0.258873
        17        16        15        19     9        0.000000        0.260039         1    ;  uncertainty k = 0.421118
        17        16        15        19     9      180.000000        9.468911         2    ;  uncertainty k = 0.427961
        17        16        15        19     9        0.000000        1.240943         3    ;  uncertainty k = 0.389699
        17        16        15        19     9      180.000000        1.646554         4    ;  uncertainty k = 0.232249
        18         6         3        26     9        0.000000       -0.164895         1    ;  uncertainty k = 0.458057
        18         6         3        26     9      180.000000        8.717670         2    ;  uncertainty k = 0.312534
        18         6         3        26     9        0.000000        0.777601         3    ;  uncertainty k = 0.256890
        18         6         3        26     9      180.000000        0.897535         4    ;  uncertainty k = 0.157117
        18         6         7        27     9        0.000000       -0.388026         1    ;  uncertainty k = 0.271818
        18         6         7        27     9      180.000000        9.843060         2    ;  uncertainty k = 0.427436
        18         6         7        27     9        0.000000        0.955047         3    ;  uncertainty k = 0.236450
        18         6         7        27     9      180.000000        1.015023         4    ;  uncertainty k = 0.197015
        19        15        14        30     9        0.000000       -0.171087         1    ;  uncertainty k = 0.420050
        19        15        14        30     9      180.000000        8.167735         2    ;  uncertainty k = 0.410821
        19        15        14        30     9        0.000000        0.847189         3    ;  uncertainty k = 0.223131
        19        15        14        30     9      180.000000        1.215180         4    ;  uncertainty k = 0.207076
        19        15        16        31     9        0.000000       -0.171087         1    ;  uncertainty k = 0.420050
        19        15        16        31     9      180.000000        8.167735         2    ;  uncertainty k = 0.410821
        19        15        16        31     9        0.000000        0.847189         3    ;  uncertainty k = 0.223131
        19        15        16        31     9      180.000000        1.215180         4    ;  uncertainty k = 0.207076
        19        20        21        22     9        0.000000        5.712995         1    ;  uncertainty k = 2.271889
        19        20        21        22     9      180.000000       -4.448143         2    ;  uncertainty k = 0.967439
        19        20        21        22     9        0.000000        2.218843         3    ;  uncertainty k = 0.464666
        19        20        21        22     9      180.000000       -0.249898         4    ;  uncertainty k = 0.302920
        19        20        21        35     9        0.000000        0.737237         1    ;  uncertainty k = 0.566478
        19        20        21        35     9      180.000000       -1.176454         2    ;  uncertainty k = 0.696092
        19        20        21        35     9        0.000000        0.836547         3    ;  uncertainty k = 0.082083
        19        20        21        35     9      180.000000        0.003333         4    ;  uncertainty k = 0.121272
        19        20        21        36     9        0.000000        0.737237         1    ;  uncertainty k = 0.566478
        19        20        21        36     9      180.000000       -1.176454         2    ;  uncertainty k = 0.696092
        19        20        21        36     9        0.000000        0.836547         3    ;  uncertainty k = 0.082083
        19        20        21        36     9      180.000000        0.003333         4    ;  uncertainty k = 0.121272
        19        24        23        22     9        0.000000        5.712993         1    ;  uncertainty k = 2.271888
        19        24        23        22     9      180.000000       -4.448140         2    ;  uncertainty k = 0.967437
        19        24        23        22     9        0.000000        2.218844         3    ;  uncertainty k = 0.464667
        19        24        23        22     9      180.000000       -0.249898         4    ;  uncertainty k = 0.302920
        19        24        23        37     9        0.000000        0.737238         1    ;  uncertainty k = 0.566479
        19        24        23        37     9      180.000000       -1.176455         2    ;  uncertainty k = 0.696093
        19        24        23        37     9        0.000000        0.836547         3    ;  uncertainty k = 0.082084
        19        24        23        37     9      180.000000        0.003334         4    ;  uncertainty k = 0.121272
        19        24        23        38     9        0.000000        0.737238         1    ;  uncertainty k = 0.566479
        19        24        23        38     9      180.000000       -1.176455         2    ;  uncertainty k = 0.696093
        19        24        23        38     9        0.000000        0.836547         3    ;  uncertainty k = 0.082084
        19        24        23        38     9      180.000000        0.003334         4    ;  uncertainty k = 0.121272
        20        19        24        23     9        0.000000       -4.812170         1    ;  uncertainty k = 2.417731
        20        19        24        23     9      180.000000       -0.500124         2    ;  uncertainty k = 0.919380
        20        19        24        23     9        0.000000        0.777920         3    ;  uncertainty k = 0.630925
        20        19        24        23     9      180.000000       -0.409554         4    ;  uncertainty k = 0.292099
        20        19        24        39     9        0.000000       -5.366204         1    ;  uncertainty k = 1.840370
        20        19        24        39     9      180.000000        0.217317         2    ;  uncertainty k = 0.604807
        20        19        24        39     9        0.000000        0.722390         3    ;  uncertainty k = 0.217724
        20        19        24        39     9      180.000000       -0.070901         4    ;  uncertainty k = 0.101936
        20        19        24        40     9        0.000000       -5.366204         1    ;  uncertainty k = 1.840370
        20        19        24        40     9      180.000000        0.217317         2    ;  uncertainty k = 0.604807
        20        19        24        40     9        0.000000        0.722390         3    ;  uncertainty k = 0.217724
        20        19        24        40     9      180.000000       -0.070901         4    ;  uncertainty k = 0.101936
        20        21        22        23     9        0.000000        1.029970         1    ;  uncertainty k = 1.659236
        20        21        22        23     9      180.000000       -0.643456         2    ;  uncertainty k = 0.966018
        20        21        22        23     9        0.000000        0.583405         3    ;  uncertainty k = 0.324692
        20        21        22        23     9      180.000000       -0.366184         4    ;  uncertainty k = 0.357889
        20        21        22        25     9        0.000000       -1.222136         1    ;  uncertainty k = 1.266908
        20        21        22        25     9      180.000000        0.245543         2    ;  uncertainty k = 0.563341
        20        21        22        25     9        0.000000        0.900344         3    ;  uncertainty k = 0.185631
        20        21        22        25     9      180.000000       -0.026733         4    ;  uncertainty k = 0.084529
        20        21        22        44     9        0.000000        0.851819         1    ;  uncertainty k = 0.888512
        20        21        22        44     9      180.000000       -0.502639         2    ;  uncertainty k = 0.438482
        20        21        22        44     9        0.000000        0.363570         3    ;  uncertainty k = 0.180757
        20        21        22        44     9      180.000000       -0.164008         4    ;  uncertainty k = 0.120636
        21        20        19        24     9        0.000000       -4.812170         1    ;  uncertainty k = 2.417729
        21        20        19        24     9      180.000000       -0.500124         2    ;  uncertainty k = 0.919380
        21        20        19        24     9        0.000000        0.777921         3    ;  uncertainty k = 0.630925
        21        20        19        24     9      180.000000       -0.409554         4    ;  uncertainty k = 0.292099
        21        22        23        24     9        0.000000        1.029969         1    ;  uncertainty k = 1.659235
        21        22        23        24     9      180.000000       -0.643455         2    ;  uncertainty k = 0.966016
        21        22        23        24     9        0.000000        0.583406         3    ;  uncertainty k = 0.324691
        21        22        23        24     9      180.000000       -0.366184         4    ;  uncertainty k = 0.357889
        21        22        23        37     9        0.000000       -0.555343         1    ;  uncertainty k = 0.614894
        21        22        23        37     9      180.000000       -0.684539         2    ;  uncertainty k = 0.341970
        21        22        23        37     9        0.000000        0.421289         3    ;  uncertainty k = 0.187096
        21        22        23        37     9      180.000000       -0.022021         4    ;  uncertainty k = 0.246267
        21        22        23        38     9        0.000000       -0.555343         1    ;  uncertainty k = 0.614894
        21        22        23        38     9      180.000000       -0.684539         2    ;  uncertainty k = 0.341970
        21        22        23        38     9        0.000000        0.421289         3    ;  uncertainty k = 0.187096
        21        22        23        38     9      180.000000       -0.022021         4    ;  uncertainty k = 0.246267
        21        22        25        41     9        0.000000       -0.493018         1    ;  uncertainty k = 0.527622
        21        22        25        41     9      180.000000       -0.924863         2    ;  uncertainty k = 0.328770
        21        22        25        41     9        0.000000        1.108114         3    ;  uncertainty k = 0.055824
        21        22        25        41     9      180.000000       -0.006372         4    ;  uncertainty k = 0.129478
        21        22        25        42     9        0.000000       -0.493018         1    ;  uncertainty k = 0.527622
        21        22        25        42     9      180.000000       -0.924863         2    ;  uncertainty k = 0.328770
        21        22        25        42     9        0.000000        1.108114         3    ;  uncertainty k = 0.055824
        21        22        25        42     9      180.000000       -0.006372         4    ;  uncertainty k = 0.129478
        21        22        25        43     9        0.000000       -0.493018         1    ;  uncertainty k = 0.527622
        21        22        25        43     9      180.000000       -0.924863         2    ;  uncertainty k = 0.328770
        21        22        25        43     9        0.000000        1.108114         3    ;  uncertainty k = 0.055824
        21        22        25        43     9      180.000000       -0.006372         4    ;  uncertainty k = 0.129478
        22        21        20        33     9        0.000000        2.798566         1    ;  uncertainty k = 1.538741
        22        21        20        33     9      180.000000       -3.442533         2    ;  uncertainty k = 0.923680
        22        21        20        33     9        0.000000        0.257615         3    ;  uncertainty k = 0.188363
        22        21        20        33     9      180.000000        0.172176         4    ;  uncertainty k = 0.157081
        22        21        20        34     9        0.000000        2.798566         1    ;  uncertainty k = 1.538741
        22        21        20        34     9      180.000000       -3.442533         2    ;  uncertainty k = 0.923680
        22        21        20        34     9        0.000000        0.257615         3    ;  uncertainty k = 0.188363
        22        21        20        34     9      180.000000        0.172176         4    ;  uncertainty k = 0.157081
        22        23        24        39     9        0.000000        2.798568         1    ;  uncertainty k = 1.538742
        22        23        24        39     9      180.000000       -3.442533         2    ;  uncertainty k = 0.923681
        22        23        24        39     9        0.000000        0.257615         3    ;  uncertainty k = 0.188363
        22        23        24        39     9      180.000000        0.172176         4    ;  uncertainty k = 0.157081
        22        23        24        40     9        0.000000        2.798568         1    ;  uncertainty k = 1.538742
        22        23        24        40     9      180.000000       -3.442533         2    ;  uncertainty k = 0.923681
        22        23        24        40     9        0.000000        0.257615         3    ;  uncertainty k = 0.188363
        22        23        24        40     9      180.000000        0.172176         4    ;  uncertainty k = 0.157081
        23        22        21        35     9        0.000000       -0.555343         1    ;  uncertainty k = 0.614894
        23        22        21        35     9      180.000000       -0.684539         2    ;  uncertainty k = 0.341970
        23        22        21        35     9        0.000000        0.421289         3    ;  uncertainty k = 0.187096
        23        22        21        35     9      180.000000       -0.022021         4    ;  uncertainty k = 0.246267
        23        22        21        36     9        0.000000       -0.555343         1    ;  uncertainty k = 0.614894
        23        22        21        36     9      180.000000       -0.684539         2    ;  uncertainty k = 0.341970
        23        22        21        36     9        0.000000        0.421289         3    ;  uncertainty k = 0.187096
        23        22        21        36     9      180.000000       -0.022021         4    ;  uncertainty k = 0.246267
        23        22        25        41     9        0.000000       -0.493018         1    ;  uncertainty k = 0.527622
        23        22        25        41     9      180.000000       -0.924863         2    ;  uncertainty k = 0.328770
        23        22        25        41     9        0.000000        1.108114         3    ;  uncertainty k = 0.055824
        23        22        25        41     9      180.000000       -0.006372         4    ;  uncertainty k = 0.129478
        23        22        25        42     9        0.000000       -0.493018         1    ;  uncertainty k = 0.527622
        23        22        25        42     9      180.000000       -0.924863         2    ;  uncertainty k = 0.328770
        23        22        25        42     9        0.000000        1.108114         3    ;  uncertainty k = 0.055824
        23        22        25        42     9      180.000000       -0.006372         4    ;  uncertainty k = 0.129478
        23        22        25        43     9        0.000000       -0.493018         1    ;  uncertainty k = 0.527622
        23        22        25        43     9      180.000000       -0.924863         2    ;  uncertainty k = 0.328770
        23        22        25        43     9        0.000000        1.108114         3    ;  uncertainty k = 0.055824
        23        22        25        43     9      180.000000       -0.006372         4    ;  uncertainty k = 0.129478
        24        19        20        33     9        0.000000       -5.366203         1    ;  uncertainty k = 1.840371
        24        19        20        33     9      180.000000        0.217318         2    ;  uncertainty k = 0.604808
        24        19        20        33     9        0.000000        0.722389         3    ;  uncertainty k = 0.217724
        24        19        20        33     9      180.000000       -0.070900         4    ;  uncertainty k = 0.101936
        24        19        20        34     9        0.000000       -5.366203         1    ;  uncertainty k = 1.840371
        24        19        20        34     9      180.000000        0.217318         2    ;  uncertainty k = 0.604808
        24        19        20        34     9        0.000000        0.722389         3    ;  uncertainty k = 0.217724
        24        19        20        34     9      180.000000       -0.070900         4    ;  uncertainty k = 0.101936
        24        23        22        25     9        0.000000       -1.222135         1    ;  uncertainty k = 1.266906
        24        23        22        25     9      180.000000        0.245543         2    ;  uncertainty k = 0.563340
        24        23        22        25     9        0.000000        0.900344         3    ;  uncertainty k = 0.185631
        24        23        22        25     9      180.000000       -0.026733         4    ;  uncertainty k = 0.084530
        24        23        22        44     9        0.000000        0.851820         1    ;  uncertainty k = 0.888513
        24        23        22        44     9      180.000000       -0.502639         2    ;  uncertainty k = 0.438484
        24        23        22        44     9        0.000000        0.363570         3    ;  uncertainty k = 0.180757
        24        23        22        44     9      180.000000       -0.164008         4    ;  uncertainty k = 0.120637
        25        22        21        35     9        0.000000       -0.362465         1    ;  uncertainty k = 0.312436
        25        22        21        35     9      180.000000       -0.518146         2    ;  uncertainty k = 0.102855
        25        22        21        35     9        0.000000        0.829966         3    ;  uncertainty k = 0.122153
        25        22        21        35     9      180.000000       -0.015809         4    ;  uncertainty k = 0.098618
        25        22        21        36     9        0.000000       -0.362465         1    ;  uncertainty k = 0.312436
        25        22        21        36     9      180.000000       -0.518146         2    ;  uncertainty k = 0.102855
        25        22        21        36     9        0.000000        0.829966         3    ;  uncertainty k = 0.122153
        25        22        21        36     9      180.000000       -0.015809         4    ;  uncertainty k = 0.098618
        25        22        23        37     9        0.000000       -0.362465         1    ;  uncertainty k = 0.312436
        25        22        23        37     9      180.000000       -0.518146         2    ;  uncertainty k = 0.102855
        25        22        23        37     9        0.000000        0.829966         3    ;  uncertainty k = 0.122153
        25        22        23        37     9      180.000000       -0.015809         4    ;  uncertainty k = 0.098618
        25        22        23        38     9        0.000000       -0.362465         1    ;  uncertainty k = 0.312436
        25        22        23        38     9      180.000000       -0.518146         2    ;  uncertainty k = 0.102855
        25        22        23        38     9        0.000000        0.829966         3    ;  uncertainty k = 0.122153
        25        22        23        38     9      180.000000       -0.015809         4    ;  uncertainty k = 0.098618
        26         3         1        45     9        0.000000       -0.169011         1    ;  uncertainty k = 0.251724
        26         3         1        45     9      180.000000        8.399339         2    ;  uncertainty k = 0.338024
        26         3         1        45     9        0.000000       -0.223565         3    ;  uncertainty k = 0.293096
        26         3         1        45     9      180.000000        0.239211         4    ;  uncertainty k = 0.177226
        29        13        14        30     9        0.000000        0.054675         1    ;  uncertainty k = 0.273342
        29        13        14        30     9      180.000000        8.085438         2    ;  uncertainty k = 0.527638
        29        13        14        30     9        0.000000       -0.389630         3    ;  uncertainty k = 0.254642
        29        13        14        30     9      180.000000        0.315097         4    ;  uncertainty k = 0.248833
        31        16        17        32     9        0.000000        0.054675         1    ;  uncertainty k = 0.273342
        31        16        17        32     9      180.000000        8.085438         2    ;  uncertainty k = 0.527638
        31        16        17        32     9        0.000000       -0.389630         3    ;  uncertainty k = 0.254642
        31        16        17        32     9      180.000000        0.315097         4    ;  uncertainty k = 0.248833
        33        20        21        35     9        0.000000       -0.874617         1    ;  uncertainty k = 0.560228
        33        20        21        35     9      180.000000        1.098531         2    ;  uncertainty k = 0.303910
        33        20        21        35     9        0.000000        0.131434         3    ;  uncertainty k = 0.173351
        33        20        21        35     9      180.000000       -0.324650         4    ;  uncertainty k = 0.082954
        33        20        21        36     9        0.000000       -0.874617         1    ;  uncertainty k = 0.560228
        33        20        21        36     9      180.000000        1.098531         2    ;  uncertainty k = 0.303910
        33        20        21        36     9        0.000000        0.131434         3    ;  uncertainty k = 0.173351
        33        20        21        36     9      180.000000       -0.324650         4    ;  uncertainty k = 0.082954
        34        20        21        35     9        0.000000       -0.874617         1    ;  uncertainty k = 0.560228
        34        20        21        35     9      180.000000        1.098531         2    ;  uncertainty k = 0.303910
        34        20        21        35     9        0.000000        0.131434         3    ;  uncertainty k = 0.173351
        34        20        21        35     9      180.000000       -0.324650         4    ;  uncertainty k = 0.082954
        34        20        21        36     9        0.000000       -0.874617         1    ;  uncertainty k = 0.560228
        34        20        21        36     9      180.000000        1.098531         2    ;  uncertainty k = 0.303910
        34        20        21        36     9        0.000000        0.131434         3    ;  uncertainty k = 0.173351
        34        20        21        36     9      180.000000       -0.324650         4    ;  uncertainty k = 0.082954
        35        21        22        44     9        0.000000        0.470438         1    ;  uncertainty k = 0.542416
        35        21        22        44     9      180.000000       -0.378036         2    ;  uncertainty k = 0.186112
        35        21        22        44     9        0.000000        0.065989         3    ;  uncertainty k = 0.119211
        35        21        22        44     9      180.000000        0.002774         4    ;  uncertainty k = 0.092094
        36        21        22        44     9        0.000000        0.470438         1    ;  uncertainty k = 0.542416
        36        21        22        44     9      180.000000       -0.378036         2    ;  uncertainty k = 0.186112
        36        21        22        44     9        0.000000        0.065989         3    ;  uncertainty k = 0.119211
        36        21        22        44     9      180.000000        0.002774         4    ;  uncertainty k = 0.092094
        37        23        22        44     9        0.000000        0.470438         1    ;  uncertainty k = 0.542416
        37        23        22        44     9      180.000000       -0.378036         2    ;  uncertainty k = 0.186112
        37        23        22        44     9        0.000000        0.065989         3    ;  uncertainty k = 0.119211
        37        23        22        44     9      180.000000        0.002774         4    ;  uncertainty k = 0.092094
        37        23        24        39     9        0.000000       -0.874617         1    ;  uncertainty k = 0.560227
        37        23        24        39     9      180.000000        1.098531         2    ;  uncertainty k = 0.303911
        37        23        24        39     9        0.000000        0.131435         3    ;  uncertainty k = 0.173352
        37        23        24        39     9      180.000000       -0.324649         4    ;  uncertainty k = 0.082954
        37        23        24        40     9        0.000000       -0.874617         1    ;  uncertainty k = 0.560227
        37        23        24        40     9      180.000000        1.098531         2    ;  uncertainty k = 0.303911
        37        23        24        40     9        0.000000        0.131435         3    ;  uncertainty k = 0.173352
        37        23        24        40     9      180.000000       -0.324649         4    ;  uncertainty k = 0.082954
        38        23        22        44     9        0.000000        0.470438         1    ;  uncertainty k = 0.542416
        38        23        22        44     9      180.000000       -0.378036         2    ;  uncertainty k = 0.186112
        38        23        22        44     9        0.000000        0.065989         3    ;  uncertainty k = 0.119211
        38        23        22        44     9      180.000000        0.002774         4    ;  uncertainty k = 0.092094
        38        23        24        39     9        0.000000       -0.874617         1    ;  uncertainty k = 0.560227
        38        23        24        39     9      180.000000        1.098531         2    ;  uncertainty k = 0.303911
        38        23        24        39     9        0.000000        0.131435         3    ;  uncertainty k = 0.173352
        38        23        24        39     9      180.000000       -0.324649         4    ;  uncertainty k = 0.082954
        38        23        24        40     9        0.000000       -0.874617         1    ;  uncertainty k = 0.560227
        38        23        24        40     9      180.000000        1.098531         2    ;  uncertainty k = 0.303911
        38        23        24        40     9        0.000000        0.131435         3    ;  uncertainty k = 0.173352
        38        23        24        40     9      180.000000       -0.324649         4    ;  uncertainty k = 0.082954
        41        25        22        44     9        0.000000        0.358545         1    ;  uncertainty k = 0.480834
        41        25        22        44     9      180.000000       -0.540987         2    ;  uncertainty k = 0.534195
        41        25        22        44     9        0.000000        0.381334         3    ;  uncertainty k = 0.089493
        41        25        22        44     9      180.000000        0.080170         4    ;  uncertainty k = 0.069800
        42        25        22        44     9        0.000000        0.358545         1    ;  uncertainty k = 0.480834
        42        25        22        44     9      180.000000       -0.540987         2    ;  uncertainty k = 0.534195
        42        25        22        44     9        0.000000        0.381334         3    ;  uncertainty k = 0.089493
        42        25        22        44     9      180.000000        0.080170         4    ;  uncertainty k = 0.069800
        43        25        22        44     9        0.000000        0.358545         1    ;  uncertainty k = 0.480834
        43        25        22        44     9      180.000000       -0.540987         2    ;  uncertainty k = 0.534195
        43        25        22        44     9        0.000000        0.381334         3    ;  uncertainty k = 0.089493
        43        25        22        44     9      180.000000        0.080170         4    ;  uncertainty k = 0.069800

[ dihedrals ] ; impropers
;       ai        aj        ak        al funct           phase               k        pn
         1         2         3        45     4      180.000000        3.056717         2    ;  uncertainty k = 0.286146
         1         3        45         2     4      180.000000        3.056717         2    ;  uncertainty k = 0.286146
         1        45         2         3     4      180.000000        3.056717         2    ;  uncertainty k = 0.286146
         2         1         4         5     4      180.000000       21.107998         2    ;  uncertainty k = 0.036468
         2         4         5         1     4      180.000000       21.107998         2    ;  uncertainty k = 0.036468
         2         5         1         4     4      180.000000       21.107998         2    ;  uncertainty k = 0.036468
         3         1         6        26     4      180.000000        3.605828         2    ;  uncertainty k = 0.146573
         3         6        26         1     4      180.000000        3.605828         2    ;  uncertainty k = 0.146573
         3        26         1         6     4      180.000000        3.605828         2    ;  uncertainty k = 0.146573
         4         2         7         8     4      180.000000        5.434747         2    ;  uncertainty k = 0.365734
         4         7         8         2     4      180.000000        5.434747         2    ;  uncertainty k = 0.365734
         4         8         2         7     4      180.000000        5.434747         2    ;  uncertainty k = 0.365734
         6         3         7        18     4      180.000000       16.721157         2    ;  uncertainty k = 0.059128
         6         7        18         3     4      180.000000       16.721157         2    ;  uncertainty k = 0.059128
         6        18         3         7     4      180.000000       16.721157         2    ;  uncertainty k = 0.059128
         7         4         6        27     4      180.000000        3.847251         2    ;  uncertainty k = 0.056782
         7         6        27         4     4      180.000000        3.847251         2    ;  uncertainty k = 0.056782
         7        27         4         6     4      180.000000        3.847251         2    ;  uncertainty k = 0.056782
         8         4         9        10     4      180.000000       50.258063         2    ;  uncertainty k = 0.010206
         8         9        10         4     4      180.000000       50.258063         2    ;  uncertainty k = 0.010206
         8        10         4         9     4      180.000000       50.258063         2    ;  uncertainty k = 0.010206
         9         8        11        28     4      180.000000        0.721307         2    ;  uncertainty k = 0.517019
         9        11        28         8     4      180.000000        0.721307         2    ;  uncertainty k = 0.517019
         9        28         8        11     4      180.000000        0.721307         2    ;  uncertainty k = 0.517019
        11         5         9        12     4      180.000000       30.426471         2    ;  uncertainty k = 0.036753
        11         9        12         5     4      180.000000       30.426471         2    ;  uncertainty k = 0.036753
        11        12         5         9     4      180.000000       30.426471         2    ;  uncertainty k = 0.036753
        12        11        13        17     4      180.000000        7.632477         2    ;  uncertainty k = 0.216271
        12        13        17        11     4      180.000000        7.632477         2    ;  uncertainty k = 0.216271
        12        17        11        13     4      180.000000        7.632477         2    ;  uncertainty k = 0.216271
        13        12        14        29     4      180.000000        4.327143         2    ;  uncertainty k = 0.268125
        13        14        29        12     4      180.000000        4.327143         2    ;  uncertainty k = 0.268125
        13        29        12        14     4      180.000000        4.327143         2    ;  uncertainty k = 0.268125
        14        13        15        30     4      180.000000        2.259609         2    ;  uncertainty k = 0.302884
        14        15        30        13     4      180.000000        2.259609         2    ;  uncertainty k = 0.302884
        14        30        13        15     4      180.000000        2.259609         2    ;  uncertainty k = 0.302884
        15        14        16        19     4      180.000000       20.766018         2    ;  uncertainty k = 0.167587
        15        16        19        14     4      180.000000       20.766018         2    ;  uncertainty k = 0.167587
        15        19        14        16     4      180.000000       20.766018         2    ;  uncertainty k = 0.167587
        16        15        17        31     4      180.000000        2.259608         2    ;  uncertainty k = 0.302885
        16        17        31        15     4      180.000000        2.259608         2    ;  uncertainty k = 0.302885
        16        31        15        17     4      180.000000        2.259608         2    ;  uncertainty k = 0.302885
        17        12        16        32     4      180.000000        4.327139         2    ;  uncertainty k = 0.268123
        17        16        32        12     4      180.000000        4.327139         2    ;  uncertainty k = 0.268123
        17        32        12        16     4      180.000000        4.327139         2    ;  uncertainty k = 0.268123

[ pairs ]
;       ai        aj funct
         1         7     1
         1         8     1
         1        11     1
         1        18     1
         2         6     1
         2         9     1
         2        10     1
         2        12     1
         2        26     1
         2        27     1
         3         4     1
         3         5     1
         3        27     1
         4        11     1
         4        18     1
         4        28     1
         4        45     1
         5         7     1
         5         8     1
         5        13     1
         5        17     1
         5        28     1
         5        45     1
         6         8     1
         6        45     1
         7         9     1
         7        10     1
         7        26     1
         8        12     1
         8        27     1
         9        13     1
         9        17     1
        10        11     1
        10        28     1
        11        14     1
        11        16     1
        11        29     1
        11        32     1
        12        15     1
        12        28     1
        12        30     1
        12        31     1
        13        16     1
        13        19     1
        13        32     1
        14        17     1
        14        20     1
        14        24     1
        14        31     1
        15        21     1
        15        23     1
        15        29     1
        15        32     1
        15        33     1
        15        34     1
        15        39     1
        15        40     1
        16        20     1
        16        24     1
        16        30     1
        17        19     1
        17        29     1
        18        26     1
        18        27     1
        19        22     1
        19        30     1
        19        31     1
        19        35     1
        19        36     1
        19        37     1
        19        38     1
        20        23     1
        20        25     1
        20        39     1
        20        40     1
        20        44     1
        21        24     1
        21        37     1
        21        38     1
        21        41     1
        21        42     1
        21        43     1
        22        33     1
        22        34     1
        22        39     1
        22        40     1
        23        35     1
        23        36     1
        23        41     1
        23        42     1
        23        43     1
        24        25     1
        24        33     1
        24        34     1
        24        44     1
        25        35     1
        25        36     1
        25        37     1
        25        38     1
        26        45     1
        29        30     1
        31        32     1
        33        35     1
        33        36     1
        34        35     1
        34        36     1
        35        44     1
        36        44     1
        37        39     1
        37        40     1
        37        44     1
        38        39     1
        38        40     1
        38        44     1
        41        44     1
        42        44     1
        43        44     1
