; ITP file created by ByteFF-joint-25, 2026-02-17 09:48:24.654960

[ atomtypes ]
;name           bonded.type        at.num        mass        charge   ptype           sigma         epsilon
 c0bf                                   6      0.0000       0.00000       A     3.31509e-01     4.13389e-01    ;  uncertainty sigma = 0.000003, epsilon = 0.000662
 c1bf                                   6      0.0000       0.00000       A     3.31532e-01     4.13181e-01    ;  uncertainty sigma = 0.000010, epsilon = 0.000993
 c2bf                                   6      0.0000       0.00000       A     3.31523e-01     4.13317e-01    ;  uncertainty sigma = 0.000004, epsilon = 0.000533
 c3bf                                   6      0.0000       0.00000       A     3.31547e-01     4.13871e-01    ;  uncertainty sigma = 0.000010, epsilon = 0.000770
 n4bf                                   7      0.0000       0.00000       A     3.38420e-01     3.93559e-01    ;  uncertainty sigma = 0.000016, epsilon = 0.001456
 c5bf                                   6      0.0000       0.00000       A     3.31508e-01     4.13375e-01    ;  uncertainty sigma = 0.000006, epsilon = 0.000570
 c6bf                                   6      0.0000       0.00000       A     3.31514e-01     4.13380e-01    ;  uncertainty sigma = 0.000006, epsilon = 0.000759
 c7bf                                   6      0.0000       0.00000       A     3.31538e-01     4.13505e-01    ;  uncertainty sigma = 0.000008, epsilon = 0.001165
 n8bf                                   7      0.0000       0.00000       A     3.26867e-01     4.92512e-01    ;  uncertainty sigma = 0.000088, epsilon = 0.003430
 o9bf                                   8      0.0000       0.00000       A     3.04814e-01     6.11899e-01    ;  uncertainty sigma = 0.000014, epsilon = 0.001624
 c10bf                                  6      0.0000       0.00000       A     3.31512e-01     4.12851e-01    ;  uncertainty sigma = 0.000012, epsilon = 0.001342
 c11bf                                  6      0.0000       0.00000       A     3.31503e-01     4.12926e-01    ;  uncertainty sigma = 0.000017, epsilon = 0.001214
 c12bf                                  6      0.0000       0.00000       A     3.31521e-01     4.13221e-01    ;  uncertainty sigma = 0.000007, epsilon = 0.000531
 c13bf                                  6      0.0000       0.00000       A     3.31510e-01     4.13288e-01    ;  uncertainty sigma = 0.000007, epsilon = 0.000539
 c14bf                                  6      0.0000       0.00000       A     3.31526e-01     4.12974e-01    ;  uncertainty sigma = 0.000019, epsilon = 0.000913
 c15bf                                  6      0.0000       0.00000       A     3.31510e-01     4.13288e-01    ;  uncertainty sigma = 0.000007, epsilon = 0.000539
 c16bf                                  6      0.0000       0.00000       A     3.31521e-01     4.13221e-01    ;  uncertainty sigma = 0.000007, epsilon = 0.000531
 f17bf                                  9      0.0000       0.00000       A     3.03425e-01     3.47959e-01    ;  uncertainty sigma = 0.000016, epsilon = 0.000686
 n18bf                                  7      0.0000       0.00000       A     3.18981e-01     8.97480e-01    ;  uncertainty sigma = 0.000015, epsilon = 0.001285
 c19bf                                  6      0.0000       0.00000       A     3.39775e-01     4.50640e-01    ;  uncertainty sigma = 0.000005, epsilon = 0.000843
 c20bf                                  6      0.0000       0.00000       A     3.39773e-01     4.51045e-01    ;  uncertainty sigma = 0.000007, epsilon = 0.000763
 n21bf                                  7      0.0000       0.00000       A     3.36513e-01     3.58509e-01    ;  uncertainty sigma = 0.000010, epsilon = 0.001084
 c22bf                                  6      0.0000       0.00000       A     3.39773e-01     4.51046e-01    ;  uncertainty sigma = 0.000007, epsilon = 0.000763
 c23bf                                  6      0.0000       0.00000       A     3.39775e-01     4.50640e-01    ;  uncertainty sigma = 0.000005, epsilon = 0.000843
 c24bf                                  6      0.0000       0.00000       A     3.39772e-01     4.51041e-01    ;  uncertainty sigma = 0.000004, epsilon = 0.000569
 h25bf                                  1      0.0000       0.00000       A     2.62557e-01     6.70626e-02    ;  uncertainty sigma = 0.000009, epsilon = 0.000557
 h26bf                                  1      0.0000       0.00000       A     2.62584e-01     6.68454e-02    ;  uncertainty sigma = 0.000019, epsilon = 0.000520
 h27bf                                  1      0.0000       0.00000       A     1.10651e-01     4.13762e-02    ;  uncertainty sigma = 0.000058, epsilon = 0.001253
 h28bf                                  1      0.0000       0.00000       A     2.62560e-01     6.71048e-02    ;  uncertainty sigma = 0.000011, epsilon = 0.000616
 h29bf                                  1      0.0000       0.00000       A     2.62562e-01     6.71535e-02    ;  uncertainty sigma = 0.000014, epsilon = 0.000450
 h30bf                                  1      0.0000       0.00000       A     2.62562e-01     6.71535e-02    ;  uncertainty sigma = 0.000014, epsilon = 0.000450
 h31bf                                  1      0.0000       0.00000       A     2.62560e-01     6.71048e-02    ;  uncertainty sigma = 0.000011, epsilon = 0.000616
 h32bf                                  1      0.0000       0.00000       A     2.42213e-01     8.67868e-02    ;  uncertainty sigma = 0.000014, epsilon = 0.000577
 h33bf                                  1      0.0000       0.00000       A     2.42213e-01     8.67867e-02    ;  uncertainty sigma = 0.000014, epsilon = 0.000577
 h34bf                                  1      0.0000       0.00000       A     2.42179e-01     8.68412e-02    ;  uncertainty sigma = 0.000012, epsilon = 0.000614
 h35bf                                  1      0.0000       0.00000       A     2.42179e-01     8.68412e-02    ;  uncertainty sigma = 0.000012, epsilon = 0.000614
 h36bf                                  1      0.0000       0.00000       A     2.42179e-01     8.68412e-02    ;  uncertainty sigma = 0.000012, epsilon = 0.000614
 h37bf                                  1      0.0000       0.00000       A     2.42179e-01     8.68412e-02    ;  uncertainty sigma = 0.000012, epsilon = 0.000614
 h38bf                                  1      0.0000       0.00000       A     2.42213e-01     8.67867e-02    ;  uncertainty sigma = 0.000014, epsilon = 0.000577
 h39bf                                  1      0.0000       0.00000       A     2.42213e-01     8.67867e-02    ;  uncertainty sigma = 0.000014, epsilon = 0.000577
 h40bf                                  1      0.0000       0.00000       A     2.42208e-01     8.68370e-02    ;  uncertainty sigma = 0.000014, epsilon = 0.000546
 h41bf                                  1      0.0000       0.00000       A     2.42208e-01     8.68370e-02    ;  uncertainty sigma = 0.000014, epsilon = 0.000546
 h42bf                                  1      0.0000       0.00000       A     2.42208e-01     8.68370e-02    ;  uncertainty sigma = 0.000014, epsilon = 0.000546
 h43bf                                  1      0.0000       0.00000       A     2.62558e-01     6.69932e-02    ;  uncertainty sigma = 0.000012, epsilon = 0.000628

[ moleculetype ]
;name             nrexcl
 MOL                   3

[ atoms ]
;       nr            type      resi   res      atom      cgnr      charge          mass ; qtot
         1            c0bf         1   UNL        c0         1    -0.10135       12.0110 ; qtot   -0.101
         2            c1bf         1   UNL        c1         2     0.17920       12.0110 ; qtot    0.078
         3            c2bf         1   UNL        c2         3    -0.12598       12.0110 ; qtot   -0.048
         4            c3bf         1   UNL        c3         4    -0.18212       12.0110 ; qtot   -0.230
         5            n4bf         1   UNL        n4         5    -0.62332       14.0070 ; qtot   -0.854
         6            c5bf         1   UNL        c5         6     0.10691       12.0110 ; qtot   -0.747
         7            c6bf         1   UNL        c6         7    -0.09763       12.0110 ; qtot   -0.844
         8            c7bf         1   UNL        c7         8     0.71928       12.0110 ; qtot   -0.125
         9            n8bf         1   UNL        n8         9    -0.50680       14.0070 ; qtot   -0.632
        10            o9bf         1   UNL        o9        10    -0.60449       15.9990 ; qtot   -1.236
        11           c10bf         1   UNL       c10        11     0.56801       12.0110 ; qtot   -0.668
        12           c11bf         1   UNL       c11        12    -0.17282       12.0110 ; qtot   -0.841
        13           c12bf         1   UNL       c12        13    -0.05267       12.0110 ; qtot   -0.894
        14           c13bf         1   UNL       c13        14    -0.20750       12.0110 ; qtot   -1.101
        15           c14bf         1   UNL       c14        15     0.20288       12.0110 ; qtot   -0.898
        16           c15bf         1   UNL       c15        16    -0.20750       12.0110 ; qtot   -1.106
        17           c16bf         1   UNL       c16        17    -0.05267       12.0110 ; qtot   -1.159
        18           f17bf         1   UNL       f17        18    -0.13638       18.9980 ; qtot   -1.295
        19           n18bf         1   UNL       n18        19    -0.68404       14.0070 ; qtot   -1.979
        20           c19bf         1   UNL       c19        20     0.19246       12.0110 ; qtot   -1.787
        21           c20bf         1   UNL       c20        21     0.14787       12.0110 ; qtot   -1.639
        22           n21bf         1   UNL       n21        22    -0.72395       14.0070 ; qtot   -2.363
        23           c22bf         1   UNL       c22        23     0.14787       12.0110 ; qtot   -2.215
        24           c23bf         1   UNL       c23        24     0.19246       12.0110 ; qtot   -2.022
        25           c24bf         1   UNL       c24        25     0.15199       12.0110 ; qtot   -1.870
        26           h25bf         1   UNL       h25        26     0.15611        1.0080 ; qtot   -1.714
        27           h26bf         1   UNL       h26        27     0.17554        1.0080 ; qtot   -1.539
        28           h27bf         1   UNL       h27        28     0.33625        1.0080 ; qtot   -1.202
        29           h28bf         1   UNL       h28        29     0.14721        1.0080 ; qtot   -1.055
        30           h29bf         1   UNL       h29        30     0.13159        1.0080 ; qtot   -0.924
        31           h30bf         1   UNL       h30        31     0.13159        1.0080 ; qtot   -0.792
        32           h31bf         1   UNL       h31        32     0.14721        1.0080 ; qtot   -0.645
        33           h32bf         1   UNL       h32        33     0.04896        1.0080 ; qtot   -0.596
        34           h33bf         1   UNL       h33        34     0.04896        1.0080 ; qtot   -0.547
        35           h34bf         1   UNL       h34        35     0.04838        1.0080 ; qtot   -0.498
        36           h35bf         1   UNL       h35        36     0.04838        1.0080 ; qtot   -0.450
        37           h36bf         1   UNL       h36        37     0.04838        1.0080 ; qtot   -0.402
        38           h37bf         1   UNL       h37        38     0.04838        1.0080 ; qtot   -0.353
        39           h38bf         1   UNL       h38        39     0.04896        1.0080 ; qtot   -0.304
        40           h39bf         1   UNL       h39        40     0.04896        1.0080 ; qtot   -0.255
        41           h40bf         1   UNL       h40        41     0.03187        1.0080 ; qtot   -0.224
        42           h41bf         1   UNL       h41        42     0.03187        1.0080 ; qtot   -0.192
        43           h42bf         1   UNL       h42        43     0.03187        1.0080 ; qtot   -0.160
        44           h43bf         1   UNL       h43        44     0.15982        1.0080 ; qtot    0.000

[ bonds ]
;       ai        aj funct               r               k
         1         2     1        0.140964   350832.205029    ;  uncertainty r = 0.000032, k = 4.629232
         1         3     1        0.138302   386095.505566    ;  uncertainty r = 0.000059, k = 4.599888
         1        44     1        0.108708   336704.641992    ;  uncertainty r = 0.000019, k = 1.942411
         2         4     1        0.141709   385237.969434    ;  uncertainty r = 0.000054, k = 10.311958
         2         5     1        0.138675   292907.452393    ;  uncertainty r = 0.000100, k = 22.573795
         3         6     1        0.140315   344554.851563    ;  uncertainty r = 0.000060, k = 7.146609
         3        26     1        0.108763   336320.308496    ;  uncertainty r = 0.000023, k = 0.938600
         4         7     1        0.139898   369180.720264    ;  uncertainty r = 0.000058, k = 4.441355
         4         8     1        0.146536   264613.892969    ;  uncertainty r = 0.000056, k = 18.208748
         5        11     1        0.129809   466468.756348    ;  uncertainty r = 0.000049, k = 7.919414
         6         7     1        0.138124   355371.196387    ;  uncertainty r = 0.000071, k = 8.089235
         6        18     1        0.135438   338566.118506    ;  uncertainty r = 0.000088, k = 4.182305
         7        27     1        0.108596   333125.437354    ;  uncertainty r = 0.000025, k = 2.230261
         8         9     1        0.140241   444690.658398    ;  uncertainty r = 0.000073, k = 13.079046
         8        10     1        0.123441   857064.411328    ;  uncertainty r = 0.000099, k = 12.610759
         9        11     1        0.139072   297625.382275    ;  uncertainty r = 0.000069, k = 20.066683
         9        28     1        0.102058   454589.659180    ;  uncertainty r = 0.000027, k = 4.102090
        11        12     1        0.147206   269148.491943    ;  uncertainty r = 0.000100, k = 11.917880
        12        13     1        0.139995   349975.869141    ;  uncertainty r = 0.000087, k = 1.917708
        12        17     1        0.139995   349975.869141    ;  uncertainty r = 0.000087, k = 1.917708
        13        14     1        0.138785   358013.853076    ;  uncertainty r = 0.000052, k = 6.272952
        13        29     1        0.108703   332360.294482    ;  uncertainty r = 0.000039, k = 0.855964
        14        15     1        0.140871   348690.918408    ;  uncertainty r = 0.000064, k = 2.329840
        14        30     1        0.108867   337753.170166    ;  uncertainty r = 0.000052, k = 1.869488
        15        16     1        0.140871   348690.892871    ;  uncertainty r = 0.000064, k = 2.329861
        15        19     1        0.139911   347023.243018    ;  uncertainty r = 0.000035, k = 5.496760
        16        17     1        0.138785   358013.853076    ;  uncertainty r = 0.000052, k = 6.272952
        16        31     1        0.108867   337753.195703    ;  uncertainty r = 0.000052, k = 1.869473
        17        32     1        0.108703   332360.294482    ;  uncertainty r = 0.000039, k = 0.855951
        19        20     1        0.145205   288667.960254    ;  uncertainty r = 0.000053, k = 8.150870
        19        24     1        0.145205   288667.934717    ;  uncertainty r = 0.000053, k = 8.150851
        20        21     1        0.152517   214275.423877    ;  uncertainty r = 0.000054, k = 1.403688
        20        33     1        0.109892   308023.454785    ;  uncertainty r = 0.000025, k = 1.953826
        20        34     1        0.109892   308023.454785    ;  uncertainty r = 0.000025, k = 1.953829
        21        22     1        0.146421   299859.675049    ;  uncertainty r = 0.000066, k = 4.265736
        21        35     1        0.110040   308536.954980    ;  uncertainty r = 0.000012, k = 2.299535
        21        36     1        0.110040   308536.980518    ;  uncertainty r = 0.000012, k = 2.299542
        22        23     1        0.146421   299859.700586    ;  uncertainty r = 0.000066, k = 4.265749
        22        25     1        0.145706   228446.323389    ;  uncertainty r = 0.000023, k = 5.544537
        23        24     1        0.152517   214275.398340    ;  uncertainty r = 0.000054, k = 1.403643
        23        37     1        0.110040   308537.006055    ;  uncertainty r = 0.000012, k = 2.299527
        23        38     1        0.110040   308537.006055    ;  uncertainty r = 0.000012, k = 2.299527
        24        39     1        0.109892   308023.454785    ;  uncertainty r = 0.000025, k = 1.953837
        24        40     1        0.109892   308023.454785    ;  uncertainty r = 0.000025, k = 1.953837
        25        41     1        0.109914   306410.224512    ;  uncertainty r = 0.000011, k = 1.189138
        25        42     1        0.109914   306410.224512    ;  uncertainty r = 0.000011, k = 1.189138
        25        43     1        0.109914   306410.224512    ;  uncertainty r = 0.000011, k = 1.189138

[ angles ]
;       ai        aj        ak funct           theta             cth
         1         2         4     1      119.134995      405.934571    ;  uncertainty theta = 0.003584, k = 0.232361
         1         2         5     1      119.959961      511.287405    ;  uncertainty theta = 0.010093, k = 0.072566
         1         3         6     1      119.123047      505.026663    ;  uncertainty theta = 0.003003, k = 0.103093
         1         3        26     1      120.849144      280.086036    ;  uncertainty theta = 0.001540, k = 0.061482
         2         1         3     1      119.036095      531.350028    ;  uncertainty theta = 0.002742, k = 0.145844
         2         1        44     1      120.508751      271.483126    ;  uncertainty theta = 0.003274, k = 0.096144
         2         4         7     1      121.777733      434.510277    ;  uncertainty theta = 0.001655, k = 0.211458
         2         4         8     1      117.297508      491.962516    ;  uncertainty theta = 0.006380, k = 0.238428
         2         5        11     1      115.240494      416.803867    ;  uncertainty theta = 0.006032, k = 0.412033
         3         1        44     1      121.081863      277.905199    ;  uncertainty theta = 0.001912, k = 0.023135
         3         6         7     1      124.230835      391.108491    ;  uncertainty theta = 0.005452, k = 0.270460
         3         6        18     1      118.443443      514.743533    ;  uncertainty theta = 0.002026, k = 0.040363
         4         2         5     1      123.497696      569.871194    ;  uncertainty theta = 0.006306, k = 0.143327
         4         7         6     1      118.287453      472.119161    ;  uncertainty theta = 0.002924, k = 0.132691
         4         7        27     1      120.828979      247.606536    ;  uncertainty theta = 0.006275, k = 0.079914
         4         8         9     1      108.865517      389.724125    ;  uncertainty theta = 0.007726, k = 0.270666
         4         8        10     1      128.088593      510.903263    ;  uncertainty theta = 0.002915, k = 0.145050
         5        11         9     1      123.678001      679.251166    ;  uncertainty theta = 0.005921, k = 0.135841
         5        11        12     1      122.712082      447.681009    ;  uncertainty theta = 0.003701, k = 0.159155
         6         3        26     1      120.507347      283.187997    ;  uncertainty theta = 0.002009, k = 0.088221
         6         7        27     1      121.686180      281.539576    ;  uncertainty theta = 0.002737, k = 0.087293
         7         4         8     1      117.958511      397.006702    ;  uncertainty theta = 0.003688, k = 0.159108
         7         6        18     1      118.829163      496.180609    ;  uncertainty theta = 0.001386, k = 0.097184
         8         9        11     1      121.146103      496.022693    ;  uncertainty theta = 0.003149, k = 0.185690
         8         9        28     1      115.307518      352.933705    ;  uncertainty theta = 0.006787, k = 0.132391
         9         8        10     1      124.920670      821.839978    ;  uncertainty theta = 0.002935, k = 0.080730
         9        11        12     1      116.676109      516.125825    ;  uncertainty theta = 0.005541, k = 0.236727
        11         9        28     1      116.804947      331.084697    ;  uncertainty theta = 0.006464, k = 0.239703
        11        12        13     1      118.043594      401.262014    ;  uncertainty theta = 0.003089, k = 0.107719
        11        12        17     1      118.043594      401.262014    ;  uncertainty theta = 0.003089, k = 0.107719
        12        13        14     1      122.917526      513.807056    ;  uncertainty theta = 0.002336, k = 0.113041
        12        13        29     1      118.225731      268.005898    ;  uncertainty theta = 0.002982, k = 0.073775
        12        17        16     1      122.917526      513.807056    ;  uncertainty theta = 0.002336, k = 0.113041
        12        17        32     1      118.225731      268.005898    ;  uncertainty theta = 0.002982, k = 0.073775
        13        12        17     1      120.858437      429.279670    ;  uncertainty theta = 0.002284, k = 0.221084
        13        14        15     1      121.283813      528.035663    ;  uncertainty theta = 0.003395, k = 0.074403
        13        14        30     1      120.013268      289.283162    ;  uncertainty theta = 0.002360, k = 0.065711
        14        13        29     1      120.248764      282.803504    ;  uncertainty theta = 0.003214, k = 0.092730
        14        15        16     1      118.951431      339.108105    ;  uncertainty theta = 0.004568, k = 0.266656
        14        15        19     1      121.923813      456.707899    ;  uncertainty theta = 0.003847, k = 0.134303
        15        14        30     1      119.276367      277.643603    ;  uncertainty theta = 0.001256, k = 0.083317
        15        16        17     1      121.283813      528.035663    ;  uncertainty theta = 0.003395, k = 0.074403
        15        16        31     1      119.276367      277.643635    ;  uncertainty theta = 0.001256, k = 0.083317
        15        19        20     1      111.837257      420.800648    ;  uncertainty theta = 0.003654, k = 0.103573
        15        19        24     1      111.837257      420.800648    ;  uncertainty theta = 0.003654, k = 0.103573
        16        15        19     1      121.923813      456.707899    ;  uncertainty theta = 0.003847, k = 0.134303
        16        17        32     1      120.248764      282.803504    ;  uncertainty theta = 0.003214, k = 0.092730
        17        16        31     1      120.013268      289.283162    ;  uncertainty theta = 0.002360, k = 0.065711
        19        20        21     1      108.329483      682.972625    ;  uncertainty theta = 0.002958, k = 0.048591
        19        20        33     1      107.842728      459.838110    ;  uncertainty theta = 0.000950, k = 0.027781
        19        20        34     1      107.842728      459.838142    ;  uncertainty theta = 0.000950, k = 0.027781
        19        24        23     1      108.329483      682.972561    ;  uncertainty theta = 0.002958, k = 0.048591
        19        24        39     1      107.842728      459.838110    ;  uncertainty theta = 0.000950, k = 0.027781
        19        24        40     1      107.842728      459.838110    ;  uncertainty theta = 0.000950, k = 0.027781
        20        19        24     1      108.657852      382.491600    ;  uncertainty theta = 0.007792, k = 0.258963
        20        21        22     1      109.480667      624.355574    ;  uncertainty theta = 0.001938, k = 0.071824
        20        21        35     1      108.813156      403.609832    ;  uncertainty theta = 0.000527, k = 0.021298
        20        21        36     1      108.813156      403.609832    ;  uncertainty theta = 0.000527, k = 0.021298
        21        20        33     1      109.231308      402.340765    ;  uncertainty theta = 0.001338, k = 0.053074
        21        20        34     1      109.231308      402.340797    ;  uncertainty theta = 0.001338, k = 0.053074
        21        22        23     1      108.649857      450.020815    ;  uncertainty theta = 0.003332, k = 0.271157
        21        22        25     1      108.567673      515.675797    ;  uncertainty theta = 0.001880, k = 0.057243
        22        21        35     1      109.063255      449.909282    ;  uncertainty theta = 0.002193, k = 0.034923
        22        21        36     1      109.063255      449.909282    ;  uncertainty theta = 0.002193, k = 0.034923
        22        23        24     1      109.480667      624.355638    ;  uncertainty theta = 0.001938, k = 0.071824
        22        23        37     1      109.063255      449.909314    ;  uncertainty theta = 0.002193, k = 0.034923
        22        23        38     1      109.063255      449.909314    ;  uncertainty theta = 0.002193, k = 0.034923
        22        25        41     1      110.449501      448.155648    ;  uncertainty theta = 0.002021, k = 0.037482
        22        25        42     1      110.449501      448.155648    ;  uncertainty theta = 0.002021, k = 0.037482
        22        25        43     1      110.449501      448.155648    ;  uncertainty theta = 0.002021, k = 0.037482
        23        22        25     1      108.567673      515.675861    ;  uncertainty theta = 0.001880, k = 0.057243
        23        24        39     1      109.231308      402.340797    ;  uncertainty theta = 0.001338, k = 0.053074
        23        24        40     1      109.231308      402.340797    ;  uncertainty theta = 0.001338, k = 0.053074
        24        23        37     1      108.813156      403.609832    ;  uncertainty theta = 0.000527, k = 0.021298
        24        23        38     1      108.813156      403.609832    ;  uncertainty theta = 0.000527, k = 0.021298
        33        20        34     1      105.636253      323.646407    ;  uncertainty theta = 0.002020, k = 0.031576
        35        21        36     1      105.583641      318.283614    ;  uncertainty theta = 0.001903, k = 0.048086
        37        23        38     1      105.583641      318.283614    ;  uncertainty theta = 0.001903, k = 0.048085
        39        24        40     1      105.636253      323.646407    ;  uncertainty theta = 0.002020, k = 0.031576
        41        25        42     1      106.619629      320.660608    ;  uncertainty theta = 0.001947, k = 0.024486
        41        25        43     1      106.619629      320.660608    ;  uncertainty theta = 0.001947, k = 0.024486
        42        25        43     1      106.619629      320.660576    ;  uncertainty theta = 0.001947, k = 0.024487

[ dihedrals ] ; propers for gromacs 4.5 or higher, use funct 9
;       ai        aj        ak        al funct           phase               k        pn
         1         2         4         7     9        0.000000       -0.184790         1    ;  uncertainty k = 0.321486
         1         2         4         7     9      180.000000        7.012765         2    ;  uncertainty k = 0.723269
         1         2         4         7     9        0.000000        0.265657         3    ;  uncertainty k = 0.306559
         1         2         4         7     9      180.000000        1.386198         4    ;  uncertainty k = 0.296939
         1         2         4         8     9        0.000000        0.070955         1    ;  uncertainty k = 0.503067
         1         2         4         8     9      180.000000        6.603892         2    ;  uncertainty k = 0.839765
         1         2         4         8     9        0.000000        0.947610         3    ;  uncertainty k = 0.295938
         1         2         4         8     9      180.000000        1.416061         4    ;  uncertainty k = 0.193480
         1         2         5        11     9        0.000000        1.403110         1    ;  uncertainty k = 1.780173
         1         2         5        11     9      180.000000        5.574977         2    ;  uncertainty k = 0.974761
         1         2         5        11     9        0.000000        2.281849         3    ;  uncertainty k = 0.367388
         1         2         5        11     9      180.000000        0.378300         4    ;  uncertainty k = 0.419358
         1         3         6         7     9        0.000000       -0.037320         1    ;  uncertainty k = 0.446590
         1         3         6         7     9      180.000000        7.190768         2    ;  uncertainty k = 0.575230
         1         3         6         7     9        0.000000        0.100290         3    ;  uncertainty k = 0.435788
         1         3         6         7     9      180.000000        1.245216         4    ;  uncertainty k = 0.285117
         1         3         6        18     9        0.000000       -0.122892         1    ;  uncertainty k = 0.197615
         1         3         6        18     9      180.000000       10.863912         2    ;  uncertainty k = 0.566594
         1         3         6        18     9        0.000000        1.520436         3    ;  uncertainty k = 0.425418
         1         3         6        18     9      180.000000        1.527117         4    ;  uncertainty k = 0.291310
         2         1         3         6     9        0.000000       -0.057073         1    ;  uncertainty k = 0.150985
         2         1         3         6     9      180.000000       15.642469         2    ;  uncertainty k = 0.154884
         2         1         3         6     9        0.000000       -0.221494         3    ;  uncertainty k = 0.546048
         2         1         3         6     9      180.000000        0.972330         4    ;  uncertainty k = 0.230431
         2         1         3        26     9        0.000000        0.150631         1    ;  uncertainty k = 0.194735
         2         1         3        26     9      180.000000        9.803223         2    ;  uncertainty k = 0.267504
         2         1         3        26     9        0.000000        1.485879         3    ;  uncertainty k = 0.156851
         2         1         3        26     9      180.000000        1.684062         4    ;  uncertainty k = 0.083206
         2         4         7         6     9        0.000000        0.050628         1    ;  uncertainty k = 0.400123
         2         4         7         6     9      180.000000       11.708080         2    ;  uncertainty k = 0.364861
         2         4         7         6     9        0.000000       -0.278443         3    ;  uncertainty k = 0.242420
         2         4         7         6     9      180.000000        1.120413         4    ;  uncertainty k = 0.208216
         2         4         7        27     9        0.000000        0.041981         1    ;  uncertainty k = 0.435749
         2         4         7        27     9      180.000000        7.322408         2    ;  uncertainty k = 0.745969
         2         4         7        27     9        0.000000        1.367994         3    ;  uncertainty k = 0.302457
         2         4         7        27     9      180.000000        1.425752         4    ;  uncertainty k = 0.115038
         2         4         8         9     9        0.000000       -1.193949         1    ;  uncertainty k = 0.844290
         2         4         8         9     9      180.000000        2.489746         2    ;  uncertainty k = 0.691617
         2         4         8         9     9        0.000000       -0.230394         3    ;  uncertainty k = 0.457346
         2         4         8         9     9      180.000000        0.546888         4    ;  uncertainty k = 0.237414
         2         4         8        10     9        0.000000       -2.356332         1    ;  uncertainty k = 0.972286
         2         4         8        10     9      180.000000        4.954601         2    ;  uncertainty k = 0.587205
         2         4         8        10     9        0.000000        0.258129         3    ;  uncertainty k = 0.265379
         2         4         8        10     9      180.000000       -0.085012         4    ;  uncertainty k = 0.204923
         2         5        11         9     9        0.000000       -0.806560         1    ;  uncertainty k = 0.443205
         2         5        11         9     9      180.000000       23.923140         2    ;  uncertainty k = 0.167277
         2         5        11         9     9        0.000000        1.746404         3    ;  uncertainty k = 0.254558
         2         5        11         9     9      180.000000        1.448584         4    ;  uncertainty k = 0.448997
         2         5        11        12     9        0.000000       -0.695984         1    ;  uncertainty k = 0.864327
         2         5        11        12     9      180.000000       19.223981         2    ;  uncertainty k = 0.453281
         2         5        11        12     9        0.000000        2.708676         3    ;  uncertainty k = 0.475640
         2         5        11        12     9      180.000000        1.348033         4    ;  uncertainty k = 0.322002
         3         1         2         4     9        0.000000        0.299010         1    ;  uncertainty k = 0.441394
         3         1         2         4     9      180.000000        8.793316         2    ;  uncertainty k = 0.480346
         3         1         2         4     9        0.000000       -0.398610         3    ;  uncertainty k = 0.171035
         3         1         2         4     9      180.000000        1.079569         4    ;  uncertainty k = 0.206112
         3         1         2         5     9        0.000000        0.123441         1    ;  uncertainty k = 0.423850
         3         1         2         5     9      180.000000       10.614146         2    ;  uncertainty k = 0.337062
         3         1         2         5     9        0.000000        0.825517         3    ;  uncertainty k = 0.234227
         3         1         2         5     9      180.000000        1.460557         4    ;  uncertainty k = 0.150431
         3         6         7         4     9        0.000000        0.014580         1    ;  uncertainty k = 0.406168
         3         6         7         4     9      180.000000        8.580803         2    ;  uncertainty k = 0.496282
         3         6         7         4     9        0.000000        0.411247         3    ;  uncertainty k = 0.429260
         3         6         7         4     9      180.000000        1.349937         4    ;  uncertainty k = 0.402939
         3         6         7        27     9        0.000000        0.166988         1    ;  uncertainty k = 0.092153
         3         6         7        27     9      180.000000        6.142410         2    ;  uncertainty k = 0.526407
         3         6         7        27     9        0.000000        1.428280         3    ;  uncertainty k = 0.294529
         3         6         7        27     9      180.000000        1.629598         4    ;  uncertainty k = 0.083727
         4         2         1        44     9        0.000000       -0.086630         1    ;  uncertainty k = 0.278043
         4         2         1        44     9      180.000000        5.469934         2    ;  uncertainty k = 0.424640
         4         2         1        44     9        0.000000        1.374954         3    ;  uncertainty k = 0.418873
         4         2         1        44     9      180.000000        1.196756         4    ;  uncertainty k = 0.132430
         4         2         5        11     9        0.000000        1.795741         1    ;  uncertainty k = 2.236194
         4         2         5        11     9      180.000000        3.972890         2    ;  uncertainty k = 1.621073
         4         2         5        11     9        0.000000        1.402420         3    ;  uncertainty k = 0.568804
         4         2         5        11     9      180.000000        0.447823         4    ;  uncertainty k = 0.482506
         4         7         6        18     9        0.000000        0.052940         1    ;  uncertainty k = 0.279630
         4         7         6        18     9      180.000000       14.300887         2    ;  uncertainty k = 0.204150
         4         7         6        18     9        0.000000        1.453226         3    ;  uncertainty k = 0.306010
         4         7         6        18     9      180.000000        1.325492         4    ;  uncertainty k = 0.084421
         4         8         9        11     9        0.000000        0.299155         1    ;  uncertainty k = 1.495458
         4         8         9        11     9      180.000000        4.160269         2    ;  uncertainty k = 1.161050
         4         8         9        11     9        0.000000        0.720046         3    ;  uncertainty k = 0.199570
         4         8         9        11     9      180.000000        0.476898         4    ;  uncertainty k = 0.377921
         4         8         9        28     9        0.000000        2.496625         1    ;  uncertainty k = 2.318088
         4         8         9        28     9      180.000000        5.316572         2    ;  uncertainty k = 0.889294
         4         8         9        28     9        0.000000        1.796287         3    ;  uncertainty k = 0.190470
         4         8         9        28     9      180.000000       -0.030160         4    ;  uncertainty k = 0.088266
         5         2         1        44     9        0.000000       -0.532603         1    ;  uncertainty k = 0.678536
         5         2         1        44     9      180.000000        7.650950         2    ;  uncertainty k = 0.346838
         5         2         1        44     9        0.000000        1.209870         3    ;  uncertainty k = 0.365776
         5         2         1        44     9      180.000000        1.221244         4    ;  uncertainty k = 0.215969
         5         2         4         7     9        0.000000        0.049402         1    ;  uncertainty k = 0.402186
         5         2         4         7     9      180.000000        8.514216         2    ;  uncertainty k = 0.717814
         5         2         4         7     9        0.000000        0.658246         3    ;  uncertainty k = 0.224700
         5         2         4         7     9      180.000000        1.431737         4    ;  uncertainty k = 0.311120
         5         2         4         8     9        0.000000       -0.183103         1    ;  uncertainty k = 0.431012
         5         2         4         8     9      180.000000        7.575105         2    ;  uncertainty k = 0.899866
         5         2         4         8     9        0.000000        0.995014         3    ;  uncertainty k = 0.432246
         5         2         4         8     9      180.000000        1.496214         4    ;  uncertainty k = 0.209473
         5        11         9         8     9        0.000000        0.194990         1    ;  uncertainty k = 0.883244
         5        11         9         8     9      180.000000        7.090508         2    ;  uncertainty k = 0.650035
         5        11         9         8     9        0.000000        0.606196         3    ;  uncertainty k = 0.671787
         5        11         9         8     9      180.000000        0.383228         4    ;  uncertainty k = 0.217670
         5        11         9        28     9        0.000000        5.758950         1    ;  uncertainty k = 1.531635
         5        11         9        28     9      180.000000       10.846313         2    ;  uncertainty k = 0.608795
         5        11         9        28     9        0.000000        1.244464         3    ;  uncertainty k = 0.560006
         5        11         9        28     9      180.000000       -0.235958         4    ;  uncertainty k = 0.089809
         5        11        12        13     9        0.000000        0.768361         1    ;  uncertainty k = 0.701614
         5        11        12        13     9      180.000000        4.090085         2    ;  uncertainty k = 0.324899
         5        11        12        13     9        0.000000        0.583412         3    ;  uncertainty k = 0.176292
         5        11        12        13     9      180.000000       -0.135381         4    ;  uncertainty k = 0.165094
         5        11        12        17     9        0.000000        0.768361         1    ;  uncertainty k = 0.701614
         5        11        12        17     9      180.000000        4.090085         2    ;  uncertainty k = 0.324899
         5        11        12        17     9        0.000000        0.583412         3    ;  uncertainty k = 0.176292
         5        11        12        17     9      180.000000       -0.135381         4    ;  uncertainty k = 0.165094
         6         3         1        44     9        0.000000       -0.011413         1    ;  uncertainty k = 0.293285
         6         3         1        44     9      180.000000        9.463462         2    ;  uncertainty k = 0.336795
         6         3         1        44     9        0.000000        1.362115         3    ;  uncertainty k = 0.433380
         6         3         1        44     9      180.000000        1.933407         4    ;  uncertainty k = 0.228211
         6         7         4         8     9        0.000000        0.264940         1    ;  uncertainty k = 0.246431
         6         7         4         8     9      180.000000        9.013462         2    ;  uncertainty k = 0.640345
         6         7         4         8     9        0.000000        1.402405         3    ;  uncertainty k = 0.236211
         6         7         4         8     9      180.000000        1.807428         4    ;  uncertainty k = 0.213904
         7         4         8         9     9        0.000000        0.354863         1    ;  uncertainty k = 0.703754
         7         4         8         9     9      180.000000        2.980996         2    ;  uncertainty k = 0.626009
         7         4         8         9     9        0.000000        0.683030         3    ;  uncertainty k = 0.504923
         7         4         8         9     9      180.000000        0.519281         4    ;  uncertainty k = 0.265179
         7         4         8        10     9        0.000000       -1.911914         1    ;  uncertainty k = 0.521653
         7         4         8        10     9      180.000000        5.458000         2    ;  uncertainty k = 0.685108
         7         4         8        10     9        0.000000        0.514570         3    ;  uncertainty k = 0.325112
         7         4         8        10     9      180.000000       -0.138469         4    ;  uncertainty k = 0.135496
         7         6         3        26     9        0.000000       -0.021607         1    ;  uncertainty k = 0.306379
         7         6         3        26     9      180.000000        5.222009         2    ;  uncertainty k = 0.775374
         7         6         3        26     9        0.000000        1.141407         3    ;  uncertainty k = 0.190575
         7         6         3        26     9      180.000000        1.375914         4    ;  uncertainty k = 0.167968
         8         4         7        27     9        0.000000       -0.388183         1    ;  uncertainty k = 0.709543
         8         4         7        27     9      180.000000        7.471749         2    ;  uncertainty k = 0.400570
         8         4         7        27     9        0.000000        0.936545         3    ;  uncertainty k = 0.220276
         8         4         7        27     9      180.000000        1.188458         4    ;  uncertainty k = 0.138463
         8         9        11        12     9        0.000000        1.082556         1    ;  uncertainty k = 0.793619
         8         9        11        12     9      180.000000        5.405041         2    ;  uncertainty k = 0.790914
         8         9        11        12     9        0.000000        0.524392         3    ;  uncertainty k = 0.349352
         8         9        11        12     9      180.000000       -0.086386         4    ;  uncertainty k = 0.311581
         9        11        12        13     9        0.000000        0.084938         1    ;  uncertainty k = 0.354983
         9        11        12        13     9      180.000000        4.294182         2    ;  uncertainty k = 0.399585
         9        11        12        13     9        0.000000        0.578568         3    ;  uncertainty k = 0.115233
         9        11        12        13     9      180.000000       -0.106439         4    ;  uncertainty k = 0.051775
         9        11        12        17     9        0.000000        0.084938         1    ;  uncertainty k = 0.354983
         9        11        12        17     9      180.000000        4.294182         2    ;  uncertainty k = 0.399585
         9        11        12        17     9        0.000000        0.578568         3    ;  uncertainty k = 0.115233
         9        11        12        17     9      180.000000       -0.106439         4    ;  uncertainty k = 0.051775
        10         8         9        11     9        0.000000        0.129290         1    ;  uncertainty k = 1.265351
        10         8         9        11     9      180.000000       11.179130         2    ;  uncertainty k = 0.473645
        10         8         9        11     9        0.000000        1.319941         3    ;  uncertainty k = 0.341337
        10         8         9        11     9      180.000000       -0.489621         4    ;  uncertainty k = 0.399230
        10         8         9        28     9        0.000000        1.499196         1    ;  uncertainty k = 2.518562
        10         8         9        28     9      180.000000        9.178552         2    ;  uncertainty k = 0.611521
        10         8         9        28     9        0.000000        0.741428         3    ;  uncertainty k = 0.511189
        10         8         9        28     9      180.000000       -0.114754         4    ;  uncertainty k = 0.058823
        11        12        13        14     9        0.000000        0.052303         1    ;  uncertainty k = 0.232522
        11        12        13        14     9      180.000000        8.863318         2    ;  uncertainty k = 0.555441
        11        12        13        14     9        0.000000        1.272320         3    ;  uncertainty k = 0.271568
        11        12        13        14     9      180.000000        1.699186         4    ;  uncertainty k = 0.176091
        11        12        13        29     9        0.000000       -0.314577         1    ;  uncertainty k = 0.135964
        11        12        13        29     9      180.000000        7.122502         2    ;  uncertainty k = 0.247667
        11        12        13        29     9        0.000000        0.711389         3    ;  uncertainty k = 0.192128
        11        12        13        29     9      180.000000        1.035594         4    ;  uncertainty k = 0.198971
        11        12        17        16     9        0.000000        0.052303         1    ;  uncertainty k = 0.232522
        11        12        17        16     9      180.000000        8.863318         2    ;  uncertainty k = 0.555441
        11        12        17        16     9        0.000000        1.272320         3    ;  uncertainty k = 0.271568
        11        12        17        16     9      180.000000        1.699186         4    ;  uncertainty k = 0.176091
        11        12        17        32     9        0.000000       -0.314577         1    ;  uncertainty k = 0.135964
        11        12        17        32     9      180.000000        7.122502         2    ;  uncertainty k = 0.247667
        11        12        17        32     9        0.000000        0.711389         3    ;  uncertainty k = 0.192128
        11        12        17        32     9      180.000000        1.035594         4    ;  uncertainty k = 0.198971
        12        11         9        28     9        0.000000        0.824007         1    ;  uncertainty k = 0.184195
        12        11         9        28     9      180.000000        4.726683         2    ;  uncertainty k = 0.828636
        12        11         9        28     9        0.000000        1.371554         3    ;  uncertainty k = 0.239647
        12        11         9        28     9      180.000000       -0.074777         4    ;  uncertainty k = 0.262178
        12        13        14        15     9        0.000000       -0.234730         1    ;  uncertainty k = 0.385357
        12        13        14        15     9      180.000000       13.604804         2    ;  uncertainty k = 0.413078
        12        13        14        15     9        0.000000       -0.683954         3    ;  uncertainty k = 0.466384
        12        13        14        15     9      180.000000        0.801758         4    ;  uncertainty k = 0.217609
        12        13        14        30     9        0.000000        0.145262         1    ;  uncertainty k = 0.146453
        12        13        14        30     9      180.000000        8.518850         2    ;  uncertainty k = 0.283647
        12        13        14        30     9        0.000000        1.449275         3    ;  uncertainty k = 0.214330
        12        13        14        30     9      180.000000        1.887271         4    ;  uncertainty k = 0.155295
        12        17        16        15     9        0.000000       -0.234730         1    ;  uncertainty k = 0.385357
        12        17        16        15     9      180.000000       13.604804         2    ;  uncertainty k = 0.413078
        12        17        16        15     9        0.000000       -0.683954         3    ;  uncertainty k = 0.466384
        12        17        16        15     9      180.000000        0.801758         4    ;  uncertainty k = 0.217609
        12        17        16        31     9        0.000000        0.145262         1    ;  uncertainty k = 0.146453
        12        17        16        31     9      180.000000        8.518850         2    ;  uncertainty k = 0.283647
        12        17        16        31     9        0.000000        1.449275         3    ;  uncertainty k = 0.214330
        12        17        16        31     9      180.000000        1.887271         4    ;  uncertainty k = 0.155295
        13        12        17        16     9        0.000000        0.087415         1    ;  uncertainty k = 0.207054
        13        12        17        16     9      180.000000       10.831488         2    ;  uncertainty k = 0.334987
        13        12        17        16     9        0.000000       -0.619418         3    ;  uncertainty k = 0.278121
        13        12        17        16     9      180.000000        0.987997         4    ;  uncertainty k = 0.308313
        13        12        17        32     9        0.000000       -0.028277         1    ;  uncertainty k = 0.223279
        13        12        17        32     9      180.000000        6.758672         2    ;  uncertainty k = 0.525976
        13        12        17        32     9        0.000000        1.276034         3    ;  uncertainty k = 0.242993
        13        12        17        32     9      180.000000        1.530534         4    ;  uncertainty k = 0.258873
        13        14        15        16     9        0.000000        0.030740         1    ;  uncertainty k = 0.350829
        13        14        15        16     9      180.000000        7.862491         2    ;  uncertainty k = 0.570153
        13        14        15        16     9        0.000000        0.219960         3    ;  uncertainty k = 0.281121
        13        14        15        16     9      180.000000        1.384209         4    ;  uncertainty k = 0.292220
        13        14        15        19     9        0.000000        0.231036         1    ;  uncertainty k = 0.424219
        13        14        15        19     9      180.000000        8.559396         2    ;  uncertainty k = 0.447542
        13        14        15        19     9        0.000000        1.177225         3    ;  uncertainty k = 0.358108
        13        14        15        19     9      180.000000        1.580689         4    ;  uncertainty k = 0.290008
        14        13        12        17     9        0.000000        0.087415         1    ;  uncertainty k = 0.207054
        14        13        12        17     9      180.000000       10.831488         2    ;  uncertainty k = 0.334987
        14        13        12        17     9        0.000000       -0.619418         3    ;  uncertainty k = 0.278121
        14        13        12        17     9      180.000000        0.987997         4    ;  uncertainty k = 0.308313
        14        15        16        17     9        0.000000        0.030740         1    ;  uncertainty k = 0.350829
        14        15        16        17     9      180.000000        7.862491         2    ;  uncertainty k = 0.570153
        14        15        16        17     9        0.000000        0.219960         3    ;  uncertainty k = 0.281121
        14        15        16        17     9      180.000000        1.384209         4    ;  uncertainty k = 0.292220
        14        15        16        31     9        0.000000        0.306056         1    ;  uncertainty k = 0.350439
        14        15        16        31     9      180.000000        6.242403         2    ;  uncertainty k = 0.780090
        14        15        16        31     9        0.000000        1.392550         3    ;  uncertainty k = 0.194188
        14        15        16        31     9      180.000000        1.542230         4    ;  uncertainty k = 0.193856
        14        15        19        20     9        0.000000        1.800115         1    ;  uncertainty k = 0.767248
        14        15        19        20     9      180.000000        8.580014         2    ;  uncertainty k = 0.055995
        14        15        19        20     9        0.000000        0.655519         3    ;  uncertainty k = 0.207827
        14        15        19        20     9      180.000000        0.018947         4    ;  uncertainty k = 0.068571
        14        15        19        24     9        0.000000        1.800114         1    ;  uncertainty k = 0.767247
        14        15        19        24     9      180.000000        8.580015         2    ;  uncertainty k = 0.055994
        14        15        19        24     9        0.000000        0.655519         3    ;  uncertainty k = 0.207827
        14        15        19        24     9      180.000000        0.018947         4    ;  uncertainty k = 0.068571
        15        14        13        29     9        0.000000        0.027300         1    ;  uncertainty k = 0.455992
        15        14        13        29     9      180.000000        8.677697         2    ;  uncertainty k = 0.405522
        15        14        13        29     9        0.000000        1.187365         3    ;  uncertainty k = 0.319408
        15        14        13        29     9      180.000000        1.739611         4    ;  uncertainty k = 0.187959
        15        16        17        32     9        0.000000        0.027300         1    ;  uncertainty k = 0.455992
        15        16        17        32     9      180.000000        8.677697         2    ;  uncertainty k = 0.405522
        15        16        17        32     9        0.000000        1.187365         3    ;  uncertainty k = 0.319408
        15        16        17        32     9      180.000000        1.739611         4    ;  uncertainty k = 0.187959
        15        19        20        21     9        0.000000       -0.869412         1    ;  uncertainty k = 0.841277
        15        19        20        21     9      180.000000        0.020461         2    ;  uncertainty k = 0.372436
        15        19        20        21     9        0.000000       -0.093928         3    ;  uncertainty k = 0.193857
        15        19        20        21     9      180.000000        0.259017         4    ;  uncertainty k = 0.078346
        15        19        20        33     9        0.000000        0.585945         1    ;  uncertainty k = 0.550745
        15        19        20        33     9      180.000000       -1.483337         2    ;  uncertainty k = 0.141395
        15        19        20        33     9        0.000000        0.371184         3    ;  uncertainty k = 0.098352
        15        19        20        33     9      180.000000        0.180217         4    ;  uncertainty k = 0.117775
        15        19        20        34     9        0.000000        0.585944         1    ;  uncertainty k = 0.550745
        15        19        20        34     9      180.000000       -1.483337         2    ;  uncertainty k = 0.141395
        15        19        20        34     9        0.000000        0.371185         3    ;  uncertainty k = 0.098351
        15        19        20        34     9      180.000000        0.180217         4    ;  uncertainty k = 0.117774
        15        19        24        23     9        0.000000       -0.869414         1    ;  uncertainty k = 0.841276
        15        19        24        23     9      180.000000        0.020461         2    ;  uncertainty k = 0.372436
        15        19        24        23     9        0.000000       -0.093928         3    ;  uncertainty k = 0.193857
        15        19        24        23     9      180.000000        0.259017         4    ;  uncertainty k = 0.078346
        15        19        24        39     9        0.000000        0.585944         1    ;  uncertainty k = 0.550745
        15        19        24        39     9      180.000000       -1.483338         2    ;  uncertainty k = 0.141395
        15        19        24        39     9        0.000000        0.371184         3    ;  uncertainty k = 0.098351
        15        19        24        39     9      180.000000        0.180217         4    ;  uncertainty k = 0.117775
        15        19        24        40     9        0.000000        0.585944         1    ;  uncertainty k = 0.550745
        15        19        24        40     9      180.000000       -1.483338         2    ;  uncertainty k = 0.141395
        15        19        24        40     9        0.000000        0.371184         3    ;  uncertainty k = 0.098351
        15        19        24        40     9      180.000000        0.180217         4    ;  uncertainty k = 0.117775
        16        15        14        30     9        0.000000        0.306056         1    ;  uncertainty k = 0.350439
        16        15        14        30     9      180.000000        6.242403         2    ;  uncertainty k = 0.780090
        16        15        14        30     9        0.000000        1.392550         3    ;  uncertainty k = 0.194188
        16        15        14        30     9      180.000000        1.542230         4    ;  uncertainty k = 0.193856
        16        15        19        20     9        0.000000        1.800115         1    ;  uncertainty k = 0.767248
        16        15        19        20     9      180.000000        8.580014         2    ;  uncertainty k = 0.055995
        16        15        19        20     9        0.000000        0.655519         3    ;  uncertainty k = 0.207827
        16        15        19        20     9      180.000000        0.018947         4    ;  uncertainty k = 0.068571
        16        15        19        24     9        0.000000        1.800114         1    ;  uncertainty k = 0.767247
        16        15        19        24     9      180.000000        8.580015         2    ;  uncertainty k = 0.055994
        16        15        19        24     9        0.000000        0.655519         3    ;  uncertainty k = 0.207827
        16        15        19        24     9      180.000000        0.018947         4    ;  uncertainty k = 0.068571
        17        12        13        29     9        0.000000       -0.028277         1    ;  uncertainty k = 0.223279
        17        12        13        29     9      180.000000        6.758672         2    ;  uncertainty k = 0.525976
        17        12        13        29     9        0.000000        1.276034         3    ;  uncertainty k = 0.242993
        17        12        13        29     9      180.000000        1.530534         4    ;  uncertainty k = 0.258873
        17        16        15        19     9        0.000000        0.231036         1    ;  uncertainty k = 0.424219
        17        16        15        19     9      180.000000        8.559396         2    ;  uncertainty k = 0.447542
        17        16        15        19     9        0.000000        1.177225         3    ;  uncertainty k = 0.358108
        17        16        15        19     9      180.000000        1.580689         4    ;  uncertainty k = 0.290008
        18         6         3        26     9        0.000000       -0.164895         1    ;  uncertainty k = 0.458057
        18         6         3        26     9      180.000000        8.717670         2    ;  uncertainty k = 0.312534
        18         6         3        26     9        0.000000        0.777601         3    ;  uncertainty k = 0.256890
        18         6         3        26     9      180.000000        0.897535         4    ;  uncertainty k = 0.157117
        18         6         7        27     9        0.000000       -0.388026         1    ;  uncertainty k = 0.271818
        18         6         7        27     9      180.000000        9.843060         2    ;  uncertainty k = 0.427436
        18         6         7        27     9        0.000000        0.955047         3    ;  uncertainty k = 0.236450
        18         6         7        27     9      180.000000        1.015023         4    ;  uncertainty k = 0.197015
        19        15        14        30     9        0.000000       -0.055655         1    ;  uncertainty k = 0.409118
        19        15        14        30     9      180.000000        7.616321         2    ;  uncertainty k = 0.531073
        19        15        14        30     9        0.000000        0.694292         3    ;  uncertainty k = 0.092045
        19        15        14        30     9      180.000000        1.142464         4    ;  uncertainty k = 0.185135
        19        15        16        31     9        0.000000       -0.055655         1    ;  uncertainty k = 0.409118
        19        15        16        31     9      180.000000        7.616321         2    ;  uncertainty k = 0.531073
        19        15        16        31     9        0.000000        0.694292         3    ;  uncertainty k = 0.092045
        19        15        16        31     9      180.000000        1.142464         4    ;  uncertainty k = 0.185135
        19        20        21        22     9        0.000000        3.704486         1    ;  uncertainty k = 1.596315
        19        20        21        22     9      180.000000       -6.060355         2    ;  uncertainty k = 0.507824
        19        20        21        22     9        0.000000        3.600196         3    ;  uncertainty k = 0.632179
        19        20        21        22     9      180.000000        0.067973         4    ;  uncertainty k = 0.427847
        19        20        21        35     9        0.000000        2.964208         1    ;  uncertainty k = 1.046656
        19        20        21        35     9      180.000000       -2.350619         2    ;  uncertainty k = 0.624092
        19        20        21        35     9        0.000000        0.311141         3    ;  uncertainty k = 0.176343
        19        20        21        35     9      180.000000        0.193693         4    ;  uncertainty k = 0.151810
        19        20        21        36     9        0.000000        2.964208         1    ;  uncertainty k = 1.046656
        19        20        21        36     9      180.000000       -2.350619         2    ;  uncertainty k = 0.624092
        19        20        21        36     9        0.000000        0.311141         3    ;  uncertainty k = 0.176343
        19        20        21        36     9      180.000000        0.193693         4    ;  uncertainty k = 0.151810
        19        24        23        22     9        0.000000        3.704485         1    ;  uncertainty k = 1.596317
        19        24        23        22     9      180.000000       -6.060354         2    ;  uncertainty k = 0.507822
        19        24        23        22     9        0.000000        3.600194         3    ;  uncertainty k = 0.632178
        19        24        23        22     9      180.000000        0.067973         4    ;  uncertainty k = 0.427847
        19        24        23        37     9        0.000000        2.964208         1    ;  uncertainty k = 1.046656
        19        24        23        37     9      180.000000       -2.350618         2    ;  uncertainty k = 0.624093
        19        24        23        37     9        0.000000        0.311142         3    ;  uncertainty k = 0.176342
        19        24        23        37     9      180.000000        0.193693         4    ;  uncertainty k = 0.151809
        19        24        23        38     9        0.000000        2.964208         1    ;  uncertainty k = 1.046656
        19        24        23        38     9      180.000000       -2.350618         2    ;  uncertainty k = 0.624093
        19        24        23        38     9        0.000000        0.311142         3    ;  uncertainty k = 0.176342
        19        24        23        38     9      180.000000        0.193693         4    ;  uncertainty k = 0.151809
        20        19        24        23     9        0.000000       -6.925936         1    ;  uncertainty k = 2.290109
        20        19        24        23     9      180.000000        1.460859         2    ;  uncertainty k = 0.245806
        20        19        24        23     9        0.000000        0.903875         3    ;  uncertainty k = 0.143019
        20        19        24        23     9      180.000000       -0.624302         4    ;  uncertainty k = 0.200036
        20        19        24        39     9        0.000000       -7.196568         1    ;  uncertainty k = 1.440641
        20        19        24        39     9      180.000000        0.673831         2    ;  uncertainty k = 0.484260
        20        19        24        39     9        0.000000        0.913642         3    ;  uncertainty k = 0.159656
        20        19        24        39     9      180.000000       -0.165489         4    ;  uncertainty k = 0.111221
        20        19        24        40     9        0.000000       -7.196568         1    ;  uncertainty k = 1.440641
        20        19        24        40     9      180.000000        0.673831         2    ;  uncertainty k = 0.484260
        20        19        24        40     9        0.000000        0.913642         3    ;  uncertainty k = 0.159656
        20        19        24        40     9      180.000000       -0.165489         4    ;  uncertainty k = 0.111221
        20        21        22        23     9        0.000000       -7.734830         1    ;  uncertainty k = 2.963839
        20        21        22        23     9      180.000000        1.355652         2    ;  uncertainty k = 0.729468
        20        21        22        23     9        0.000000        1.355439         3    ;  uncertainty k = 0.356504
        20        21        22        23     9      180.000000       -1.043706         4    ;  uncertainty k = 0.205519
        20        21        22        25     9        0.000000       -3.687964         1    ;  uncertainty k = 0.784384
        20        21        22        25     9      180.000000        0.554285         2    ;  uncertainty k = 0.352479
        20        21        22        25     9        0.000000        0.654414         3    ;  uncertainty k = 0.185792
        20        21        22        25     9      180.000000       -0.108161         4    ;  uncertainty k = 0.088668
        21        20        19        24     9        0.000000       -6.925936         1    ;  uncertainty k = 2.290108
        21        20        19        24     9      180.000000        1.460858         2    ;  uncertainty k = 0.245806
        21        20        19        24     9        0.000000        0.903875         3    ;  uncertainty k = 0.143019
        21        20        19        24     9      180.000000       -0.624302         4    ;  uncertainty k = 0.200036
        21        22        23        24     9        0.000000       -7.734831         1    ;  uncertainty k = 2.963841
        21        22        23        24     9      180.000000        1.355654         2    ;  uncertainty k = 0.729468
        21        22        23        24     9        0.000000        1.355439         3    ;  uncertainty k = 0.356504
        21        22        23        24     9      180.000000       -1.043706         4    ;  uncertainty k = 0.205519
        21        22        23        37     9        0.000000       -9.188469         1    ;  uncertainty k = 1.338527
        21        22        23        37     9      180.000000        0.662593         2    ;  uncertainty k = 0.280487
        21        22        23        37     9        0.000000        1.089981         3    ;  uncertainty k = 0.210880
        21        22        23        37     9      180.000000       -0.165429         4    ;  uncertainty k = 0.078149
        21        22        23        38     9        0.000000       -9.188469         1    ;  uncertainty k = 1.338527
        21        22        23        38     9      180.000000        0.662593         2    ;  uncertainty k = 0.280487
        21        22        23        38     9        0.000000        1.089981         3    ;  uncertainty k = 0.210880
        21        22        23        38     9      180.000000       -0.165429         4    ;  uncertainty k = 0.078149
        21        22        25        41     9        0.000000       -4.559498         1    ;  uncertainty k = 0.689036
        21        22        25        41     9      180.000000       -1.609555         2    ;  uncertainty k = 0.193226
        21        22        25        41     9        0.000000        1.085320         3    ;  uncertainty k = 0.031613
        21        22        25        41     9      180.000000        0.021541         4    ;  uncertainty k = 0.058287
        21        22        25        42     9        0.000000       -4.559498         1    ;  uncertainty k = 0.689036
        21        22        25        42     9      180.000000       -1.609555         2    ;  uncertainty k = 0.193226
        21        22        25        42     9        0.000000        1.085320         3    ;  uncertainty k = 0.031613
        21        22        25        42     9      180.000000        0.021541         4    ;  uncertainty k = 0.058287
        21        22        25        43     9        0.000000       -4.559498         1    ;  uncertainty k = 0.689036
        21        22        25        43     9      180.000000       -1.609555         2    ;  uncertainty k = 0.193226
        21        22        25        43     9        0.000000        1.085320         3    ;  uncertainty k = 0.031613
        21        22        25        43     9      180.000000        0.021541         4    ;  uncertainty k = 0.058287
        22        21        20        33     9        0.000000        2.958041         1    ;  uncertainty k = 0.759812
        22        21        20        33     9      180.000000       -2.103837         2    ;  uncertainty k = 0.602234
        22        21        20        33     9        0.000000        0.327923         3    ;  uncertainty k = 0.034339
        22        21        20        33     9      180.000000        0.280425         4    ;  uncertainty k = 0.154244
        22        21        20        34     9        0.000000        2.958042         1    ;  uncertainty k = 0.759809
        22        21        20        34     9      180.000000       -2.103838         2    ;  uncertainty k = 0.602234
        22        21        20        34     9        0.000000        0.327923         3    ;  uncertainty k = 0.034339
        22        21        20        34     9      180.000000        0.280425         4    ;  uncertainty k = 0.154244
        22        23        24        39     9        0.000000        2.958042         1    ;  uncertainty k = 0.759810
        22        23        24        39     9      180.000000       -2.103838         2    ;  uncertainty k = 0.602233
        22        23        24        39     9        0.000000        0.327924         3    ;  uncertainty k = 0.034339
        22        23        24        39     9      180.000000        0.280425         4    ;  uncertainty k = 0.154244
        22        23        24        40     9        0.000000        2.958042         1    ;  uncertainty k = 0.759810
        22        23        24        40     9      180.000000       -2.103838         2    ;  uncertainty k = 0.602233
        22        23        24        40     9        0.000000        0.327924         3    ;  uncertainty k = 0.034339
        22        23        24        40     9      180.000000        0.280425         4    ;  uncertainty k = 0.154244
        23        22        21        35     9        0.000000       -9.188469         1    ;  uncertainty k = 1.338527
        23        22        21        35     9      180.000000        0.662592         2    ;  uncertainty k = 0.280487
        23        22        21        35     9        0.000000        1.089980         3    ;  uncertainty k = 0.210879
        23        22        21        35     9      180.000000       -0.165429         4    ;  uncertainty k = 0.078149
        23        22        21        36     9        0.000000       -9.188469         1    ;  uncertainty k = 1.338527
        23        22        21        36     9      180.000000        0.662592         2    ;  uncertainty k = 0.280487
        23        22        21        36     9        0.000000        1.089980         3    ;  uncertainty k = 0.210879
        23        22        21        36     9      180.000000       -0.165429         4    ;  uncertainty k = 0.078149
        23        22        25        41     9        0.000000       -4.559498         1    ;  uncertainty k = 0.689038
        23        22        25        41     9      180.000000       -1.609553         2    ;  uncertainty k = 0.193227
        23        22        25        41     9        0.000000        1.085321         3    ;  uncertainty k = 0.031613
        23        22        25        41     9      180.000000        0.021541         4    ;  uncertainty k = 0.058287
        23        22        25        42     9        0.000000       -4.559498         1    ;  uncertainty k = 0.689038
        23        22        25        42     9      180.000000       -1.609553         2    ;  uncertainty k = 0.193227
        23        22        25        42     9        0.000000        1.085321         3    ;  uncertainty k = 0.031613
        23        22        25        42     9      180.000000        0.021541         4    ;  uncertainty k = 0.058287
        23        22        25        43     9        0.000000       -4.559498         1    ;  uncertainty k = 0.689038
        23        22        25        43     9      180.000000       -1.609553         2    ;  uncertainty k = 0.193227
        23        22        25        43     9        0.000000        1.085321         3    ;  uncertainty k = 0.031613
        23        22        25        43     9      180.000000        0.021541         4    ;  uncertainty k = 0.058287
        24        19        20        33     9        0.000000       -7.196569         1    ;  uncertainty k = 1.440639
        24        19        20        33     9      180.000000        0.673830         2    ;  uncertainty k = 0.484260
        24        19        20        33     9        0.000000        0.913642         3    ;  uncertainty k = 0.159655
        24        19        20        33     9      180.000000       -0.165489         4    ;  uncertainty k = 0.111221
        24        19        20        34     9        0.000000       -7.196567         1    ;  uncertainty k = 1.440643
        24        19        20        34     9      180.000000        0.673830         2    ;  uncertainty k = 0.484259
        24        19        20        34     9        0.000000        0.913642         3    ;  uncertainty k = 0.159656
        24        19        20        34     9      180.000000       -0.165489         4    ;  uncertainty k = 0.111221
        24        23        22        25     9        0.000000       -3.687966         1    ;  uncertainty k = 0.784385
        24        23        22        25     9      180.000000        0.554285         2    ;  uncertainty k = 0.352478
        24        23        22        25     9        0.000000        0.654414         3    ;  uncertainty k = 0.185792
        24        23        22        25     9      180.000000       -0.108161         4    ;  uncertainty k = 0.088668
        25        22        21        35     9        0.000000       -3.231483         1    ;  uncertainty k = 0.275736
        25        22        21        35     9      180.000000       -1.612994         2    ;  uncertainty k = 0.336074
        25        22        21        35     9        0.000000        0.555551         3    ;  uncertainty k = 0.069304
        25        22        21        35     9      180.000000        0.205456         4    ;  uncertainty k = 0.118854
        25        22        21        36     9        0.000000       -3.231483         1    ;  uncertainty k = 0.275736
        25        22        21        36     9      180.000000       -1.612994         2    ;  uncertainty k = 0.336074
        25        22        21        36     9        0.000000        0.555551         3    ;  uncertainty k = 0.069304
        25        22        21        36     9      180.000000        0.205456         4    ;  uncertainty k = 0.118854
        25        22        23        37     9        0.000000       -3.231483         1    ;  uncertainty k = 0.275737
        25        22        23        37     9      180.000000       -1.612994         2    ;  uncertainty k = 0.336072
        25        22        23        37     9        0.000000        0.555551         3    ;  uncertainty k = 0.069305
        25        22        23        37     9      180.000000        0.205456         4    ;  uncertainty k = 0.118854
        25        22        23        38     9        0.000000       -3.231483         1    ;  uncertainty k = 0.275737
        25        22        23        38     9      180.000000       -1.612994         2    ;  uncertainty k = 0.336072
        25        22        23        38     9        0.000000        0.555551         3    ;  uncertainty k = 0.069305
        25        22        23        38     9      180.000000        0.205456         4    ;  uncertainty k = 0.118854
        26         3         1        44     9        0.000000       -0.169011         1    ;  uncertainty k = 0.251724
        26         3         1        44     9      180.000000        8.399339         2    ;  uncertainty k = 0.338024
        26         3         1        44     9        0.000000       -0.223565         3    ;  uncertainty k = 0.293096
        26         3         1        44     9      180.000000        0.239211         4    ;  uncertainty k = 0.177226
        29        13        14        30     9        0.000000        0.054675         1    ;  uncertainty k = 0.273342
        29        13        14        30     9      180.000000        8.085438         2    ;  uncertainty k = 0.527638
        29        13        14        30     9        0.000000       -0.389630         3    ;  uncertainty k = 0.254642
        29        13        14        30     9      180.000000        0.315097         4    ;  uncertainty k = 0.248833
        31        16        17        32     9        0.000000        0.054675         1    ;  uncertainty k = 0.273342
        31        16        17        32     9      180.000000        8.085438         2    ;  uncertainty k = 0.527638
        31        16        17        32     9        0.000000       -0.389630         3    ;  uncertainty k = 0.254642
        31        16        17        32     9      180.000000        0.315097         4    ;  uncertainty k = 0.248833
        33        20        21        35     9        0.000000       -2.483008         1    ;  uncertainty k = 1.258061
        33        20        21        35     9      180.000000        1.651601         2    ;  uncertainty k = 0.503911
        33        20        21        35     9        0.000000       -0.107336         3    ;  uncertainty k = 0.093044
        33        20        21        35     9      180.000000       -0.809785         4    ;  uncertainty k = 0.123671
        33        20        21        36     9        0.000000       -2.483008         1    ;  uncertainty k = 1.258061
        33        20        21        36     9      180.000000        1.651601         2    ;  uncertainty k = 0.503911
        33        20        21        36     9        0.000000       -0.107336         3    ;  uncertainty k = 0.093044
        33        20        21        36     9      180.000000       -0.809785         4    ;  uncertainty k = 0.123671
        34        20        21        35     9        0.000000       -2.483007         1    ;  uncertainty k = 1.258060
        34        20        21        35     9      180.000000        1.651601         2    ;  uncertainty k = 0.503910
        34        20        21        35     9        0.000000       -0.107336         3    ;  uncertainty k = 0.093043
        34        20        21        35     9      180.000000       -0.809785         4    ;  uncertainty k = 0.123672
        34        20        21        36     9        0.000000       -2.483007         1    ;  uncertainty k = 1.258060
        34        20        21        36     9      180.000000        1.651601         2    ;  uncertainty k = 0.503910
        34        20        21        36     9        0.000000       -0.107336         3    ;  uncertainty k = 0.093043
        34        20        21        36     9      180.000000       -0.809785         4    ;  uncertainty k = 0.123672
        37        23        24        39     9        0.000000       -2.483008         1    ;  uncertainty k = 1.258061
        37        23        24        39     9      180.000000        1.651602         2    ;  uncertainty k = 0.503911
        37        23        24        39     9        0.000000       -0.107337         3    ;  uncertainty k = 0.093043
        37        23        24        39     9      180.000000       -0.809785         4    ;  uncertainty k = 0.123672
        37        23        24        40     9        0.000000       -2.483008         1    ;  uncertainty k = 1.258061
        37        23        24        40     9      180.000000        1.651602         2    ;  uncertainty k = 0.503911
        37        23        24        40     9        0.000000       -0.107337         3    ;  uncertainty k = 0.093043
        37        23        24        40     9      180.000000       -0.809785         4    ;  uncertainty k = 0.123672
        38        23        24        39     9        0.000000       -2.483008         1    ;  uncertainty k = 1.258061
        38        23        24        39     9      180.000000        1.651602         2    ;  uncertainty k = 0.503911
        38        23        24        39     9        0.000000       -0.107337         3    ;  uncertainty k = 0.093043
        38        23        24        39     9      180.000000       -0.809785         4    ;  uncertainty k = 0.123672
        38        23        24        40     9        0.000000       -2.483008         1    ;  uncertainty k = 1.258061
        38        23        24        40     9      180.000000        1.651602         2    ;  uncertainty k = 0.503911
        38        23        24        40     9        0.000000       -0.107337         3    ;  uncertainty k = 0.093043
        38        23        24        40     9      180.000000       -0.809785         4    ;  uncertainty k = 0.123672

[ dihedrals ] ; impropers
;       ai        aj        ak        al funct           phase               k        pn
         1         2         3        44     4      180.000000        3.056717         2    ;  uncertainty k = 0.286146
         1         3        44         2     4      180.000000        3.056717         2    ;  uncertainty k = 0.286146
         1        44         2         3     4      180.000000        3.056717         2    ;  uncertainty k = 0.286146
         2         1         4         5     4      180.000000       21.107998         2    ;  uncertainty k = 0.036468
         2         4         5         1     4      180.000000       21.107998         2    ;  uncertainty k = 0.036468
         2         5         1         4     4      180.000000       21.107998         2    ;  uncertainty k = 0.036468
         3         1         6        26     4      180.000000        3.605828         2    ;  uncertainty k = 0.146573
         3         6        26         1     4      180.000000        3.605828         2    ;  uncertainty k = 0.146573
         3        26         1         6     4      180.000000        3.605828         2    ;  uncertainty k = 0.146573
         4         2         7         8     4      180.000000        5.434747         2    ;  uncertainty k = 0.365734
         4         7         8         2     4      180.000000        5.434747         2    ;  uncertainty k = 0.365734
         4         8         2         7     4      180.000000        5.434747         2    ;  uncertainty k = 0.365734
         6         3         7        18     4      180.000000       16.721157         2    ;  uncertainty k = 0.059128
         6         7        18         3     4      180.000000       16.721157         2    ;  uncertainty k = 0.059128
         6        18         3         7     4      180.000000       16.721157         2    ;  uncertainty k = 0.059128
         7         4         6        27     4      180.000000        3.847251         2    ;  uncertainty k = 0.056782
         7         6        27         4     4      180.000000        3.847251         2    ;  uncertainty k = 0.056782
         7        27         4         6     4      180.000000        3.847251         2    ;  uncertainty k = 0.056782
         8         4         9        10     4      180.000000       50.258063         2    ;  uncertainty k = 0.010206
         8         9        10         4     4      180.000000       50.258063         2    ;  uncertainty k = 0.010206
         8        10         4         9     4      180.000000       50.258063         2    ;  uncertainty k = 0.010206
         9         8        11        28     4      180.000000        0.721307         2    ;  uncertainty k = 0.517019
         9        11        28         8     4      180.000000        0.721307         2    ;  uncertainty k = 0.517019
         9        28         8        11     4      180.000000        0.721307         2    ;  uncertainty k = 0.517019
        11         5         9        12     4      180.000000       30.426468         2    ;  uncertainty k = 0.036753
        11         9        12         5     4      180.000000       30.426468         2    ;  uncertainty k = 0.036753
        11        12         5         9     4      180.000000       30.426468         2    ;  uncertainty k = 0.036753
        12        11        13        17     4      180.000000        7.632477         2    ;  uncertainty k = 0.216271
        12        13        17        11     4      180.000000        7.632477         2    ;  uncertainty k = 0.216271
        12        17        11        13     4      180.000000        7.632477         2    ;  uncertainty k = 0.216271
        13        12        14        29     4      180.000000        4.327143         2    ;  uncertainty k = 0.268125
        13        14        29        12     4      180.000000        4.327143         2    ;  uncertainty k = 0.268125
        13        29        12        14     4      180.000000        4.327143         2    ;  uncertainty k = 0.268125
        14        13        15        30     4      180.000000        2.160280         2    ;  uncertainty k = 0.219304
        14        15        30        13     4      180.000000        2.160280         2    ;  uncertainty k = 0.219304
        14        30        13        15     4      180.000000        2.160280         2    ;  uncertainty k = 0.219304
        15        14        16        19     4      180.000000       22.962857         2    ;  uncertainty k = 0.047159
        15        16        19        14     4      180.000000       22.962857         2    ;  uncertainty k = 0.047159
        15        19        14        16     4      180.000000       22.962857         2    ;  uncertainty k = 0.047159
        16        15        17        31     4      180.000000        2.160281         2    ;  uncertainty k = 0.219304
        16        17        31        15     4      180.000000        2.160281         2    ;  uncertainty k = 0.219304
        16        31        15        17     4      180.000000        2.160281         2    ;  uncertainty k = 0.219304
        17        12        16        32     4      180.000000        4.327139         2    ;  uncertainty k = 0.268123
        17        16        32        12     4      180.000000        4.327139         2    ;  uncertainty k = 0.268123
        17        32        12        16     4      180.000000        4.327139         2    ;  uncertainty k = 0.268123

[ pairs ]
;       ai        aj funct
         1         7     1
         1         8     1
         1        11     1
         1        18     1
         2         6     1
         2         9     1
         2        10     1
         2        12     1
         2        26     1
         2        27     1
         3         4     1
         3         5     1
         3        27     1
         4        11     1
         4        18     1
         4        28     1
         4        44     1
         5         7     1
         5         8     1
         5        13     1
         5        17     1
         5        28     1
         5        44     1
         6         8     1
         6        44     1
         7         9     1
         7        10     1
         7        26     1
         8        12     1
         8        27     1
         9        13     1
         9        17     1
        10        11     1
        10        28     1
        11        14     1
        11        16     1
        11        29     1
        11        32     1
        12        15     1
        12        28     1
        12        30     1
        12        31     1
        13        16     1
        13        19     1
        13        32     1
        14        17     1
        14        20     1
        14        24     1
        14        31     1
        15        21     1
        15        23     1
        15        29     1
        15        32     1
        15        33     1
        15        34     1
        15        39     1
        15        40     1
        16        20     1
        16        24     1
        16        30     1
        17        19     1
        17        29     1
        18        26     1
        18        27     1
        19        22     1
        19        30     1
        19        31     1
        19        35     1
        19        36     1
        19        37     1
        19        38     1
        20        23     1
        20        25     1
        20        39     1
        20        40     1
        21        24     1
        21        37     1
        21        38     1
        21        41     1
        21        42     1
        21        43     1
        22        33     1
        22        34     1
        22        39     1
        22        40     1
        23        35     1
        23        36     1
        23        41     1
        23        42     1
        23        43     1
        24        25     1
        24        33     1
        24        34     1
        25        35     1
        25        36     1
        25        37     1
        25        38     1
        26        44     1
        29        30     1
        31        32     1
        33        35     1
        33        36     1
        34        35     1
        34        36     1
        37        39     1
        37        40     1
        38        39     1
        38        40     1
