; ITP file created by ByteFF-joint-25, 2026-02-17 09:51:06.650974

[ atomtypes ]
;name           bonded.type        at.num        mass        charge   ptype           sigma         epsilon
 c0bf                                   6      0.0000       0.00000       A     3.31504e-01     4.13224e-01    ;  uncertainty sigma = 0.000008, epsilon = 0.000825
 c1bf                                   6      0.0000       0.00000       A     3.31513e-01     4.13012e-01    ;  uncertainty sigma = 0.000012, epsilon = 0.000723
 c2bf                                   6      0.0000       0.00000       A     3.31510e-01     4.13281e-01    ;  uncertainty sigma = 0.000007, epsilon = 0.000662
 c3bf                                   6      0.0000       0.00000       A     3.31553e-01     4.14094e-01    ;  uncertainty sigma = 0.000012, epsilon = 0.000786
 n4bf                                   7      0.0000       0.00000       A     3.38451e-01     3.94289e-01    ;  uncertainty sigma = 0.000025, epsilon = 0.001873
 c5bf                                   6      0.0000       0.00000       A     3.31510e-01     4.13349e-01    ;  uncertainty sigma = 0.000006, epsilon = 0.000631
 c6bf                                   6      0.0000       0.00000       A     3.31510e-01     4.13527e-01    ;  uncertainty sigma = 0.000008, epsilon = 0.000785
 c7bf                                   6      0.0000       0.00000       A     3.31539e-01     4.13390e-01    ;  uncertainty sigma = 0.000009, epsilon = 0.001213
 n8bf                                   7      0.0000       0.00000       A     3.26867e-01     4.92512e-01    ;  uncertainty sigma = 0.000088, epsilon = 0.003430
 o9bf                                   8      0.0000       0.00000       A     3.04814e-01     6.11899e-01    ;  uncertainty sigma = 0.000014, epsilon = 0.001624
 c10bf                                  6      0.0000       0.00000       A     3.31514e-01     4.12811e-01    ;  uncertainty sigma = 0.000013, epsilon = 0.001292
 c11bf                                  6      0.0000       0.00000       A     3.31503e-01     4.12926e-01    ;  uncertainty sigma = 0.000017, epsilon = 0.001214
 c12bf                                  6      0.0000       0.00000       A     3.31521e-01     4.13221e-01    ;  uncertainty sigma = 0.000007, epsilon = 0.000531
 c13bf                                  6      0.0000       0.00000       A     3.31510e-01     4.13288e-01    ;  uncertainty sigma = 0.000007, epsilon = 0.000539
 c14bf                                  6      0.0000       0.00000       A     3.31520e-01     4.14308e-01    ;  uncertainty sigma = 0.000025, epsilon = 0.001437
 c15bf                                  6      0.0000       0.00000       A     3.31510e-01     4.13288e-01    ;  uncertainty sigma = 0.000007, epsilon = 0.000539
 c16bf                                  6      0.0000       0.00000       A     3.31521e-01     4.13221e-01    ;  uncertainty sigma = 0.000007, epsilon = 0.000531
 f17bf                                  9      0.0000       0.00000       A     3.03428e-01     3.47890e-01    ;  uncertainty sigma = 0.000015, epsilon = 0.000826
 n18bf                                  7      0.0000       0.00000       A     3.19351e-01     8.98957e-01    ;  uncertainty sigma = 0.000297, epsilon = 0.004846
 c19bf                                  6      0.0000       0.00000       A     3.39744e-01     4.51169e-01    ;  uncertainty sigma = 0.000015, epsilon = 0.000830
 c20bf                                  6      0.0000       0.00000       A     3.39767e-01     4.50823e-01    ;  uncertainty sigma = 0.000015, epsilon = 0.000828
 n21bf                                  7      0.0000       0.00000       A     2.58881e-01     1.06502e+01    ;  uncertainty sigma = 0.000040, epsilon = 0.001179
 c22bf                                  6      0.0000       0.00000       A     3.39767e-01     4.50823e-01    ;  uncertainty sigma = 0.000015, epsilon = 0.000828
 c23bf                                  6      0.0000       0.00000       A     3.39744e-01     4.51169e-01    ;  uncertainty sigma = 0.000015, epsilon = 0.000830
 c24bf                                  6      0.0000       0.00000       A     3.39781e-01     4.50860e-01    ;  uncertainty sigma = 0.000006, epsilon = 0.000464
 h25bf                                  1      0.0000       0.00000       A     2.62557e-01     6.70748e-02    ;  uncertainty sigma = 0.000009, epsilon = 0.000428
 h26bf                                  1      0.0000       0.00000       A     2.62584e-01     6.68454e-02    ;  uncertainty sigma = 0.000019, epsilon = 0.000520
 h27bf                                  1      0.0000       0.00000       A     1.10651e-01     4.13762e-02    ;  uncertainty sigma = 0.000058, epsilon = 0.001253
 h28bf                                  1      0.0000       0.00000       A     2.62560e-01     6.71048e-02    ;  uncertainty sigma = 0.000011, epsilon = 0.000616
 h29bf                                  1      0.0000       0.00000       A     2.62562e-01     6.71535e-02    ;  uncertainty sigma = 0.000014, epsilon = 0.000450
 h30bf                                  1      0.0000       0.00000       A     2.62562e-01     6.71535e-02    ;  uncertainty sigma = 0.000014, epsilon = 0.000450
 h31bf                                  1      0.0000       0.00000       A     2.62560e-01     6.71048e-02    ;  uncertainty sigma = 0.000011, epsilon = 0.000616
 h32bf                                  1      0.0000       0.00000       A     2.42246e-01     8.71276e-02    ;  uncertainty sigma = 0.000045, epsilon = 0.000667
 h33bf                                  1      0.0000       0.00000       A     2.42246e-01     8.71276e-02    ;  uncertainty sigma = 0.000045, epsilon = 0.000667
 h34bf                                  1      0.0000       0.00000       A     1.88796e-01     8.67689e-02    ;  uncertainty sigma = 0.000038, epsilon = 0.000621
 h35bf                                  1      0.0000       0.00000       A     1.88796e-01     8.67689e-02    ;  uncertainty sigma = 0.000038, epsilon = 0.000621
 h36bf                                  1      0.0000       0.00000       A     1.88796e-01     8.67689e-02    ;  uncertainty sigma = 0.000038, epsilon = 0.000621
 h37bf                                  1      0.0000       0.00000       A     1.88796e-01     8.67689e-02    ;  uncertainty sigma = 0.000038, epsilon = 0.000621
 h38bf                                  1      0.0000       0.00000       A     2.42246e-01     8.71276e-02    ;  uncertainty sigma = 0.000045, epsilon = 0.000667
 h39bf                                  1      0.0000       0.00000       A     2.42246e-01     8.71276e-02    ;  uncertainty sigma = 0.000045, epsilon = 0.000667
 h40bf                                  1      0.0000       0.00000       A     1.88744e-01     8.64263e-02    ;  uncertainty sigma = 0.000038, epsilon = 0.000477
 h41bf                                  1      0.0000       0.00000       A     1.88744e-01     8.64263e-02    ;  uncertainty sigma = 0.000038, epsilon = 0.000477
 h42bf                                  1      0.0000       0.00000       A     1.88744e-01     8.64263e-02    ;  uncertainty sigma = 0.000038, epsilon = 0.000477
 h43bf                                  1      0.0000       0.00000       A     1.10667e-01     4.11537e-02    ;  uncertainty sigma = 0.000102, epsilon = 0.000787
 c44bf                                  6      0.0000       0.00000       A     3.39784e-01     4.51160e-01    ;  uncertainty sigma = 0.000004, epsilon = 0.000717
 h45bf                                  1      0.0000       0.00000       A     2.60033e-01     8.66509e-02    ;  uncertainty sigma = 0.000010, epsilon = 0.000546
 h46bf                                  1      0.0000       0.00000       A     2.60033e-01     8.66509e-02    ;  uncertainty sigma = 0.000010, epsilon = 0.000546
 h47bf                                  1      0.0000       0.00000       A     2.60033e-01     8.66509e-02    ;  uncertainty sigma = 0.000010, epsilon = 0.000546

[ moleculetype ]
;name             nrexcl
 MOL                   3

[ atoms ]
;       nr            type      resi   res      atom      cgnr      charge          mass ; qtot
         1            c0bf         1   UNL        c0         1    -0.03982       12.0110 ; qtot   -0.040
         2            c1bf         1   UNL        c1         2     0.17366       12.0110 ; qtot    0.134
         3            c2bf         1   UNL        c2         3    -0.13544       12.0110 ; qtot   -0.002
         4            c3bf         1   UNL        c3         4    -0.17592       12.0110 ; qtot   -0.178
         5            n4bf         1   UNL        n4         5    -0.62118       14.0070 ; qtot   -0.799
         6            c5bf         1   UNL        c5         6     0.11459       12.0110 ; qtot   -0.684
         7            c6bf         1   UNL        c6         7    -0.10348       12.0110 ; qtot   -0.788
         8            c7bf         1   UNL        c7         8     0.71850       12.0110 ; qtot   -0.069
         9            n8bf         1   UNL        n8         9    -0.50618       14.0070 ; qtot   -0.575
        10            o9bf         1   UNL        o9        10    -0.60550       15.9990 ; qtot   -1.181
        11           c10bf         1   UNL       c10        11     0.56491       12.0110 ; qtot   -0.616
        12           c11bf         1   UNL       c11        12    -0.17296       12.0110 ; qtot   -0.789
        13           c12bf         1   UNL       c12        13    -0.05267       12.0110 ; qtot   -0.841
        14           c13bf         1   UNL       c13        14    -0.17391       12.0110 ; qtot   -1.015
        15           c14bf         1   UNL       c14        15     0.13320       12.0110 ; qtot   -0.882
        16           c15bf         1   UNL       c15        16    -0.17391       12.0110 ; qtot   -1.056
        17           c16bf         1   UNL       c16        17    -0.05267       12.0110 ; qtot   -1.109
        18           f17bf         1   UNL       f17        18    -0.13870       18.9980 ; qtot   -1.247
        19           n18bf         1   UNL       n18        19    -0.65683       14.0070 ; qtot   -1.904
        20           c19bf         1   UNL       c19        20     0.17259       12.0110 ; qtot   -1.732
        21           c20bf         1   UNL       c20        21     0.12422       12.0110 ; qtot   -1.607
        22           n21bf         1   UNL       n21        22    -0.71099       14.0070 ; qtot   -2.318
        23           c22bf         1   UNL       c22        23     0.12422       12.0110 ; qtot   -2.194
        24           c23bf         1   UNL       c23        24     0.17259       12.0110 ; qtot   -2.022
        25           c24bf         1   UNL       c24        25     0.11438       12.0110 ; qtot   -1.907
        26           h25bf         1   UNL       h25        26     0.15341        1.0080 ; qtot   -1.754
        27           h26bf         1   UNL       h26        27     0.17584        1.0080 ; qtot   -1.578
        28           h27bf         1   UNL       h27        28     0.33625        1.0080 ; qtot   -1.242
        29           h28bf         1   UNL       h28        29     0.14721        1.0080 ; qtot   -1.095
        30           h29bf         1   UNL       h29        30     0.13159        1.0080 ; qtot   -0.963
        31           h30bf         1   UNL       h30        31     0.13159        1.0080 ; qtot   -0.831
        32           h31bf         1   UNL       h31        32     0.14721        1.0080 ; qtot   -0.684
        33           h32bf         1   UNL       h32        33     0.09385        1.0080 ; qtot   -0.590
        34           h33bf         1   UNL       h33        34     0.09385        1.0080 ; qtot   -0.496
        35           h34bf         1   UNL       h34        35     0.10740        1.0080 ; qtot   -0.389
        36           h35bf         1   UNL       h35        36     0.10740        1.0080 ; qtot   -0.282
        37           h36bf         1   UNL       h36        37     0.10740        1.0080 ; qtot   -0.174
        38           h37bf         1   UNL       h37        38     0.10740        1.0080 ; qtot   -0.067
        39           h38bf         1   UNL       h38        39     0.09385        1.0080 ; qtot    0.027
        40           h39bf         1   UNL       h39        40     0.09385        1.0080 ; qtot    0.121
        41           h40bf         1   UNL       h40        41     0.10378        1.0080 ; qtot    0.225
        42           h41bf         1   UNL       h41        42     0.10378        1.0080 ; qtot    0.328
        43           h42bf         1   UNL       h42        43     0.10378        1.0080 ; qtot    0.432
        44           h43bf         1   UNL       h43        44     0.45566        1.0080 ; qtot    0.888
        45           c44bf         1   UNL       c44        45    -0.04026       12.0110 ; qtot    0.848
        46           h45bf         1   UNL       h45        46     0.05084        1.0080 ; qtot    0.898
        47           h46bf         1   UNL       h46        47     0.05084        1.0080 ; qtot    0.949
        48           h47bf         1   UNL       h47        48     0.05078        1.0080 ; qtot    1.000

[ bonds ]
;       ai        aj funct               r               k
         1         2     1        0.141844   306039.859814    ;  uncertainty r = 0.000032, k = 27.801396
         1         3     1        0.138870   365742.812451    ;  uncertainty r = 0.000089, k = 7.721924
         1        45     1        0.150649   234450.327637    ;  uncertainty r = 0.000046, k = 2.989942
         2         4     1        0.141734   392289.301611    ;  uncertainty r = 0.000080, k = 15.374263
         2         5     1        0.138684   289195.352637    ;  uncertainty r = 0.000071, k = 30.783835
         3         6     1        0.140198   351180.531201    ;  uncertainty r = 0.000093, k = 4.447604
         3        26     1        0.108786   338550.081201    ;  uncertainty r = 0.000032, k = 1.188614
         4         7     1        0.139877   368575.005566    ;  uncertainty r = 0.000067, k = 3.222827
         4         8     1        0.146556   266305.547705    ;  uncertainty r = 0.000052, k = 14.717181
         5        11     1        0.129708   464193.348828    ;  uncertainty r = 0.000066, k = 10.155082
         6         7     1        0.137894   359234.552441    ;  uncertainty r = 0.000088, k = 9.675816
         6        18     1        0.135558   338536.214551    ;  uncertainty r = 0.000077, k = 4.410943
         7        27     1        0.108581   333195.281348    ;  uncertainty r = 0.000033, k = 2.285182
         8         9     1        0.140091   450228.074121    ;  uncertainty r = 0.000093, k = 15.366200
         8        10     1        0.123473   853603.724414    ;  uncertainty r = 0.000122, k = 12.777083
         9        11     1        0.138912   298725.904004    ;  uncertainty r = 0.000076, k = 21.073722
         9        28     1        0.102058   454589.659180    ;  uncertainty r = 0.000027, k = 4.102090
        11        12     1        0.147164   268969.246973    ;  uncertainty r = 0.000084, k = 12.720243
        12        13     1        0.139995   349975.869141    ;  uncertainty r = 0.000087, k = 1.917708
        12        17     1        0.139995   349975.869141    ;  uncertainty r = 0.000087, k = 1.917708
        13        14     1        0.138785   358013.853076    ;  uncertainty r = 0.000052, k = 6.272952
        13        29     1        0.108703   332360.294482    ;  uncertainty r = 0.000039, k = 0.855964
        14        15     1        0.140292   353378.995410    ;  uncertainty r = 0.000135, k = 7.672536
        14        30     1        0.108867   337753.170166    ;  uncertainty r = 0.000052, k = 1.869488
        15        16     1        0.140292   353378.995410    ;  uncertainty r = 0.000135, k = 7.672536
        15        19     1        0.142787   333801.353564    ;  uncertainty r = 0.000221, k = 17.391771
        16        17     1        0.138785   358013.853076    ;  uncertainty r = 0.000052, k = 6.272952
        16        31     1        0.108867   337753.195703    ;  uncertainty r = 0.000052, k = 1.869473
        17        32     1        0.108703   332360.294482    ;  uncertainty r = 0.000039, k = 0.855951
        19        20     1        0.145472   274606.359570    ;  uncertainty r = 0.000086, k = 12.854378
        19        24     1        0.145472   274606.359570    ;  uncertainty r = 0.000086, k = 12.854378
        20        21     1        0.153172   209651.457788    ;  uncertainty r = 0.000093, k = 12.418840
        20        33     1        0.109709   308999.789551    ;  uncertainty r = 0.000039, k = 4.661972
        20        34     1        0.109709   308999.789551    ;  uncertainty r = 0.000039, k = 4.661972
        21        22     1        0.151727   180224.203931    ;  uncertainty r = 0.000082, k = 21.188804
        21        35     1        0.109136   312296.426074    ;  uncertainty r = 0.000030, k = 2.201220
        21        36     1        0.109136   312296.426074    ;  uncertainty r = 0.000030, k = 2.201220
        22        23     1        0.151727   180224.203931    ;  uncertainty r = 0.000082, k = 21.188804
        22        25     1        0.150407   205691.609766    ;  uncertainty r = 0.000063, k = 20.938868
        22        44     1        0.102876   383403.996387    ;  uncertainty r = 0.000036, k = 3.619356
        23        24     1        0.153172   209651.457788    ;  uncertainty r = 0.000093, k = 12.418872
        23        37     1        0.109136   312296.426074    ;  uncertainty r = 0.000030, k = 2.201219
        23        38     1        0.109136   312296.426074    ;  uncertainty r = 0.000030, k = 2.201219
        24        39     1        0.109709   308999.764014    ;  uncertainty r = 0.000039, k = 4.661960
        24        40     1        0.109709   308999.764014    ;  uncertainty r = 0.000039, k = 4.661960
        25        41     1        0.108997   315136.433545    ;  uncertainty r = 0.000021, k = 4.095509
        25        42     1        0.108997   315136.433545    ;  uncertainty r = 0.000021, k = 4.095509
        25        43     1        0.108997   315136.433545    ;  uncertainty r = 0.000021, k = 4.095509
        45        46     1        0.109435   309134.931934    ;  uncertainty r = 0.000009, k = 1.848083
        45        47     1        0.109435   309134.931934    ;  uncertainty r = 0.000009, k = 1.848083
        45        48     1        0.109435   309134.931934    ;  uncertainty r = 0.000009, k = 1.848083

[ angles ]
;       ai        aj        ak funct           theta             cth
         1         2         4     1      121.271164      404.802958    ;  uncertainty theta = 0.005086, k = 0.100430
         1         2         5     1      117.664429      464.894968    ;  uncertainty theta = 0.009099, k = 0.158322
         1         3         6     1      121.263329      491.728277    ;  uncertainty theta = 0.003093, k = 0.183268
         1         3        26     1      119.288620      270.847029    ;  uncertainty theta = 0.003481, k = 0.067440
         1        45        46     1      109.499817      400.107705    ;  uncertainty theta = 0.001709, k = 0.068429
         1        45        47     1      109.499817      400.107705    ;  uncertainty theta = 0.001709, k = 0.068429
         1        45        48     1      109.499817      400.107705    ;  uncertainty theta = 0.001709, k = 0.068429
         2         1         3     1      119.470741      477.243693    ;  uncertainty theta = 0.003649, k = 0.130108
         2         1        45     1      118.993469      414.152317    ;  uncertainty theta = 0.005038, k = 0.244727
         2         4         7     1      122.740501      437.534190    ;  uncertainty theta = 0.002637, k = 0.159148
         2         4         8     1      117.448227      485.588709    ;  uncertainty theta = 0.004852, k = 0.216438
         2         5        11     1      116.403244      415.278599    ;  uncertainty theta = 0.005673, k = 0.413650
         3         1        45     1      121.301254      430.129641    ;  uncertainty theta = 0.002856, k = 0.258395
         3         6         7     1      123.933640      383.171973    ;  uncertainty theta = 0.005713, k = 0.275175
         3         6        18     1      118.383179      504.379010    ;  uncertainty theta = 0.002254, k = 0.101970
         4         2         5     1      123.042679      562.222319    ;  uncertainty theta = 0.006225, k = 0.109081
         4         7         6     1      117.322021      472.627796    ;  uncertainty theta = 0.002495, k = 0.109840
         4         7        27     1      120.877220      246.181996    ;  uncertainty theta = 0.005177, k = 0.115637
         4         8         9     1      108.990097      387.260464    ;  uncertainty theta = 0.007419, k = 0.261793
         4         8        10     1      128.035751      512.297078    ;  uncertainty theta = 0.003486, k = 0.151806
         5        11         9     1      123.546104      675.013921    ;  uncertainty theta = 0.006250, k = 0.156742
         5        11        12     1      122.647583      445.639222    ;  uncertainty theta = 0.003572, k = 0.176576
         6         3        26     1      120.168358      285.966275    ;  uncertainty theta = 0.002511, k = 0.086396
         6         7        27     1      122.104652      281.526010    ;  uncertainty theta = 0.003233, k = 0.096423
         7         4         8     1      117.459763      400.796568    ;  uncertainty theta = 0.003962, k = 0.195477
         7         6        18     1      119.088547      499.437165    ;  uncertainty theta = 0.001116, k = 0.072803
         8         9        11     1      120.698891      497.188622    ;  uncertainty theta = 0.003032, k = 0.164369
         8         9        28     1      115.359695      353.409748    ;  uncertainty theta = 0.007397, k = 0.132885
         9         8        10     1      125.003098      819.265263    ;  uncertainty theta = 0.003246, k = 0.067269
         9        11        12     1      116.779213      515.177026    ;  uncertainty theta = 0.005511, k = 0.237250
        11         9        28     1      116.878708      330.011947    ;  uncertainty theta = 0.006468, k = 0.213208
        11        12        13     1      117.966125      401.494019    ;  uncertainty theta = 0.003041, k = 0.101109
        11        12        17     1      117.966125      401.494019    ;  uncertainty theta = 0.003041, k = 0.101109
        12        13        14     1      122.917526      513.807056    ;  uncertainty theta = 0.002336, k = 0.113041
        12        13        29     1      118.225731      268.005898    ;  uncertainty theta = 0.002982, k = 0.073775
        12        17        16     1      122.917526      513.807056    ;  uncertainty theta = 0.002336, k = 0.113041
        12        17        32     1      118.225731      268.005898    ;  uncertainty theta = 0.002982, k = 0.073775
        13        12        17     1      120.858437      429.279670    ;  uncertainty theta = 0.002284, k = 0.221084
        13        14        15     1      120.921677      525.173463    ;  uncertainty theta = 0.003555, k = 0.088976
        13        14        30     1      120.013268      289.283162    ;  uncertainty theta = 0.002360, k = 0.065711
        14        13        29     1      120.248764      282.803504    ;  uncertainty theta = 0.003214, k = 0.092730
        14        15        16     1      119.618446      349.747504    ;  uncertainty theta = 0.005467, k = 0.321049
        14        15        19     1      122.426537      460.655297    ;  uncertainty theta = 0.002701, k = 0.187216
        15        14        30     1      118.949631      277.320590    ;  uncertainty theta = 0.001219, k = 0.111692
        15        16        17     1      120.921677      525.173463    ;  uncertainty theta = 0.003555, k = 0.088975
        15        16        31     1      118.949631      277.320590    ;  uncertainty theta = 0.001219, k = 0.111692
        15        19        20     1      111.575050      437.756874    ;  uncertainty theta = 0.004165, k = 0.107788
        15        19        24     1      111.575050      437.756874    ;  uncertainty theta = 0.004165, k = 0.107788
        16        15        19     1      122.426537      460.655297    ;  uncertainty theta = 0.002701, k = 0.187216
        16        17        32     1      120.248764      282.803504    ;  uncertainty theta = 0.003214, k = 0.092730
        17        16        31     1      120.013268      289.283162    ;  uncertainty theta = 0.002360, k = 0.065711
        19        20        21     1      109.690758      678.136471    ;  uncertainty theta = 0.004157, k = 0.178954
        19        20        33     1      109.078247      456.505102    ;  uncertainty theta = 0.002708, k = 0.059314
        19        20        34     1      109.078247      456.505102    ;  uncertainty theta = 0.002708, k = 0.059314
        19        24        23     1      109.690758      678.136471    ;  uncertainty theta = 0.004157, k = 0.178954
        19        24        39     1      109.078232      456.505102    ;  uncertainty theta = 0.002708, k = 0.059314
        19        24        40     1      109.078232      456.505102    ;  uncertainty theta = 0.002708, k = 0.059314
        20        19        24     1      105.334633      433.701581    ;  uncertainty theta = 0.012581, k = 0.180050
        20        21        22     1      109.524094      695.565995    ;  uncertainty theta = 0.003056, k = 0.173935
        20        21        35     1      110.979431      404.054529    ;  uncertainty theta = 0.002556, k = 0.059508
        20        21        36     1      110.979431      404.054529    ;  uncertainty theta = 0.002556, k = 0.059508
        21        20        33     1      108.353661      420.124585    ;  uncertainty theta = 0.000757, k = 0.102440
        21        20        34     1      108.353661      420.124585    ;  uncertainty theta = 0.000757, k = 0.102440
        21        22        23     1      111.061707      629.182662    ;  uncertainty theta = 0.006302, k = 0.200109
        21        22        25     1      112.145241      646.110638    ;  uncertainty theta = 0.002805, k = 0.156652
        21        22        44     1      106.727951      441.633566    ;  uncertainty theta = 0.003897, k = 0.191867
        22        21        35     1      106.557762      467.024284    ;  uncertainty theta = 0.002749, k = 0.128282
        22        21        36     1      106.557762      467.024284    ;  uncertainty theta = 0.002749, k = 0.128282
        22        23        24     1      109.524109      695.565931    ;  uncertainty theta = 0.003056, k = 0.173935
        22        23        37     1      106.557762      467.024284    ;  uncertainty theta = 0.002749, k = 0.128282
        22        23        38     1      106.557762      467.024284    ;  uncertainty theta = 0.002749, k = 0.128282
        22        25        41     1      107.999168      472.858492    ;  uncertainty theta = 0.002431, k = 0.070588
        22        25        42     1      107.999168      472.858492    ;  uncertainty theta = 0.002431, k = 0.070588
        22        25        43     1      107.999168      472.858492    ;  uncertainty theta = 0.002431, k = 0.070588
        23        22        25     1      112.145241      646.110638    ;  uncertainty theta = 0.002805, k = 0.156652
        23        22        44     1      106.727951      441.633566    ;  uncertainty theta = 0.003897, k = 0.191867
        23        24        39     1      108.353661      420.124585    ;  uncertainty theta = 0.000757, k = 0.102440
        23        24        40     1      108.353661      420.124585    ;  uncertainty theta = 0.000757, k = 0.102440
        24        23        37     1      110.979431      404.054561    ;  uncertainty theta = 0.002556, k = 0.059508
        24        23        38     1      110.979431      404.054561    ;  uncertainty theta = 0.002556, k = 0.059508
        25        22        44     1      106.585144      457.162874    ;  uncertainty theta = 0.003657, k = 0.168387
        33        20        34     1      106.119186      318.742963    ;  uncertainty theta = 0.001976, k = 0.084293
        35        21        36     1      108.202126      323.802950    ;  uncertainty theta = 0.004327, k = 0.069539
        37        23        38     1      108.202126      323.802886    ;  uncertainty theta = 0.004327, k = 0.069539
        39        24        40     1      106.119186      318.742963    ;  uncertainty theta = 0.001976, k = 0.084293
        41        25        42     1      108.552261      323.952150    ;  uncertainty theta = 0.003725, k = 0.034987
        41        25        43     1      108.552261      323.952150    ;  uncertainty theta = 0.003725, k = 0.034987
        42        25        43     1      108.552261      323.952150    ;  uncertainty theta = 0.003725, k = 0.034987
        46        45        47     1      106.807327      315.669668    ;  uncertainty theta = 0.001138, k = 0.027254
        46        45        48     1      106.807327      315.669668    ;  uncertainty theta = 0.001138, k = 0.027254
        47        45        48     1      106.807327      315.669668    ;  uncertainty theta = 0.001138, k = 0.027254

[ dihedrals ] ; propers for gromacs 4.5 or higher, use funct 9
;       ai        aj        ak        al funct           phase               k        pn
         1         2         4         7     9        0.000000       -0.003498         1    ;  uncertainty k = 0.472609
         1         2         4         7     9      180.000000        6.586524         2    ;  uncertainty k = 0.781161
         1         2         4         7     9        0.000000        0.359829         3    ;  uncertainty k = 0.187691
         1         2         4         7     9      180.000000        1.411063         4    ;  uncertainty k = 0.263209
         1         2         4         8     9        0.000000       -0.041161         1    ;  uncertainty k = 0.618019
         1         2         4         8     9      180.000000        6.103120         2    ;  uncertainty k = 0.881233
         1         2         4         8     9        0.000000        0.966876         3    ;  uncertainty k = 0.271823
         1         2         4         8     9      180.000000        1.477102         4    ;  uncertainty k = 0.153685
         1         2         5        11     9        0.000000        1.730703         1    ;  uncertainty k = 2.367853
         1         2         5        11     9      180.000000        5.099652         2    ;  uncertainty k = 1.474252
         1         2         5        11     9        0.000000        2.211057         3    ;  uncertainty k = 0.355232
         1         2         5        11     9      180.000000        0.176451         4    ;  uncertainty k = 0.460790
         1         3         6         7     9        0.000000       -0.176394         1    ;  uncertainty k = 0.472652
         1         3         6         7     9      180.000000        6.585547         2    ;  uncertainty k = 0.699553
         1         3         6         7     9        0.000000        0.137583         3    ;  uncertainty k = 0.516395
         1         3         6         7     9      180.000000        1.234796         4    ;  uncertainty k = 0.266521
         1         3         6        18     9        0.000000       -0.040801         1    ;  uncertainty k = 0.198356
         1         3         6        18     9      180.000000       10.227298         2    ;  uncertainty k = 0.469679
         1         3         6        18     9        0.000000        1.541703         3    ;  uncertainty k = 0.441154
         1         3         6        18     9      180.000000        1.601974         4    ;  uncertainty k = 0.272233
         2         1         3         6     9        0.000000        0.120474         1    ;  uncertainty k = 0.354591
         2         1         3         6     9      180.000000       13.298081         2    ;  uncertainty k = 0.332786
         2         1         3         6     9        0.000000        0.401016         3    ;  uncertainty k = 0.289544
         2         1         3         6     9      180.000000        1.095531         4    ;  uncertainty k = 0.253388
         2         1         3        26     9        0.000000        0.351858         1    ;  uncertainty k = 0.291236
         2         1         3        26     9      180.000000        9.561567         2    ;  uncertainty k = 0.399776
         2         1         3        26     9        0.000000        1.498361         3    ;  uncertainty k = 0.201517
         2         1         3        26     9      180.000000        1.564017         4    ;  uncertainty k = 0.130263
         2         1        45        46     9        0.000000        0.058463         1    ;  uncertainty k = 0.224781
         2         1        45        46     9      180.000000        3.082733         2    ;  uncertainty k = 0.454779
         2         1        45        46     9        0.000000        0.426638         3    ;  uncertainty k = 0.098096
         2         1        45        46     9      180.000000        0.378026         4    ;  uncertainty k = 0.041231
         2         1        45        47     9        0.000000        0.058463         1    ;  uncertainty k = 0.224781
         2         1        45        47     9      180.000000        3.082733         2    ;  uncertainty k = 0.454779
         2         1        45        47     9        0.000000        0.426638         3    ;  uncertainty k = 0.098096
         2         1        45        47     9      180.000000        0.378026         4    ;  uncertainty k = 0.041231
         2         1        45        48     9        0.000000        0.058463         1    ;  uncertainty k = 0.224781
         2         1        45        48     9      180.000000        3.082733         2    ;  uncertainty k = 0.454779
         2         1        45        48     9        0.000000        0.426638         3    ;  uncertainty k = 0.098096
         2         1        45        48     9      180.000000        0.378026         4    ;  uncertainty k = 0.041231
         2         4         7         6     9        0.000000        0.038370         1    ;  uncertainty k = 0.417297
         2         4         7         6     9      180.000000       11.877016         2    ;  uncertainty k = 0.493789
         2         4         7         6     9        0.000000       -0.296600         3    ;  uncertainty k = 0.191594
         2         4         7         6     9      180.000000        1.100769         4    ;  uncertainty k = 0.203140
         2         4         7        27     9        0.000000        0.098091         1    ;  uncertainty k = 0.435475
         2         4         7        27     9      180.000000        7.082699         2    ;  uncertainty k = 0.751235
         2         4         7        27     9        0.000000        1.376102         3    ;  uncertainty k = 0.308075
         2         4         7        27     9      180.000000        1.435590         4    ;  uncertainty k = 0.102281
         2         4         8         9     9        0.000000       -1.245062         1    ;  uncertainty k = 0.929841
         2         4         8         9     9      180.000000        2.361346         2    ;  uncertainty k = 0.988986
         2         4         8         9     9        0.000000       -0.198502         3    ;  uncertainty k = 0.601233
         2         4         8         9     9      180.000000        0.561299         4    ;  uncertainty k = 0.260004
         2         4         8        10     9        0.000000       -2.745583         1    ;  uncertainty k = 0.925660
         2         4         8        10     9      180.000000        5.124239         2    ;  uncertainty k = 0.688870
         2         4         8        10     9        0.000000        0.242193         3    ;  uncertainty k = 0.253626
         2         4         8        10     9      180.000000       -0.125308         4    ;  uncertainty k = 0.189047
         2         5        11         9     9        0.000000       -0.749072         1    ;  uncertainty k = 0.426890
         2         5        11         9     9      180.000000       23.735698         2    ;  uncertainty k = 0.142309
         2         5        11         9     9        0.000000        1.781851         3    ;  uncertainty k = 0.270895
         2         5        11         9     9      180.000000        1.479577         4    ;  uncertainty k = 0.403234
         2         5        11        12     9        0.000000       -0.611673         1    ;  uncertainty k = 0.627951
         2         5        11        12     9      180.000000       18.937722         2    ;  uncertainty k = 0.432772
         2         5        11        12     9        0.000000        2.758588         3    ;  uncertainty k = 0.434223
         2         5        11        12     9      180.000000        1.338884         4    ;  uncertainty k = 0.331010
         3         1         2         4     9        0.000000        0.296678         1    ;  uncertainty k = 0.771221
         3         1         2         4     9      180.000000        6.455509         2    ;  uncertainty k = 0.944520
         3         1         2         4     9        0.000000        0.282202         3    ;  uncertainty k = 0.269525
         3         1         2         4     9      180.000000        1.028383         4    ;  uncertainty k = 0.309860
         3         1         2         5     9        0.000000        0.294112         1    ;  uncertainty k = 0.469025
         3         1         2         5     9      180.000000        9.023362         2    ;  uncertainty k = 0.267806
         3         1         2         5     9        0.000000        0.893349         3    ;  uncertainty k = 0.102399
         3         1         2         5     9      180.000000        1.382378         4    ;  uncertainty k = 0.285119
         3         1        45        46     9        0.000000        0.040329         1    ;  uncertainty k = 0.245891
         3         1        45        46     9      180.000000        2.115984         2    ;  uncertainty k = 0.283026
         3         1        45        46     9        0.000000        0.291249         3    ;  uncertainty k = 0.089773
         3         1        45        46     9      180.000000        0.237136         4    ;  uncertainty k = 0.018760
         3         1        45        47     9        0.000000        0.040329         1    ;  uncertainty k = 0.245891
         3         1        45        47     9      180.000000        2.115984         2    ;  uncertainty k = 0.283026
         3         1        45        47     9        0.000000        0.291249         3    ;  uncertainty k = 0.089773
         3         1        45        47     9      180.000000        0.237136         4    ;  uncertainty k = 0.018760
         3         1        45        48     9        0.000000        0.040329         1    ;  uncertainty k = 0.245891
         3         1        45        48     9      180.000000        2.115984         2    ;  uncertainty k = 0.283026
         3         1        45        48     9        0.000000        0.291249         3    ;  uncertainty k = 0.089773
         3         1        45        48     9      180.000000        0.237136         4    ;  uncertainty k = 0.018760
         3         6         7         4     9        0.000000        0.082823         1    ;  uncertainty k = 0.345133
         3         6         7         4     9      180.000000        8.663161         2    ;  uncertainty k = 0.493840
         3         6         7         4     9        0.000000        0.373577         3    ;  uncertainty k = 0.432288
         3         6         7         4     9      180.000000        1.345721         4    ;  uncertainty k = 0.431090
         3         6         7        27     9        0.000000        0.071466         1    ;  uncertainty k = 0.138144
         3         6         7        27     9      180.000000        6.148639         2    ;  uncertainty k = 0.529769
         3         6         7        27     9        0.000000        1.416250         3    ;  uncertainty k = 0.324519
         3         6         7        27     9      180.000000        1.608923         4    ;  uncertainty k = 0.035061
         4         2         1        45     9        0.000000        0.211804         1    ;  uncertainty k = 0.526011
         4         2         1        45     9      180.000000        6.081582         2    ;  uncertainty k = 0.493021
         4         2         1        45     9        0.000000        1.265401         3    ;  uncertainty k = 0.359627
         4         2         1        45     9      180.000000        1.352389         4    ;  uncertainty k = 0.204451
         4         2         5        11     9        0.000000        1.433870         1    ;  uncertainty k = 2.213577
         4         2         5        11     9      180.000000        4.010027         2    ;  uncertainty k = 1.657061
         4         2         5        11     9        0.000000        1.588329         3    ;  uncertainty k = 0.741149
         4         2         5        11     9      180.000000        0.380709         4    ;  uncertainty k = 0.487317
         4         7         6        18     9        0.000000        0.046866         1    ;  uncertainty k = 0.324517
         4         7         6        18     9      180.000000       14.145532         2    ;  uncertainty k = 0.227016
         4         7         6        18     9        0.000000        1.428161         3    ;  uncertainty k = 0.294474
         4         7         6        18     9      180.000000        1.335092         4    ;  uncertainty k = 0.089393
         4         8         9        11     9        0.000000        0.276246         1    ;  uncertainty k = 1.378828
         4         8         9        11     9      180.000000        4.107860         2    ;  uncertainty k = 1.229742
         4         8         9        11     9        0.000000        0.641226         3    ;  uncertainty k = 0.225229
         4         8         9        11     9      180.000000        0.484712         4    ;  uncertainty k = 0.355038
         4         8         9        28     9        0.000000        2.434066         1    ;  uncertainty k = 2.380345
         4         8         9        28     9      180.000000        5.178657         2    ;  uncertainty k = 0.955652
         4         8         9        28     9        0.000000        1.798372         3    ;  uncertainty k = 0.147455
         4         8         9        28     9      180.000000       -0.011961         4    ;  uncertainty k = 0.088708
         5         2         1        45     9        0.000000        0.035750         1    ;  uncertainty k = 0.111275
         5         2         1        45     9      180.000000        9.834910         2    ;  uncertainty k = 0.290043
         5         2         1        45     9        0.000000        0.953279         3    ;  uncertainty k = 0.315912
         5         2         1        45     9      180.000000        1.223331         4    ;  uncertainty k = 0.296419
         5         2         4         7     9        0.000000        0.038463         1    ;  uncertainty k = 0.444830
         5         2         4         7     9      180.000000        8.587017         2    ;  uncertainty k = 0.671836
         5         2         4         7     9        0.000000        0.713149         3    ;  uncertainty k = 0.200155
         5         2         4         7     9      180.000000        1.463394         4    ;  uncertainty k = 0.249537
         5         2         4         8     9        0.000000       -0.318912         1    ;  uncertainty k = 0.501585
         5         2         4         8     9      180.000000        7.364334         2    ;  uncertainty k = 0.847824
         5         2         4         8     9        0.000000        1.039164         3    ;  uncertainty k = 0.400747
         5         2         4         8     9      180.000000        1.558526         4    ;  uncertainty k = 0.213351
         5        11         9         8     9        0.000000        0.260345         1    ;  uncertainty k = 0.744534
         5        11         9         8     9      180.000000        7.151947         2    ;  uncertainty k = 0.710411
         5        11         9         8     9        0.000000        0.556205         3    ;  uncertainty k = 0.726166
         5        11         9         8     9      180.000000        0.390384         4    ;  uncertainty k = 0.219598
         5        11         9        28     9        0.000000        6.065384         1    ;  uncertainty k = 1.650690
         5        11         9        28     9      180.000000       11.046837         2    ;  uncertainty k = 0.751346
         5        11         9        28     9        0.000000        1.163981         3    ;  uncertainty k = 0.602529
         5        11         9        28     9      180.000000       -0.243028         4    ;  uncertainty k = 0.111389
         5        11        12        13     9        0.000000        0.783758         1    ;  uncertainty k = 0.711680
         5        11        12        13     9      180.000000        4.070739         2    ;  uncertainty k = 0.300114
         5        11        12        13     9        0.000000        0.591960         3    ;  uncertainty k = 0.204345
         5        11        12        13     9      180.000000       -0.129889         4    ;  uncertainty k = 0.165883
         5        11        12        17     9        0.000000        0.783758         1    ;  uncertainty k = 0.711680
         5        11        12        17     9      180.000000        4.070739         2    ;  uncertainty k = 0.300114
         5        11        12        17     9        0.000000        0.591960         3    ;  uncertainty k = 0.204345
         5        11        12        17     9      180.000000       -0.129889         4    ;  uncertainty k = 0.165883
         6         3         1        45     9        0.000000        0.165929         1    ;  uncertainty k = 0.147204
         6         3         1        45     9      180.000000       12.371070         2    ;  uncertainty k = 0.407533
         6         3         1        45     9        0.000000        1.395374         3    ;  uncertainty k = 0.475067
         6         3         1        45     9      180.000000        1.730385         4    ;  uncertainty k = 0.265548
         6         7         4         8     9        0.000000        0.224040         1    ;  uncertainty k = 0.245527
         6         7         4         8     9      180.000000        9.027461         2    ;  uncertainty k = 0.664720
         6         7         4         8     9        0.000000        1.382491         3    ;  uncertainty k = 0.223697
         6         7         4         8     9      180.000000        1.831307         4    ;  uncertainty k = 0.221420
         7         4         8         9     9        0.000000        0.342639         1    ;  uncertainty k = 0.671986
         7         4         8         9     9      180.000000        2.990341         2    ;  uncertainty k = 0.603025
         7         4         8         9     9        0.000000        0.643755         3    ;  uncertainty k = 0.388268
         7         4         8         9     9      180.000000        0.530074         4    ;  uncertainty k = 0.265179
         7         4         8        10     9        0.000000       -2.145286         1    ;  uncertainty k = 0.588023
         7         4         8        10     9      180.000000        5.417318         2    ;  uncertainty k = 0.631896
         7         4         8        10     9        0.000000        0.509742         3    ;  uncertainty k = 0.299702
         7         4         8        10     9      180.000000       -0.110827         4    ;  uncertainty k = 0.117123
         7         6         3        26     9        0.000000       -0.003076         1    ;  uncertainty k = 0.385379
         7         6         3        26     9      180.000000        5.349108         2    ;  uncertainty k = 0.633324
         7         6         3        26     9        0.000000        1.187736         3    ;  uncertainty k = 0.211863
         7         6         3        26     9      180.000000        1.390850         4    ;  uncertainty k = 0.168830
         8         4         7        27     9        0.000000       -0.397729         1    ;  uncertainty k = 0.706623
         8         4         7        27     9      180.000000        7.620397         2    ;  uncertainty k = 0.403376
         8         4         7        27     9        0.000000        0.928923         3    ;  uncertainty k = 0.245975
         8         4         7        27     9      180.000000        1.200455         4    ;  uncertainty k = 0.140897
         8         9        11        12     9        0.000000        1.017397         1    ;  uncertainty k = 0.735749
         8         9        11        12     9      180.000000        5.507145         2    ;  uncertainty k = 0.797117
         8         9        11        12     9        0.000000        0.540724         3    ;  uncertainty k = 0.354820
         8         9        11        12     9      180.000000       -0.095934         4    ;  uncertainty k = 0.322986
         9        11        12        13     9        0.000000        0.055161         1    ;  uncertainty k = 0.406697
         9        11        12        13     9      180.000000        4.294418         2    ;  uncertainty k = 0.409797
         9        11        12        13     9        0.000000        0.588359         3    ;  uncertainty k = 0.104360
         9        11        12        13     9      180.000000       -0.108622         4    ;  uncertainty k = 0.044188
         9        11        12        17     9        0.000000        0.055161         1    ;  uncertainty k = 0.406697
         9        11        12        17     9      180.000000        4.294418         2    ;  uncertainty k = 0.409797
         9        11        12        17     9        0.000000        0.588359         3    ;  uncertainty k = 0.104360
         9        11        12        17     9      180.000000       -0.108622         4    ;  uncertainty k = 0.044188
        10         8         9        11     9        0.000000        0.127245         1    ;  uncertainty k = 1.121683
        10         8         9        11     9      180.000000       11.229615         2    ;  uncertainty k = 0.462697
        10         8         9        11     9        0.000000        1.301863         3    ;  uncertainty k = 0.370929
        10         8         9        11     9      180.000000       -0.501672         4    ;  uncertainty k = 0.406473
        10         8         9        28     9        0.000000        1.557424         1    ;  uncertainty k = 2.536981
        10         8         9        28     9      180.000000        9.275895         2    ;  uncertainty k = 0.599165
        10         8         9        28     9        0.000000        0.736764         3    ;  uncertainty k = 0.510834
        10         8         9        28     9      180.000000       -0.116238         4    ;  uncertainty k = 0.056838
        11        12        13        14     9        0.000000        0.051113         1    ;  uncertainty k = 0.240846
        11        12        13        14     9      180.000000        8.843767         2    ;  uncertainty k = 0.547913
        11        12        13        14     9        0.000000        1.264064         3    ;  uncertainty k = 0.268524
        11        12        13        14     9      180.000000        1.693047         4    ;  uncertainty k = 0.182009
        11        12        13        29     9        0.000000       -0.316690         1    ;  uncertainty k = 0.135595
        11        12        13        29     9      180.000000        7.102528         2    ;  uncertainty k = 0.244118
        11        12        13        29     9        0.000000        0.711589         3    ;  uncertainty k = 0.187414
        11        12        13        29     9      180.000000        1.034666         4    ;  uncertainty k = 0.199521
        11        12        17        16     9        0.000000        0.051113         1    ;  uncertainty k = 0.240846
        11        12        17        16     9      180.000000        8.843767         2    ;  uncertainty k = 0.547913
        11        12        17        16     9        0.000000        1.264064         3    ;  uncertainty k = 0.268524
        11        12        17        16     9      180.000000        1.693047         4    ;  uncertainty k = 0.182009
        11        12        17        32     9        0.000000       -0.316690         1    ;  uncertainty k = 0.135595
        11        12        17        32     9      180.000000        7.102528         2    ;  uncertainty k = 0.244118
        11        12        17        32     9        0.000000        0.711589         3    ;  uncertainty k = 0.187414
        11        12        17        32     9      180.000000        1.034666         4    ;  uncertainty k = 0.199521
        12        11         9        28     9        0.000000        0.831738         1    ;  uncertainty k = 0.199251
        12        11         9        28     9      180.000000        4.749714         2    ;  uncertainty k = 0.816813
        12        11         9        28     9        0.000000        1.363562         3    ;  uncertainty k = 0.239844
        12        11         9        28     9      180.000000       -0.072490         4    ;  uncertainty k = 0.260757
        12        13        14        15     9        0.000000       -0.175784         1    ;  uncertainty k = 0.299042
        12        13        14        15     9      180.000000       13.396286         2    ;  uncertainty k = 0.374144
        12        13        14        15     9        0.000000       -0.698352         3    ;  uncertainty k = 0.517098
        12        13        14        15     9      180.000000        0.840474         4    ;  uncertainty k = 0.223041
        12        13        14        30     9        0.000000        0.145262         1    ;  uncertainty k = 0.146453
        12        13        14        30     9      180.000000        8.518850         2    ;  uncertainty k = 0.283647
        12        13        14        30     9        0.000000        1.449275         3    ;  uncertainty k = 0.214330
        12        13        14        30     9      180.000000        1.887271         4    ;  uncertainty k = 0.155295
        12        17        16        15     9        0.000000       -0.175784         1    ;  uncertainty k = 0.299042
        12        17        16        15     9      180.000000       13.396286         2    ;  uncertainty k = 0.374144
        12        17        16        15     9        0.000000       -0.698352         3    ;  uncertainty k = 0.517098
        12        17        16        15     9      180.000000        0.840474         4    ;  uncertainty k = 0.223041
        12        17        16        31     9        0.000000        0.145262         1    ;  uncertainty k = 0.146453
        12        17        16        31     9      180.000000        8.518850         2    ;  uncertainty k = 0.283647
        12        17        16        31     9        0.000000        1.449275         3    ;  uncertainty k = 0.214330
        12        17        16        31     9      180.000000        1.887271         4    ;  uncertainty k = 0.155295
        13        12        17        16     9        0.000000        0.087415         1    ;  uncertainty k = 0.207054
        13        12        17        16     9      180.000000       10.831488         2    ;  uncertainty k = 0.334987
        13        12        17        16     9        0.000000       -0.619418         3    ;  uncertainty k = 0.278121
        13        12        17        16     9      180.000000        0.987997         4    ;  uncertainty k = 0.308313
        13        12        17        32     9        0.000000       -0.028277         1    ;  uncertainty k = 0.223279
        13        12        17        32     9      180.000000        6.758672         2    ;  uncertainty k = 0.525976
        13        12        17        32     9        0.000000        1.276034         3    ;  uncertainty k = 0.242993
        13        12        17        32     9      180.000000        1.530534         4    ;  uncertainty k = 0.258873
        13        14        15        16     9        0.000000       -0.120928         1    ;  uncertainty k = 0.344222
        13        14        15        16     9      180.000000        8.919701         2    ;  uncertainty k = 0.664519
        13        14        15        16     9        0.000000        0.046617         3    ;  uncertainty k = 0.271394
        13        14        15        16     9      180.000000        1.266847         4    ;  uncertainty k = 0.305873
        13        14        15        19     9        0.000000        0.260039         1    ;  uncertainty k = 0.421118
        13        14        15        19     9      180.000000        9.468911         2    ;  uncertainty k = 0.427961
        13        14        15        19     9        0.000000        1.240943         3    ;  uncertainty k = 0.389699
        13        14        15        19     9      180.000000        1.646554         4    ;  uncertainty k = 0.232249
        14        13        12        17     9        0.000000        0.087415         1    ;  uncertainty k = 0.207054
        14        13        12        17     9      180.000000       10.831488         2    ;  uncertainty k = 0.334987
        14        13        12        17     9        0.000000       -0.619418         3    ;  uncertainty k = 0.278121
        14        13        12        17     9      180.000000        0.987997         4    ;  uncertainty k = 0.308313
        14        15        16        17     9        0.000000       -0.120928         1    ;  uncertainty k = 0.344222
        14        15        16        17     9      180.000000        8.919701         2    ;  uncertainty k = 0.664519
        14        15        16        17     9        0.000000        0.046617         3    ;  uncertainty k = 0.271394
        14        15        16        17     9      180.000000        1.266847         4    ;  uncertainty k = 0.305873
        14        15        16        31     9        0.000000        0.222561         1    ;  uncertainty k = 0.408685
        14        15        16        31     9      180.000000        6.488009         2    ;  uncertainty k = 0.829621
        14        15        16        31     9        0.000000        1.405364         3    ;  uncertainty k = 0.181156
        14        15        16        31     9      180.000000        1.594286         4    ;  uncertainty k = 0.222008
        14        15        19        20     9        0.000000        0.985563         1    ;  uncertainty k = 0.276755
        14        15        19        20     9      180.000000        6.200820         2    ;  uncertainty k = 0.277227
        14        15        19        20     9        0.000000        0.508848         3    ;  uncertainty k = 0.142507
        14        15        19        20     9      180.000000        0.164727         4    ;  uncertainty k = 0.081530
        14        15        19        24     9        0.000000        0.985563         1    ;  uncertainty k = 0.276755
        14        15        19        24     9      180.000000        6.200820         2    ;  uncertainty k = 0.277227
        14        15        19        24     9        0.000000        0.508848         3    ;  uncertainty k = 0.142507
        14        15        19        24     9      180.000000        0.164727         4    ;  uncertainty k = 0.081530
        15        14        13        29     9        0.000000        0.070052         1    ;  uncertainty k = 0.469208
        15        14        13        29     9      180.000000        8.536928         2    ;  uncertainty k = 0.469918
        15        14        13        29     9        0.000000        1.176509         3    ;  uncertainty k = 0.341251
        15        14        13        29     9      180.000000        1.718999         4    ;  uncertainty k = 0.182290
        15        16        17        32     9        0.000000        0.070052         1    ;  uncertainty k = 0.469208
        15        16        17        32     9      180.000000        8.536928         2    ;  uncertainty k = 0.469918
        15        16        17        32     9        0.000000        1.176509         3    ;  uncertainty k = 0.341251
        15        16        17        32     9      180.000000        1.718999         4    ;  uncertainty k = 0.182290
        15        19        20        21     9        0.000000        0.611926         1    ;  uncertainty k = 0.956112
        15        19        20        21     9      180.000000       -0.755341         2    ;  uncertainty k = 0.449279
        15        19        20        21     9        0.000000        0.039062         3    ;  uncertainty k = 0.125185
        15        19        20        21     9      180.000000        0.136936         4    ;  uncertainty k = 0.155150
        15        19        20        33     9        0.000000        0.436997         1    ;  uncertainty k = 0.498364
        15        19        20        33     9      180.000000       -1.559583         2    ;  uncertainty k = 0.395054
        15        19        20        33     9        0.000000        0.378938         3    ;  uncertainty k = 0.127867
        15        19        20        33     9      180.000000        0.125457         4    ;  uncertainty k = 0.119789
        15        19        20        34     9        0.000000        0.436997         1    ;  uncertainty k = 0.498364
        15        19        20        34     9      180.000000       -1.559583         2    ;  uncertainty k = 0.395054
        15        19        20        34     9        0.000000        0.378938         3    ;  uncertainty k = 0.127867
        15        19        20        34     9      180.000000        0.125457         4    ;  uncertainty k = 0.119789
        15        19        24        23     9        0.000000        0.611926         1    ;  uncertainty k = 0.956112
        15        19        24        23     9      180.000000       -0.755341         2    ;  uncertainty k = 0.449279
        15        19        24        23     9        0.000000        0.039062         3    ;  uncertainty k = 0.125185
        15        19        24        23     9      180.000000        0.136936         4    ;  uncertainty k = 0.155150
        15        19        24        39     9        0.000000        0.436996         1    ;  uncertainty k = 0.498364
        15        19        24        39     9      180.000000       -1.559583         2    ;  uncertainty k = 0.395054
        15        19        24        39     9        0.000000        0.378938         3    ;  uncertainty k = 0.127867
        15        19        24        39     9      180.000000        0.125457         4    ;  uncertainty k = 0.119789
        15        19        24        40     9        0.000000        0.436996         1    ;  uncertainty k = 0.498364
        15        19        24        40     9      180.000000       -1.559583         2    ;  uncertainty k = 0.395054
        15        19        24        40     9        0.000000        0.378938         3    ;  uncertainty k = 0.127867
        15        19        24        40     9      180.000000        0.125457         4    ;  uncertainty k = 0.119789
        16        15        14        30     9        0.000000        0.222561         1    ;  uncertainty k = 0.408685
        16        15        14        30     9      180.000000        6.488009         2    ;  uncertainty k = 0.829621
        16        15        14        30     9        0.000000        1.405364         3    ;  uncertainty k = 0.181156
        16        15        14        30     9      180.000000        1.594286         4    ;  uncertainty k = 0.222008
        16        15        19        20     9        0.000000        0.985563         1    ;  uncertainty k = 0.276755
        16        15        19        20     9      180.000000        6.200820         2    ;  uncertainty k = 0.277227
        16        15        19        20     9        0.000000        0.508848         3    ;  uncertainty k = 0.142507
        16        15        19        20     9      180.000000        0.164727         4    ;  uncertainty k = 0.081530
        16        15        19        24     9        0.000000        0.985563         1    ;  uncertainty k = 0.276755
        16        15        19        24     9      180.000000        6.200820         2    ;  uncertainty k = 0.277227
        16        15        19        24     9        0.000000        0.508848         3    ;  uncertainty k = 0.142507
        16        15        19        24     9      180.000000        0.164727         4    ;  uncertainty k = 0.081530
        17        12        13        29     9        0.000000       -0.028277         1    ;  uncertainty k = 0.223279
        17        12        13        29     9      180.000000        6.758672         2    ;  uncertainty k = 0.525976
        17        12        13        29     9        0.000000        1.276034         3    ;  uncertainty k = 0.242993
        17        12        13        29     9      180.000000        1.530534         4    ;  uncertainty k = 0.258873
        17        16        15        19     9        0.000000        0.260039         1    ;  uncertainty k = 0.421118
        17        16        15        19     9      180.000000        9.468911         2    ;  uncertainty k = 0.427961
        17        16        15        19     9        0.000000        1.240943         3    ;  uncertainty k = 0.389699
        17        16        15        19     9      180.000000        1.646554         4    ;  uncertainty k = 0.232249
        18         6         3        26     9        0.000000       -0.142189         1    ;  uncertainty k = 0.328787
        18         6         3        26     9      180.000000        8.846603         2    ;  uncertainty k = 0.339539
        18         6         3        26     9        0.000000        0.777188         3    ;  uncertainty k = 0.267076
        18         6         3        26     9      180.000000        0.906640         4    ;  uncertainty k = 0.199556
        18         6         7        27     9        0.000000       -0.393781         1    ;  uncertainty k = 0.262327
        18         6         7        27     9      180.000000        9.745063         2    ;  uncertainty k = 0.435080
        18         6         7        27     9        0.000000        0.931965         3    ;  uncertainty k = 0.242917
        18         6         7        27     9      180.000000        0.990273         4    ;  uncertainty k = 0.235528
        19        15        14        30     9        0.000000       -0.171087         1    ;  uncertainty k = 0.420050
        19        15        14        30     9      180.000000        8.167735         2    ;  uncertainty k = 0.410821
        19        15        14        30     9        0.000000        0.847189         3    ;  uncertainty k = 0.223131
        19        15        14        30     9      180.000000        1.215180         4    ;  uncertainty k = 0.207076
        19        15        16        31     9        0.000000       -0.171087         1    ;  uncertainty k = 0.420050
        19        15        16        31     9      180.000000        8.167735         2    ;  uncertainty k = 0.410821
        19        15        16        31     9        0.000000        0.847189         3    ;  uncertainty k = 0.223131
        19        15        16        31     9      180.000000        1.215180         4    ;  uncertainty k = 0.207076
        19        20        21        22     9        0.000000        5.712995         1    ;  uncertainty k = 2.271889
        19        20        21        22     9      180.000000       -4.448143         2    ;  uncertainty k = 0.967439
        19        20        21        22     9        0.000000        2.218843         3    ;  uncertainty k = 0.464666
        19        20        21        22     9      180.000000       -0.249898         4    ;  uncertainty k = 0.302920
        19        20        21        35     9        0.000000        0.737239         1    ;  uncertainty k = 0.566477
        19        20        21        35     9      180.000000       -1.176454         2    ;  uncertainty k = 0.696093
        19        20        21        35     9        0.000000        0.836547         3    ;  uncertainty k = 0.082084
        19        20        21        35     9      180.000000        0.003333         4    ;  uncertainty k = 0.121272
        19        20        21        36     9        0.000000        0.737239         1    ;  uncertainty k = 0.566477
        19        20        21        36     9      180.000000       -1.176454         2    ;  uncertainty k = 0.696093
        19        20        21        36     9        0.000000        0.836547         3    ;  uncertainty k = 0.082084
        19        20        21        36     9      180.000000        0.003333         4    ;  uncertainty k = 0.121272
        19        24        23        22     9        0.000000        5.712995         1    ;  uncertainty k = 2.271889
        19        24        23        22     9      180.000000       -4.448143         2    ;  uncertainty k = 0.967439
        19        24        23        22     9        0.000000        2.218843         3    ;  uncertainty k = 0.464666
        19        24        23        22     9      180.000000       -0.249898         4    ;  uncertainty k = 0.302920
        19        24        23        37     9        0.000000        0.737237         1    ;  uncertainty k = 0.566478
        19        24        23        37     9      180.000000       -1.176454         2    ;  uncertainty k = 0.696092
        19        24        23        37     9        0.000000        0.836547         3    ;  uncertainty k = 0.082083
        19        24        23        37     9      180.000000        0.003333         4    ;  uncertainty k = 0.121272
        19        24        23        38     9        0.000000        0.737237         1    ;  uncertainty k = 0.566478
        19        24        23        38     9      180.000000       -1.176454         2    ;  uncertainty k = 0.696092
        19        24        23        38     9        0.000000        0.836547         3    ;  uncertainty k = 0.082083
        19        24        23        38     9      180.000000        0.003333         4    ;  uncertainty k = 0.121272
        20        19        24        23     9        0.000000       -4.812168         1    ;  uncertainty k = 2.417731
        20        19        24        23     9      180.000000       -0.500126         2    ;  uncertainty k = 0.919380
        20        19        24        23     9        0.000000        0.777920         3    ;  uncertainty k = 0.630925
        20        19        24        23     9      180.000000       -0.409554         4    ;  uncertainty k = 0.292099
        20        19        24        39     9        0.000000       -5.366203         1    ;  uncertainty k = 1.840370
        20        19        24        39     9      180.000000        0.217316         2    ;  uncertainty k = 0.604808
        20        19        24        39     9        0.000000        0.722389         3    ;  uncertainty k = 0.217724
        20        19        24        39     9      180.000000       -0.070900         4    ;  uncertainty k = 0.101936
        20        19        24        40     9        0.000000       -5.366203         1    ;  uncertainty k = 1.840370
        20        19        24        40     9      180.000000        0.217316         2    ;  uncertainty k = 0.604808
        20        19        24        40     9        0.000000        0.722389         3    ;  uncertainty k = 0.217724
        20        19        24        40     9      180.000000       -0.070900         4    ;  uncertainty k = 0.101936
        20        21        22        23     9        0.000000        1.029970         1    ;  uncertainty k = 1.659236
        20        21        22        23     9      180.000000       -0.643456         2    ;  uncertainty k = 0.966018
        20        21        22        23     9        0.000000        0.583405         3    ;  uncertainty k = 0.324692
        20        21        22        23     9      180.000000       -0.366184         4    ;  uncertainty k = 0.357889
        20        21        22        25     9        0.000000       -1.222136         1    ;  uncertainty k = 1.266908
        20        21        22        25     9      180.000000        0.245543         2    ;  uncertainty k = 0.563341
        20        21        22        25     9        0.000000        0.900344         3    ;  uncertainty k = 0.185631
        20        21        22        25     9      180.000000       -0.026733         4    ;  uncertainty k = 0.084529
        20        21        22        44     9        0.000000        0.851819         1    ;  uncertainty k = 0.888512
        20        21        22        44     9      180.000000       -0.502639         2    ;  uncertainty k = 0.438482
        20        21        22        44     9        0.000000        0.363570         3    ;  uncertainty k = 0.180757
        20        21        22        44     9      180.000000       -0.164008         4    ;  uncertainty k = 0.120636
        21        20        19        24     9        0.000000       -4.812168         1    ;  uncertainty k = 2.417731
        21        20        19        24     9      180.000000       -0.500126         2    ;  uncertainty k = 0.919380
        21        20        19        24     9        0.000000        0.777920         3    ;  uncertainty k = 0.630925
        21        20        19        24     9      180.000000       -0.409554         4    ;  uncertainty k = 0.292099
        21        22        23        24     9        0.000000        1.029970         1    ;  uncertainty k = 1.659236
        21        22        23        24     9      180.000000       -0.643456         2    ;  uncertainty k = 0.966018
        21        22        23        24     9        0.000000        0.583405         3    ;  uncertainty k = 0.324692
        21        22        23        24     9      180.000000       -0.366184         4    ;  uncertainty k = 0.357889
        21        22        23        37     9        0.000000       -0.555343         1    ;  uncertainty k = 0.614894
        21        22        23        37     9      180.000000       -0.684539         2    ;  uncertainty k = 0.341970
        21        22        23        37     9        0.000000        0.421289         3    ;  uncertainty k = 0.187096
        21        22        23        37     9      180.000000       -0.022021         4    ;  uncertainty k = 0.246267
        21        22        23        38     9        0.000000       -0.555343         1    ;  uncertainty k = 0.614894
        21        22        23        38     9      180.000000       -0.684539         2    ;  uncertainty k = 0.341970
        21        22        23        38     9        0.000000        0.421289         3    ;  uncertainty k = 0.187096
        21        22        23        38     9      180.000000       -0.022021         4    ;  uncertainty k = 0.246267
        21        22        25        41     9        0.000000       -0.493018         1    ;  uncertainty k = 0.527622
        21        22        25        41     9      180.000000       -0.924863         2    ;  uncertainty k = 0.328770
        21        22        25        41     9        0.000000        1.108114         3    ;  uncertainty k = 0.055824
        21        22        25        41     9      180.000000       -0.006372         4    ;  uncertainty k = 0.129478
        21        22        25        42     9        0.000000       -0.493018         1    ;  uncertainty k = 0.527622
        21        22        25        42     9      180.000000       -0.924863         2    ;  uncertainty k = 0.328770
        21        22        25        42     9        0.000000        1.108114         3    ;  uncertainty k = 0.055824
        21        22        25        42     9      180.000000       -0.006372         4    ;  uncertainty k = 0.129478
        21        22        25        43     9        0.000000       -0.493018         1    ;  uncertainty k = 0.527622
        21        22        25        43     9      180.000000       -0.924863         2    ;  uncertainty k = 0.328770
        21        22        25        43     9        0.000000        1.108114         3    ;  uncertainty k = 0.055824
        21        22        25        43     9      180.000000       -0.006372         4    ;  uncertainty k = 0.129478
        22        21        20        33     9        0.000000        2.798566         1    ;  uncertainty k = 1.538741
        22        21        20        33     9      180.000000       -3.442533         2    ;  uncertainty k = 0.923680
        22        21        20        33     9        0.000000        0.257615         3    ;  uncertainty k = 0.188363
        22        21        20        33     9      180.000000        0.172176         4    ;  uncertainty k = 0.157081
        22        21        20        34     9        0.000000        2.798566         1    ;  uncertainty k = 1.538741
        22        21        20        34     9      180.000000       -3.442533         2    ;  uncertainty k = 0.923680
        22        21        20        34     9        0.000000        0.257615         3    ;  uncertainty k = 0.188363
        22        21        20        34     9      180.000000        0.172176         4    ;  uncertainty k = 0.157081
        22        23        24        39     9        0.000000        2.798566         1    ;  uncertainty k = 1.538744
        22        23        24        39     9      180.000000       -3.442531         2    ;  uncertainty k = 0.923678
        22        23        24        39     9        0.000000        0.257616         3    ;  uncertainty k = 0.188363
        22        23        24        39     9      180.000000        0.172176         4    ;  uncertainty k = 0.157081
        22        23        24        40     9        0.000000        2.798566         1    ;  uncertainty k = 1.538744
        22        23        24        40     9      180.000000       -3.442531         2    ;  uncertainty k = 0.923678
        22        23        24        40     9        0.000000        0.257616         3    ;  uncertainty k = 0.188363
        22        23        24        40     9      180.000000        0.172176         4    ;  uncertainty k = 0.157081
        23        22        21        35     9        0.000000       -0.555343         1    ;  uncertainty k = 0.614894
        23        22        21        35     9      180.000000       -0.684538         2    ;  uncertainty k = 0.341969
        23        22        21        35     9        0.000000        0.421289         3    ;  uncertainty k = 0.187096
        23        22        21        35     9      180.000000       -0.022021         4    ;  uncertainty k = 0.246266
        23        22        21        36     9        0.000000       -0.555343         1    ;  uncertainty k = 0.614894
        23        22        21        36     9      180.000000       -0.684538         2    ;  uncertainty k = 0.341969
        23        22        21        36     9        0.000000        0.421289         3    ;  uncertainty k = 0.187096
        23        22        21        36     9      180.000000       -0.022021         4    ;  uncertainty k = 0.246266
        23        22        25        41     9        0.000000       -0.493018         1    ;  uncertainty k = 0.527622
        23        22        25        41     9      180.000000       -0.924863         2    ;  uncertainty k = 0.328770
        23        22        25        41     9        0.000000        1.108114         3    ;  uncertainty k = 0.055824
        23        22        25        41     9      180.000000       -0.006372         4    ;  uncertainty k = 0.129478
        23        22        25        42     9        0.000000       -0.493018         1    ;  uncertainty k = 0.527622
        23        22        25        42     9      180.000000       -0.924863         2    ;  uncertainty k = 0.328770
        23        22        25        42     9        0.000000        1.108114         3    ;  uncertainty k = 0.055824
        23        22        25        42     9      180.000000       -0.006372         4    ;  uncertainty k = 0.129478
        23        22        25        43     9        0.000000       -0.493018         1    ;  uncertainty k = 0.527622
        23        22        25        43     9      180.000000       -0.924863         2    ;  uncertainty k = 0.328770
        23        22        25        43     9        0.000000        1.108114         3    ;  uncertainty k = 0.055824
        23        22        25        43     9      180.000000       -0.006372         4    ;  uncertainty k = 0.129478
        24        19        20        33     9        0.000000       -5.366202         1    ;  uncertainty k = 1.840371
        24        19        20        33     9      180.000000        0.217318         2    ;  uncertainty k = 0.604808
        24        19        20        33     9        0.000000        0.722390         3    ;  uncertainty k = 0.217724
        24        19        20        33     9      180.000000       -0.070901         4    ;  uncertainty k = 0.101936
        24        19        20        34     9        0.000000       -5.366202         1    ;  uncertainty k = 1.840371
        24        19        20        34     9      180.000000        0.217318         2    ;  uncertainty k = 0.604808
        24        19        20        34     9        0.000000        0.722390         3    ;  uncertainty k = 0.217724
        24        19        20        34     9      180.000000       -0.070901         4    ;  uncertainty k = 0.101936
        24        23        22        25     9        0.000000       -1.222136         1    ;  uncertainty k = 1.266908
        24        23        22        25     9      180.000000        0.245543         2    ;  uncertainty k = 0.563341
        24        23        22        25     9        0.000000        0.900344         3    ;  uncertainty k = 0.185631
        24        23        22        25     9      180.000000       -0.026733         4    ;  uncertainty k = 0.084529
        24        23        22        44     9        0.000000        0.851819         1    ;  uncertainty k = 0.888512
        24        23        22        44     9      180.000000       -0.502639         2    ;  uncertainty k = 0.438482
        24        23        22        44     9        0.000000        0.363570         3    ;  uncertainty k = 0.180757
        24        23        22        44     9      180.000000       -0.164008         4    ;  uncertainty k = 0.120636
        25        22        21        35     9        0.000000       -0.362465         1    ;  uncertainty k = 0.312437
        25        22        21        35     9      180.000000       -0.518145         2    ;  uncertainty k = 0.102854
        25        22        21        35     9        0.000000        0.829966         3    ;  uncertainty k = 0.122153
        25        22        21        35     9      180.000000       -0.015810         4    ;  uncertainty k = 0.098618
        25        22        21        36     9        0.000000       -0.362465         1    ;  uncertainty k = 0.312437
        25        22        21        36     9      180.000000       -0.518145         2    ;  uncertainty k = 0.102854
        25        22        21        36     9        0.000000        0.829966         3    ;  uncertainty k = 0.122153
        25        22        21        36     9      180.000000       -0.015810         4    ;  uncertainty k = 0.098618
        25        22        23        37     9        0.000000       -0.362465         1    ;  uncertainty k = 0.312436
        25        22        23        37     9      180.000000       -0.518146         2    ;  uncertainty k = 0.102855
        25        22        23        37     9        0.000000        0.829966         3    ;  uncertainty k = 0.122153
        25        22        23        37     9      180.000000       -0.015809         4    ;  uncertainty k = 0.098618
        25        22        23        38     9        0.000000       -0.362465         1    ;  uncertainty k = 0.312436
        25        22        23        38     9      180.000000       -0.518146         2    ;  uncertainty k = 0.102855
        25        22        23        38     9        0.000000        0.829966         3    ;  uncertainty k = 0.122153
        25        22        23        38     9      180.000000       -0.015809         4    ;  uncertainty k = 0.098618
        26         3         1        45     9        0.000000       -0.303249         1    ;  uncertainty k = 0.309929
        26         3         1        45     9      180.000000        9.141895         2    ;  uncertainty k = 0.424482
        26         3         1        45     9        0.000000        0.727216         3    ;  uncertainty k = 0.302195
        26         3         1        45     9      180.000000        1.166579         4    ;  uncertainty k = 0.166020
        29        13        14        30     9        0.000000        0.054675         1    ;  uncertainty k = 0.273342
        29        13        14        30     9      180.000000        8.085438         2    ;  uncertainty k = 0.527638
        29        13        14        30     9        0.000000       -0.389630         3    ;  uncertainty k = 0.254642
        29        13        14        30     9      180.000000        0.315097         4    ;  uncertainty k = 0.248833
        31        16        17        32     9        0.000000        0.054675         1    ;  uncertainty k = 0.273342
        31        16        17        32     9      180.000000        8.085438         2    ;  uncertainty k = 0.527638
        31        16        17        32     9        0.000000       -0.389630         3    ;  uncertainty k = 0.254642
        31        16        17        32     9      180.000000        0.315097         4    ;  uncertainty k = 0.248833
        33        20        21        35     9        0.000000       -0.874617         1    ;  uncertainty k = 0.560227
        33        20        21        35     9      180.000000        1.098532         2    ;  uncertainty k = 0.303910
        33        20        21        35     9        0.000000        0.131435         3    ;  uncertainty k = 0.173351
        33        20        21        35     9      180.000000       -0.324650         4    ;  uncertainty k = 0.082954
        33        20        21        36     9        0.000000       -0.874617         1    ;  uncertainty k = 0.560227
        33        20        21        36     9      180.000000        1.098532         2    ;  uncertainty k = 0.303910
        33        20        21        36     9        0.000000        0.131435         3    ;  uncertainty k = 0.173351
        33        20        21        36     9      180.000000       -0.324650         4    ;  uncertainty k = 0.082954
        34        20        21        35     9        0.000000       -0.874617         1    ;  uncertainty k = 0.560227
        34        20        21        35     9      180.000000        1.098532         2    ;  uncertainty k = 0.303910
        34        20        21        35     9        0.000000        0.131435         3    ;  uncertainty k = 0.173351
        34        20        21        35     9      180.000000       -0.324650         4    ;  uncertainty k = 0.082954
        34        20        21        36     9        0.000000       -0.874617         1    ;  uncertainty k = 0.560227
        34        20        21        36     9      180.000000        1.098532         2    ;  uncertainty k = 0.303910
        34        20        21        36     9        0.000000        0.131435         3    ;  uncertainty k = 0.173351
        34        20        21        36     9      180.000000       -0.324650         4    ;  uncertainty k = 0.082954
        35        21        22        44     9        0.000000        0.470437         1    ;  uncertainty k = 0.542416
        35        21        22        44     9      180.000000       -0.378037         2    ;  uncertainty k = 0.186112
        35        21        22        44     9        0.000000        0.065990         3    ;  uncertainty k = 0.119211
        35        21        22        44     9      180.000000        0.002774         4    ;  uncertainty k = 0.092094
        36        21        22        44     9        0.000000        0.470437         1    ;  uncertainty k = 0.542416
        36        21        22        44     9      180.000000       -0.378037         2    ;  uncertainty k = 0.186112
        36        21        22        44     9        0.000000        0.065990         3    ;  uncertainty k = 0.119211
        36        21        22        44     9      180.000000        0.002774         4    ;  uncertainty k = 0.092094
        37        23        22        44     9        0.000000        0.470438         1    ;  uncertainty k = 0.542416
        37        23        22        44     9      180.000000       -0.378036         2    ;  uncertainty k = 0.186112
        37        23        22        44     9        0.000000        0.065989         3    ;  uncertainty k = 0.119211
        37        23        22        44     9      180.000000        0.002774         4    ;  uncertainty k = 0.092094
        37        23        24        39     9        0.000000       -0.874617         1    ;  uncertainty k = 0.560225
        37        23        24        39     9      180.000000        1.098532         2    ;  uncertainty k = 0.303910
        37        23        24        39     9        0.000000        0.131434         3    ;  uncertainty k = 0.173351
        37        23        24        39     9      180.000000       -0.324650         4    ;  uncertainty k = 0.082955
        37        23        24        40     9        0.000000       -0.874617         1    ;  uncertainty k = 0.560225
        37        23        24        40     9      180.000000        1.098532         2    ;  uncertainty k = 0.303910
        37        23        24        40     9        0.000000        0.131434         3    ;  uncertainty k = 0.173351
        37        23        24        40     9      180.000000       -0.324650         4    ;  uncertainty k = 0.082955
        38        23        22        44     9        0.000000        0.470438         1    ;  uncertainty k = 0.542416
        38        23        22        44     9      180.000000       -0.378036         2    ;  uncertainty k = 0.186112
        38        23        22        44     9        0.000000        0.065989         3    ;  uncertainty k = 0.119211
        38        23        22        44     9      180.000000        0.002774         4    ;  uncertainty k = 0.092094
        38        23        24        39     9        0.000000       -0.874617         1    ;  uncertainty k = 0.560225
        38        23        24        39     9      180.000000        1.098532         2    ;  uncertainty k = 0.303910
        38        23        24        39     9        0.000000        0.131434         3    ;  uncertainty k = 0.173351
        38        23        24        39     9      180.000000       -0.324650         4    ;  uncertainty k = 0.082955
        38        23        24        40     9        0.000000       -0.874617         1    ;  uncertainty k = 0.560225
        38        23        24        40     9      180.000000        1.098532         2    ;  uncertainty k = 0.303910
        38        23        24        40     9        0.000000        0.131434         3    ;  uncertainty k = 0.173351
        38        23        24        40     9      180.000000       -0.324650         4    ;  uncertainty k = 0.082955
        41        25        22        44     9        0.000000        0.358545         1    ;  uncertainty k = 0.480834
        41        25        22        44     9      180.000000       -0.540987         2    ;  uncertainty k = 0.534195
        41        25        22        44     9        0.000000        0.381334         3    ;  uncertainty k = 0.089493
        41        25        22        44     9      180.000000        0.080170         4    ;  uncertainty k = 0.069800
        42        25        22        44     9        0.000000        0.358545         1    ;  uncertainty k = 0.480834
        42        25        22        44     9      180.000000       -0.540987         2    ;  uncertainty k = 0.534195
        42        25        22        44     9        0.000000        0.381334         3    ;  uncertainty k = 0.089493
        42        25        22        44     9      180.000000        0.080170         4    ;  uncertainty k = 0.069800
        43        25        22        44     9        0.000000        0.358545         1    ;  uncertainty k = 0.480834
        43        25        22        44     9      180.000000       -0.540987         2    ;  uncertainty k = 0.534195
        43        25        22        44     9        0.000000        0.381334         3    ;  uncertainty k = 0.089493
        43        25        22        44     9      180.000000        0.080170         4    ;  uncertainty k = 0.069800

[ dihedrals ] ; impropers
;       ai        aj        ak        al funct           phase               k        pn
         1         2         3        45     4      180.000000       14.598771         2    ;  uncertainty k = 0.130151
         1         3        45         2     4      180.000000       14.598771         2    ;  uncertainty k = 0.130151
         1        45         2         3     4      180.000000       14.598771         2    ;  uncertainty k = 0.130151
         2         1         4         5     4      180.000000       21.516061         2    ;  uncertainty k = 0.075383
         2         4         5         1     4      180.000000       21.516061         2    ;  uncertainty k = 0.075383
         2         5         1         4     4      180.000000       21.516061         2    ;  uncertainty k = 0.075383
         3         1         6        26     4      180.000000        3.004266         2    ;  uncertainty k = 0.201134
         3         6        26         1     4      180.000000        3.004266         2    ;  uncertainty k = 0.201134
         3        26         1         6     4      180.000000        3.004266         2    ;  uncertainty k = 0.201134
         4         2         7         8     4      180.000000        5.879878         2    ;  uncertainty k = 0.274630
         4         7         8         2     4      180.000000        5.879878         2    ;  uncertainty k = 0.274630
         4         8         2         7     4      180.000000        5.879878         2    ;  uncertainty k = 0.274630
         6         3         7        18     4      180.000000       17.083694         2    ;  uncertainty k = 0.048816
         6         7        18         3     4      180.000000       17.083694         2    ;  uncertainty k = 0.048816
         6        18         3         7     4      180.000000       17.083694         2    ;  uncertainty k = 0.048816
         7         4         6        27     4      180.000000        3.386151         2    ;  uncertainty k = 0.082051
         7         6        27         4     4      180.000000        3.386151         2    ;  uncertainty k = 0.082051
         7        27         4         6     4      180.000000        3.386151         2    ;  uncertainty k = 0.082051
         8         4         9        10     4      180.000000       50.304812         2    ;  uncertainty k = 0.013989
         8         9        10         4     4      180.000000       50.304812         2    ;  uncertainty k = 0.013989
         8        10         4         9     4      180.000000       50.304812         2    ;  uncertainty k = 0.013989
         9         8        11        28     4      180.000000        0.683154         2    ;  uncertainty k = 0.498652
         9        11        28         8     4      180.000000        0.683154         2    ;  uncertainty k = 0.498652
         9        28         8        11     4      180.000000        0.683154         2    ;  uncertainty k = 0.498652
        11         5         9        12     4      180.000000       30.117328         2    ;  uncertainty k = 0.038998
        11         9        12         5     4      180.000000       30.117328         2    ;  uncertainty k = 0.038998
        11        12         5         9     4      180.000000       30.117328         2    ;  uncertainty k = 0.038998
        12        11        13        17     4      180.000000        7.666795         2    ;  uncertainty k = 0.217746
        12        13        17        11     4      180.000000        7.666795         2    ;  uncertainty k = 0.217746
        12        17        11        13     4      180.000000        7.666795         2    ;  uncertainty k = 0.217746
        13        12        14        29     4      180.000000        4.327143         2    ;  uncertainty k = 0.268125
        13        14        29        12     4      180.000000        4.327143         2    ;  uncertainty k = 0.268125
        13        29        12        14     4      180.000000        4.327143         2    ;  uncertainty k = 0.268125
        14        13        15        30     4      180.000000        2.259609         2    ;  uncertainty k = 0.302884
        14        15        30        13     4      180.000000        2.259609         2    ;  uncertainty k = 0.302884
        14        30        13        15     4      180.000000        2.259609         2    ;  uncertainty k = 0.302884
        15        14        16        19     4      180.000000       20.766018         2    ;  uncertainty k = 0.167587
        15        16        19        14     4      180.000000       20.766018         2    ;  uncertainty k = 0.167587
        15        19        14        16     4      180.000000       20.766018         2    ;  uncertainty k = 0.167587
        16        15        17        31     4      180.000000        2.259608         2    ;  uncertainty k = 0.302885
        16        17        31        15     4      180.000000        2.259608         2    ;  uncertainty k = 0.302885
        16        31        15        17     4      180.000000        2.259608         2    ;  uncertainty k = 0.302885
        17        12        16        32     4      180.000000        4.327139         2    ;  uncertainty k = 0.268123
        17        16        32        12     4      180.000000        4.327139         2    ;  uncertainty k = 0.268123
        17        32        12        16     4      180.000000        4.327139         2    ;  uncertainty k = 0.268123

[ pairs ]
;       ai        aj funct
         1         7     1
         1         8     1
         1        11     1
         1        18     1
         2         6     1
         2         9     1
         2        10     1
         2        12     1
         2        26     1
         2        27     1
         2        46     1
         2        47     1
         2        48     1
         3         4     1
         3         5     1
         3        27     1
         3        46     1
         3        47     1
         3        48     1
         4        11     1
         4        18     1
         4        28     1
         4        45     1
         5         7     1
         5         8     1
         5        13     1
         5        17     1
         5        28     1
         5        45     1
         6         8     1
         6        45     1
         7         9     1
         7        10     1
         7        26     1
         8        12     1
         8        27     1
         9        13     1
         9        17     1
        10        11     1
        10        28     1
        11        14     1
        11        16     1
        11        29     1
        11        32     1
        12        15     1
        12        28     1
        12        30     1
        12        31     1
        13        16     1
        13        19     1
        13        32     1
        14        17     1
        14        20     1
        14        24     1
        14        31     1
        15        21     1
        15        23     1
        15        29     1
        15        32     1
        15        33     1
        15        34     1
        15        39     1
        15        40     1
        16        20     1
        16        24     1
        16        30     1
        17        19     1
        17        29     1
        18        26     1
        18        27     1
        19        22     1
        19        30     1
        19        31     1
        19        35     1
        19        36     1
        19        37     1
        19        38     1
        20        23     1
        20        25     1
        20        39     1
        20        40     1
        20        44     1
        21        24     1
        21        37     1
        21        38     1
        21        41     1
        21        42     1
        21        43     1
        22        33     1
        22        34     1
        22        39     1
        22        40     1
        23        35     1
        23        36     1
        23        41     1
        23        42     1
        23        43     1
        24        25     1
        24        33     1
        24        34     1
        24        44     1
        25        35     1
        25        36     1
        25        37     1
        25        38     1
        26        45     1
        29        30     1
        31        32     1
        33        35     1
        33        36     1
        34        35     1
        34        36     1
        35        44     1
        36        44     1
        37        39     1
        37        40     1
        37        44     1
        38        39     1
        38        40     1
        38        44     1
        41        44     1
        42        44     1
        43        44     1
