; ITP file created by ByteFF-joint-25, 2026-02-17 09:46:45.158153

[ atomtypes ]
;name           bonded.type        at.num        mass        charge   ptype           sigma         epsilon
 c0bf                                   6      0.0000       0.00000       A     3.31544e-01     4.12898e-01    ;  uncertainty sigma = 0.000010, epsilon = 0.001450
 c1bf                                   6      0.0000       0.00000       A     3.31538e-01     4.12882e-01    ;  uncertainty sigma = 0.000014, epsilon = 0.000998
 c2bf                                   6      0.0000       0.00000       A     3.31511e-01     4.13650e-01    ;  uncertainty sigma = 0.000005, epsilon = 0.000721
 c3bf                                   6      0.0000       0.00000       A     3.31548e-01     4.13980e-01    ;  uncertainty sigma = 0.000015, epsilon = 0.000513
 n4bf                                   7      0.0000       0.00000       A     3.38442e-01     3.94072e-01    ;  uncertainty sigma = 0.000023, epsilon = 0.001715
 c5bf                                   6      0.0000       0.00000       A     3.31503e-01     4.13294e-01    ;  uncertainty sigma = 0.000007, epsilon = 0.000525
 c6bf                                   6      0.0000       0.00000       A     3.31511e-01     4.13581e-01    ;  uncertainty sigma = 0.000007, epsilon = 0.000714
 c7bf                                   6      0.0000       0.00000       A     3.31541e-01     4.13541e-01    ;  uncertainty sigma = 0.000006, epsilon = 0.001270
 n8bf                                   7      0.0000       0.00000       A     3.26867e-01     4.92512e-01    ;  uncertainty sigma = 0.000088, epsilon = 0.003430
 o9bf                                   8      0.0000       0.00000       A     3.04814e-01     6.11899e-01    ;  uncertainty sigma = 0.000014, epsilon = 0.001624
 c10bf                                  6      0.0000       0.00000       A     3.31510e-01     4.13013e-01    ;  uncertainty sigma = 0.000015, epsilon = 0.001151
 c11bf                                  6      0.0000       0.00000       A     3.31501e-01     4.12893e-01    ;  uncertainty sigma = 0.000017, epsilon = 0.001086
 c12bf                                  6      0.0000       0.00000       A     3.31517e-01     4.13262e-01    ;  uncertainty sigma = 0.000004, epsilon = 0.000655
 c13bf                                  6      0.0000       0.00000       A     3.31511e-01     4.13305e-01    ;  uncertainty sigma = 0.000003, epsilon = 0.000548
 c14bf                                  6      0.0000       0.00000       A     3.31549e-01     4.13212e-01    ;  uncertainty sigma = 0.000009, epsilon = 0.000617
 c15bf                                  6      0.0000       0.00000       A     3.31511e-01     4.13305e-01    ;  uncertainty sigma = 0.000003, epsilon = 0.000548
 c16bf                                  6      0.0000       0.00000       A     3.31517e-01     4.13262e-01    ;  uncertainty sigma = 0.000004, epsilon = 0.000655
 f17bf                                  9      0.0000       0.00000       A     3.03388e-01     3.48460e-01    ;  uncertainty sigma = 0.000026, epsilon = 0.000727
 f18bf                                  9      0.0000       0.00000       A     3.03417e-01     3.47913e-01    ;  uncertainty sigma = 0.000011, epsilon = 0.000751
 c19bf                                  6      0.0000       0.00000       A     3.39773e-01     4.50991e-01    ;  uncertainty sigma = 0.000012, epsilon = 0.001398
 c20bf                                  6      0.0000       0.00000       A     3.39758e-01     4.51226e-01    ;  uncertainty sigma = 0.000007, epsilon = 0.000908
 c21bf                                  6      0.0000       0.00000       A     3.39767e-01     4.50938e-01    ;  uncertainty sigma = 0.000011, epsilon = 0.001053
 n22bf                                  7      0.0000       0.00000       A     2.67774e-01     7.09903e+00    ;  uncertainty sigma = 0.000054, epsilon = 0.004981
 c23bf                                  6      0.0000       0.00000       A     3.39767e-01     4.50938e-01    ;  uncertainty sigma = 0.000011, epsilon = 0.001053
 c24bf                                  6      0.0000       0.00000       A     3.39758e-01     4.51226e-01    ;  uncertainty sigma = 0.000007, epsilon = 0.000908
 h25bf                                  1      0.0000       0.00000       A     2.62539e-01     6.72957e-02    ;  uncertainty sigma = 0.000010, epsilon = 0.000428
 h26bf                                  1      0.0000       0.00000       A     2.62584e-01     6.68454e-02    ;  uncertainty sigma = 0.000019, epsilon = 0.000520
 h27bf                                  1      0.0000       0.00000       A     1.10651e-01     4.13762e-02    ;  uncertainty sigma = 0.000058, epsilon = 0.001253
 h28bf                                  1      0.0000       0.00000       A     2.62566e-01     6.70592e-02    ;  uncertainty sigma = 0.000011, epsilon = 0.000549
 h29bf                                  1      0.0000       0.00000       A     2.62558e-01     6.70445e-02    ;  uncertainty sigma = 0.000012, epsilon = 0.000408
 h30bf                                  1      0.0000       0.00000       A     2.62558e-01     6.70445e-02    ;  uncertainty sigma = 0.000012, epsilon = 0.000408
 h31bf                                  1      0.0000       0.00000       A     2.62566e-01     6.70592e-02    ;  uncertainty sigma = 0.000011, epsilon = 0.000549
 h32bf                                  1      0.0000       0.00000       A     2.60049e-01     8.62140e-02    ;  uncertainty sigma = 0.000056, epsilon = 0.000860
 h33bf                                  1      0.0000       0.00000       A     2.60034e-01     8.68375e-02    ;  uncertainty sigma = 0.000016, epsilon = 0.000869
 h34bf                                  1      0.0000       0.00000       A     2.60034e-01     8.68375e-02    ;  uncertainty sigma = 0.000016, epsilon = 0.000869
 h35bf                                  1      0.0000       0.00000       A     1.88783e-01     8.65039e-02    ;  uncertainty sigma = 0.000062, epsilon = 0.000933
 h36bf                                  1      0.0000       0.00000       A     1.88783e-01     8.65039e-02    ;  uncertainty sigma = 0.000062, epsilon = 0.000933
 h37bf                                  1      0.0000       0.00000       A     1.10709e-01     4.15741e-02    ;  uncertainty sigma = 0.000082, epsilon = 0.000307
 h38bf                                  1      0.0000       0.00000       A     1.88783e-01     8.65039e-02    ;  uncertainty sigma = 0.000062, epsilon = 0.000933
 h39bf                                  1      0.0000       0.00000       A     1.88783e-01     8.65039e-02    ;  uncertainty sigma = 0.000062, epsilon = 0.000933
 h40bf                                  1      0.0000       0.00000       A     2.60034e-01     8.68374e-02    ;  uncertainty sigma = 0.000016, epsilon = 0.000869
 h41bf                                  1      0.0000       0.00000       A     2.60034e-01     8.68375e-02    ;  uncertainty sigma = 0.000016, epsilon = 0.000869
 h42bf                                  1      0.0000       0.00000       A     1.10709e-01     4.15742e-02    ;  uncertainty sigma = 0.000082, epsilon = 0.000307

[ moleculetype ]
;name             nrexcl
 MOL                   3

[ atoms ]
;       nr            type      resi   res      atom      cgnr      charge          mass ; qtot
         1            c0bf         1   UNL        c0         1     0.16197       12.0110 ; qtot    0.162
         2            c1bf         1   UNL        c1         2     0.14566       12.0110 ; qtot    0.308
         3            c2bf         1   UNL        c2         3    -0.17908       12.0110 ; qtot    0.129
         4            c3bf         1   UNL        c3         4    -0.15686       12.0110 ; qtot   -0.028
         5            n4bf         1   UNL        n4         5    -0.60330       14.0070 ; qtot   -0.632
         6            c5bf         1   UNL        c5         6     0.13654       12.0110 ; qtot   -0.495
         7            c6bf         1   UNL        c6         7    -0.11531       12.0110 ; qtot   -0.610
         8            c7bf         1   UNL        c7         8     0.71821       12.0110 ; qtot    0.108
         9            n8bf         1   UNL        n8         9    -0.50497       14.0070 ; qtot   -0.397
        10            o9bf         1   UNL        o9        10    -0.59810       15.9990 ; qtot   -0.995
        11           c10bf         1   UNL       c10        11     0.56809       12.0110 ; qtot   -0.427
        12           c11bf         1   UNL       c11        12    -0.15636       12.0110 ; qtot   -0.584
        13           c12bf         1   UNL       c12        13    -0.08643       12.0110 ; qtot   -0.670
        14           c13bf         1   UNL       c13        14    -0.12382       12.0110 ; qtot   -0.794
        15           c14bf         1   UNL       c14        15    -0.08146       12.0110 ; qtot   -0.875
        16           c15bf         1   UNL       c15        16    -0.12382       12.0110 ; qtot   -0.999
        17           c16bf         1   UNL       c16        17    -0.08643       12.0110 ; qtot   -1.085
        18           f17bf         1   UNL       f17        18    -0.11130       18.9980 ; qtot   -1.197
        19           f18bf         1   UNL       f18        19    -0.12916       18.9980 ; qtot   -1.326
        20           c19bf         1   UNL       c19        20    -0.00250       12.0110 ; qtot   -1.328
        21           c20bf         1   UNL       c20        21    -0.09867       12.0110 ; qtot   -1.427
        22           c21bf         1   UNL       c21        22     0.14462       12.0110 ; qtot   -1.282
        23           n22bf         1   UNL       n22        23    -0.79643       14.0070 ; qtot   -2.079
        24           c23bf         1   UNL       c23        24     0.14462       12.0110 ; qtot   -1.934
        25           c24bf         1   UNL       c24        25    -0.09867       12.0110 ; qtot   -2.033
        26           h25bf         1   UNL       h25        26     0.17388        1.0080 ; qtot   -1.859
        27           h26bf         1   UNL       h26        27     0.17999        1.0080 ; qtot   -1.679
        28           h27bf         1   UNL       h27        28     0.33625        1.0080 ; qtot   -1.343
        29           h28bf         1   UNL       h28        29     0.14599        1.0080 ; qtot   -1.197
        30           h29bf         1   UNL       h29        30     0.13584        1.0080 ; qtot   -1.061
        31           h30bf         1   UNL       h30        31     0.13584        1.0080 ; qtot   -0.925
        32           h31bf         1   UNL       h31        32     0.14599        1.0080 ; qtot   -0.779
        33           h32bf         1   UNL       h32        33     0.07771        1.0080 ; qtot   -0.701
        34           h33bf         1   UNL       h33        34     0.09158        1.0080 ; qtot   -0.610
        35           h34bf         1   UNL       h34        35     0.09158        1.0080 ; qtot   -0.518
        36           h35bf         1   UNL       h35        36     0.10521        1.0080 ; qtot   -0.413
        37           h36bf         1   UNL       h36        37     0.10521        1.0080 ; qtot   -0.308
        38           h37bf         1   UNL       h37        38     0.45717        1.0080 ; qtot    0.149
        39           h38bf         1   UNL       h38        39     0.10521        1.0080 ; qtot    0.254
        40           h39bf         1   UNL       h39        40     0.10521        1.0080 ; qtot    0.360
        41           h40bf         1   UNL       h40        41     0.09158        1.0080 ; qtot    0.451
        42           h41bf         1   UNL       h41        42     0.09158        1.0080 ; qtot    0.543
        43           h42bf         1   UNL       h42        43     0.45714        1.0080 ; qtot    1.000

[ bonds ]
;       ai        aj funct               r               k
         1         2     1        0.140594   336452.820557    ;  uncertainty r = 0.000084, k = 18.534899
         1         3     1        0.137938   359023.309473    ;  uncertainty r = 0.000078, k = 7.103887
         1        18     1        0.134196   339889.604736    ;  uncertainty r = 0.000115, k = 5.452010
         2         4     1        0.141656   371603.834424    ;  uncertainty r = 0.000058, k = 14.207407
         2         5     1        0.137961   288693.599512    ;  uncertainty r = 0.000063, k = 26.469039
         3         6     1        0.140111   357401.600879    ;  uncertainty r = 0.000073, k = 7.401736
         3        26     1        0.108776   339662.758594    ;  uncertainty r = 0.000023, k = 0.843693
         4         7     1        0.139703   366143.234326    ;  uncertainty r = 0.000092, k = 5.420202
         4         8     1        0.146687   263233.407910    ;  uncertainty r = 0.000057, k = 18.798687
         5        11     1        0.129829   464193.655273    ;  uncertainty r = 0.000067, k = 4.891522
         6         7     1        0.138106   352979.722705    ;  uncertainty r = 0.000101, k = 11.194013
         6        19     1        0.135089   339040.751221    ;  uncertainty r = 0.000098, k = 5.264047
         7        27     1        0.108562   332963.251172    ;  uncertainty r = 0.000030, k = 2.295878
         8         9     1        0.140177   443152.609375    ;  uncertainty r = 0.000081, k = 13.987810
         8        10     1        0.123397   850054.628027    ;  uncertainty r = 0.000094, k = 14.128502
         9        11     1        0.139054   294994.064063    ;  uncertainty r = 0.000114, k = 23.492881
         9        28     1        0.102058   454589.659180    ;  uncertainty r = 0.000027, k = 4.102090
        11        12     1        0.147239   266136.057910    ;  uncertainty r = 0.000097, k = 11.598161
        12        13     1        0.139990   350460.129346    ;  uncertainty r = 0.000056, k = 3.505935
        12        17     1        0.139990   350460.129346    ;  uncertainty r = 0.000056, k = 3.505935
        13        14     1        0.139212   360485.462207    ;  uncertainty r = 0.000047, k = 3.282654
        13        29     1        0.108738   333316.276172    ;  uncertainty r = 0.000040, k = 0.861667
        14        15     1        0.139741   350531.403418    ;  uncertainty r = 0.000057, k = 2.779676
        14        30     1        0.108887   334346.749609    ;  uncertainty r = 0.000024, k = 0.557827
        15        16     1        0.139741   350531.403418    ;  uncertainty r = 0.000057, k = 2.779659
        15        20     1        0.151639   220518.659766    ;  uncertainty r = 0.000073, k = 10.588987
        16        17     1        0.139212   360485.462207    ;  uncertainty r = 0.000047, k = 3.282653
        16        31     1        0.108887   334346.749609    ;  uncertainty r = 0.000024, k = 0.557811
        17        32     1        0.108738   333316.276172    ;  uncertainty r = 0.000040, k = 0.861652
        20        21     1        0.154473   204826.680640    ;  uncertainty r = 0.000095, k = 7.840737
        20        25     1        0.154473   204826.693408    ;  uncertainty r = 0.000095, k = 7.840780
        20        33     1        0.109613   303153.042822    ;  uncertainty r = 0.000021, k = 4.786460
        21        22     1        0.152778   209565.857397    ;  uncertainty r = 0.000076, k = 8.723442
        21        34     1        0.109469   310158.459277    ;  uncertainty r = 0.000019, k = 1.280482
        21        35     1        0.109469   310158.459277    ;  uncertainty r = 0.000019, k = 1.280482
        22        23     1        0.152273   180036.008203    ;  uncertainty r = 0.000076, k = 11.466892
        22        36     1        0.109150   311239.062061    ;  uncertainty r = 0.000020, k = 2.086455
        22        37     1        0.109150   311239.062061    ;  uncertainty r = 0.000020, k = 2.086455
        23        24     1        0.152273   180036.008203    ;  uncertainty r = 0.000076, k = 11.466945
        23        38     1        0.102747   396678.671045    ;  uncertainty r = 0.000023, k = 7.189290
        23        43     1        0.102747   396678.671045    ;  uncertainty r = 0.000023, k = 7.189290
        24        25     1        0.152778   209565.831860    ;  uncertainty r = 0.000076, k = 8.723425
        24        39     1        0.109150   311239.062061    ;  uncertainty r = 0.000020, k = 2.086452
        24        40     1        0.109150   311239.062061    ;  uncertainty r = 0.000020, k = 2.086452
        25        41     1        0.109469   310158.459277    ;  uncertainty r = 0.000019, k = 1.280487
        25        42     1        0.109469   310158.459277    ;  uncertainty r = 0.000019, k = 1.280487

[ angles ]
;       ai        aj        ak funct           theta             cth
         1         2         4     1      117.744827      375.038371    ;  uncertainty theta = 0.007887, k = 0.205196
         1         2         5     1      117.263992      443.791292    ;  uncertainty theta = 0.006630, k = 0.221674
         1         3         6     1      118.714645      473.837808    ;  uncertainty theta = 0.003009, k = 0.214435
         1         3        26     1      120.782410      273.280205    ;  uncertainty theta = 0.004767, k = 0.121787
         2         1         3     1      123.384987      405.510814    ;  uncertainty theta = 0.003663, k = 0.269021
         2         1        18     1      116.970627      448.960514    ;  uncertainty theta = 0.003390, k = 0.306091
         2         4         7     1      123.777054      431.139634    ;  uncertainty theta = 0.003024, k = 0.248224
         2         4         8     1      116.226151      476.951580    ;  uncertainty theta = 0.007098, k = 0.203932
         2         5        11     1      115.432571      416.249392    ;  uncertainty theta = 0.005281, k = 0.434298
         3         1        18     1      118.929054      522.626456    ;  uncertainty theta = 0.003210, k = 0.216028
         3         6         7     1      124.448891      390.388568    ;  uncertainty theta = 0.005139, k = 0.304870
         3         6        19     1      117.960777      499.747089    ;  uncertainty theta = 0.001896, k = 0.065673
         4         2         5     1      124.657120      556.921198    ;  uncertainty theta = 0.005473, k = 0.108220
         4         7         6     1      117.725159      469.227530    ;  uncertainty theta = 0.002239, k = 0.079084
         4         7        27     1      120.750771      247.884028    ;  uncertainty theta = 0.005394, k = 0.134251
         4         8         9     1      109.045425      384.072571    ;  uncertainty theta = 0.007548, k = 0.210556
         4         8        10     1      127.897461      511.435073    ;  uncertainty theta = 0.003238, k = 0.180439
         5        11         9     1      123.779724      676.575196    ;  uncertainty theta = 0.005829, k = 0.165399
         5        11        12     1      122.566589      443.445712    ;  uncertainty theta = 0.003843, k = 0.198254
         6         3        26     1      121.863022      278.649095    ;  uncertainty theta = 0.003311, k = 0.036104
         6         7        27     1      121.826523      283.668924    ;  uncertainty theta = 0.002314, k = 0.098165
         7         4         8     1      117.815475      397.822261    ;  uncertainty theta = 0.001960, k = 0.167842
         7         6        19     1      119.169388      495.113636    ;  uncertainty theta = 0.001298, k = 0.075437
         8         9        11     1      120.993088      495.952626    ;  uncertainty theta = 0.003553, k = 0.168138
         8         9        28     1      115.238609      352.064613    ;  uncertainty theta = 0.007103, k = 0.130000
         9         8        10     1      125.034592      819.476774    ;  uncertainty theta = 0.003392, k = 0.064961
         9        11        12     1      116.704002      515.092115    ;  uncertainty theta = 0.004672, k = 0.263151
        11         9        28     1      116.773087      330.788817    ;  uncertainty theta = 0.006546, k = 0.196820
        11        12        13     1      117.806412      401.217356    ;  uncertainty theta = 0.002897, k = 0.112826
        11        12        17     1      117.806412      401.217356    ;  uncertainty theta = 0.002897, k = 0.112826
        12        13        14     1      121.711082      516.675479    ;  uncertainty theta = 0.001231, k = 0.077801
        12        13        29     1      118.310974      266.861165    ;  uncertainty theta = 0.002482, k = 0.057906
        12        17        16     1      121.711082      516.675479    ;  uncertainty theta = 0.001231, k = 0.077801
        12        17        32     1      118.310974      266.861165    ;  uncertainty theta = 0.002482, k = 0.057906
        13        12        17     1      121.022133      428.244588    ;  uncertainty theta = 0.000967, k = 0.212766
        13        14        15     1      121.699829      515.668870    ;  uncertainty theta = 0.003167, k = 0.049813
        13        14        30     1      119.700317      288.613643    ;  uncertainty theta = 0.000946, k = 0.021267
        14        13        29     1      120.172897      286.253918    ;  uncertainty theta = 0.001666, k = 0.059245
        14        15        16     1      119.174217      459.343392    ;  uncertainty theta = 0.003352, k = 0.190066
        14        15        20     1      120.338966      409.992322    ;  uncertainty theta = 0.002335, k = 0.177498
        15        14        30     1      118.644432      266.230702    ;  uncertainty theta = 0.001179, k = 0.061174
        15        16        17     1      121.699829      515.668870    ;  uncertainty theta = 0.003167, k = 0.049813
        15        16        31     1      118.644432      266.230718    ;  uncertainty theta = 0.001179, k = 0.061174
        15        20        21     1      111.062607      565.903493    ;  uncertainty theta = 0.002942, k = 0.067695
        15        20        25     1      111.062607      565.903493    ;  uncertainty theta = 0.002942, k = 0.067695
        15        20        33     1      105.615257      405.737105    ;  uncertainty theta = 0.002779, k = 0.073339
        16        15        20     1      120.338966      409.992322    ;  uncertainty theta = 0.002335, k = 0.177498
        16        17        32     1      120.172897      286.253918    ;  uncertainty theta = 0.001666, k = 0.059245
        17        16        31     1      119.700317      288.613643    ;  uncertainty theta = 0.000946, k = 0.021267
        20        21        22     1      110.618484      591.227304    ;  uncertainty theta = 0.001999, k = 0.160601
        20        21        34     1      108.772133      395.524464    ;  uncertainty theta = 0.000899, k = 0.028918
        20        21        35     1      108.772133      395.524464    ;  uncertainty theta = 0.000899, k = 0.028918
        20        25        24     1      110.618484      591.227240    ;  uncertainty theta = 0.001999, k = 0.160601
        20        25        41     1      108.772133      395.524496    ;  uncertainty theta = 0.000899, k = 0.028919
        20        25        42     1      108.772133      395.524560    ;  uncertainty theta = 0.000899, k = 0.028919
        21        20        25     1      108.373047      611.100793    ;  uncertainty theta = 0.003942, k = 0.201603
        21        20        33     1      107.006302      404.998540    ;  uncertainty theta = 0.001907, k = 0.120289
        21        22        23     1      110.081383      758.893813    ;  uncertainty theta = 0.002319, k = 0.097991
        21        22        36     1      111.200783      409.399637    ;  uncertainty theta = 0.001898, k = 0.082631
        21        22        37     1      111.200783      409.399637    ;  uncertainty theta = 0.001898, k = 0.082631
        22        21        34     1      107.254921      415.684448    ;  uncertainty theta = 0.001372, k = 0.051245
        22        21        35     1      107.254921      415.684448    ;  uncertainty theta = 0.001372, k = 0.051245
        22        23        24     1      113.524612      637.265668    ;  uncertainty theta = 0.007952, k = 0.368086
        22        23        38     1      108.396484      440.595579    ;  uncertainty theta = 0.002950, k = 0.142879
        22        23        43     1      108.396500      440.595579    ;  uncertainty theta = 0.002950, k = 0.142879
        23        22        36     1      106.594482      478.836027    ;  uncertainty theta = 0.001043, k = 0.163740
        23        22        37     1      106.594482      478.836027    ;  uncertainty theta = 0.001043, k = 0.163740
        23        24        25     1      110.081375      758.893813    ;  uncertainty theta = 0.002319, k = 0.097991
        23        24        39     1      106.594482      478.836027    ;  uncertainty theta = 0.001043, k = 0.163741
        23        24        40     1      106.594482      478.836027    ;  uncertainty theta = 0.001043, k = 0.163741
        24        23        38     1      108.396500      440.595579    ;  uncertainty theta = 0.002950, k = 0.142879
        24        23        43     1      108.396500      440.595579    ;  uncertainty theta = 0.002950, k = 0.142879
        24        25        41     1      107.254906      415.684448    ;  uncertainty theta = 0.001372, k = 0.051245
        24        25        42     1      107.254906      415.684448    ;  uncertainty theta = 0.001372, k = 0.051245
        25        20        33     1      107.006302      404.998572    ;  uncertainty theta = 0.001907, k = 0.120289
        25        24        39     1      111.200783      409.399637    ;  uncertainty theta = 0.001898, k = 0.082631
        25        24        40     1      111.200783      409.399637    ;  uncertainty theta = 0.001898, k = 0.082631
        34        21        35     1      105.353188      318.679535    ;  uncertainty theta = 0.001581, k = 0.051871
        36        22        37     1      107.758751      327.864563    ;  uncertainty theta = 0.001594, k = 0.074938
        38        23        43     1      105.795883      382.024143    ;  uncertainty theta = 0.003872, k = 0.246132
        39        24        40     1      107.758751      327.864563    ;  uncertainty theta = 0.001594, k = 0.074938
        41        25        42     1      105.353188      318.679567    ;  uncertainty theta = 0.001581, k = 0.051872

[ dihedrals ] ; propers for gromacs 4.5 or higher, use funct 9
;       ai        aj        ak        al funct           phase               k        pn
         1         2         4         7     9        0.000000       -0.119945         1    ;  uncertainty k = 0.321599
         1         2         4         7     9      180.000000        6.334920         2    ;  uncertainty k = 0.618600
         1         2         4         7     9        0.000000        0.487171         3    ;  uncertainty k = 0.287025
         1         2         4         7     9      180.000000        1.510989         4    ;  uncertainty k = 0.193202
         1         2         4         8     9        0.000000        0.179315         1    ;  uncertainty k = 0.860542
         1         2         4         8     9      180.000000        5.867726         2    ;  uncertainty k = 0.894966
         1         2         4         8     9        0.000000        1.133310         3    ;  uncertainty k = 0.285482
         1         2         4         8     9      180.000000        1.529973         4    ;  uncertainty k = 0.197310
         1         2         5        11     9        0.000000        2.260542         1    ;  uncertainty k = 2.728316
         1         2         5        11     9      180.000000        4.830946         2    ;  uncertainty k = 1.772993
         1         2         5        11     9        0.000000        2.277562         3    ;  uncertainty k = 0.535712
         1         2         5        11     9      180.000000        0.254026         4    ;  uncertainty k = 0.475068
         1         3         6         7     9        0.000000       -0.130056         1    ;  uncertainty k = 0.400721
         1         3         6         7     9      180.000000        6.551236         2    ;  uncertainty k = 0.526580
         1         3         6         7     9        0.000000        0.105622         3    ;  uncertainty k = 0.506871
         1         3         6         7     9      180.000000        1.359340         4    ;  uncertainty k = 0.210112
         1         3         6        19     9        0.000000       -0.015259         1    ;  uncertainty k = 0.285854
         1         3         6        19     9      180.000000       10.935275         2    ;  uncertainty k = 0.649794
         1         3         6        19     9        0.000000        1.564824         3    ;  uncertainty k = 0.538907
         1         3         6        19     9      180.000000        1.585085         4    ;  uncertainty k = 0.346099
         2         1         3         6     9        0.000000        0.179077         1    ;  uncertainty k = 0.177748
         2         1         3         6     9      180.000000        9.645049         2    ;  uncertainty k = 0.327641
         2         1         3         6     9        0.000000        0.633373         3    ;  uncertainty k = 0.588154
         2         1         3         6     9      180.000000        1.513584         4    ;  uncertainty k = 0.188099
         2         1         3        26     9        0.000000        0.159089         1    ;  uncertainty k = 0.645460
         2         1         3        26     9      180.000000        7.108974         2    ;  uncertainty k = 0.686914
         2         1         3        26     9        0.000000        1.385932         3    ;  uncertainty k = 0.337265
         2         1         3        26     9      180.000000        1.535377         4    ;  uncertainty k = 0.179660
         2         4         7         6     9        0.000000        0.014010         1    ;  uncertainty k = 0.366077
         2         4         7         6     9      180.000000       11.746040         2    ;  uncertainty k = 0.441415
         2         4         7         6     9        0.000000       -0.167563         3    ;  uncertainty k = 0.292359
         2         4         7         6     9      180.000000        1.146326         4    ;  uncertainty k = 0.219417
         2         4         7        27     9        0.000000        0.092152         1    ;  uncertainty k = 0.592058
         2         4         7        27     9      180.000000        7.164964         2    ;  uncertainty k = 0.858959
         2         4         7        27     9        0.000000        1.344947         3    ;  uncertainty k = 0.280699
         2         4         7        27     9      180.000000        1.458862         4    ;  uncertainty k = 0.097316
         2         4         8         9     9        0.000000       -1.181459         1    ;  uncertainty k = 1.070487
         2         4         8         9     9      180.000000        2.463369         2    ;  uncertainty k = 1.046448
         2         4         8         9     9        0.000000       -0.224760         3    ;  uncertainty k = 0.544072
         2         4         8         9     9      180.000000        0.547120         4    ;  uncertainty k = 0.273698
         2         4         8        10     9        0.000000       -2.476877         1    ;  uncertainty k = 1.390257
         2         4         8        10     9      180.000000        5.173705         2    ;  uncertainty k = 0.758326
         2         4         8        10     9        0.000000        0.280323         3    ;  uncertainty k = 0.203572
         2         4         8        10     9      180.000000       -0.084180         4    ;  uncertainty k = 0.186540
         2         5        11         9     9        0.000000       -0.694127         1    ;  uncertainty k = 0.359360
         2         5        11         9     9      180.000000       23.709183         2    ;  uncertainty k = 0.142858
         2         5        11         9     9        0.000000        1.868776         3    ;  uncertainty k = 0.172481
         2         5        11         9     9      180.000000        1.515772         4    ;  uncertainty k = 0.471701
         2         5        11        12     9        0.000000       -0.304879         1    ;  uncertainty k = 0.567738
         2         5        11        12     9      180.000000       18.990209         2    ;  uncertainty k = 0.458872
         2         5        11        12     9        0.000000        2.811517         3    ;  uncertainty k = 0.430940
         2         5        11        12     9      180.000000        1.384047         4    ;  uncertainty k = 0.402463
         3         1         2         4     9        0.000000       -0.522036         1    ;  uncertainty k = 0.980944
         3         1         2         4     9      180.000000        4.625502         2    ;  uncertainty k = 1.419399
         3         1         2         4     9        0.000000        0.136906         3    ;  uncertainty k = 0.174451
         3         1         2         4     9      180.000000        1.017336         4    ;  uncertainty k = 0.325374
         3         1         2         5     9        0.000000       -0.071661         1    ;  uncertainty k = 0.319971
         3         1         2         5     9      180.000000        6.616975         2    ;  uncertainty k = 0.478036
         3         1         2         5     9        0.000000        0.855774         3    ;  uncertainty k = 0.085981
         3         1         2         5     9      180.000000        1.402437         4    ;  uncertainty k = 0.250653
         3         6         7         4     9        0.000000        0.024750         1    ;  uncertainty k = 0.387263
         3         6         7         4     9      180.000000        8.635741         2    ;  uncertainty k = 0.467336
         3         6         7         4     9        0.000000        0.381751         3    ;  uncertainty k = 0.463622
         3         6         7         4     9      180.000000        1.355304         4    ;  uncertainty k = 0.420257
         3         6         7        27     9        0.000000        0.087240         1    ;  uncertainty k = 0.215355
         3         6         7        27     9      180.000000        6.193115         2    ;  uncertainty k = 0.603394
         3         6         7        27     9        0.000000        1.432634         3    ;  uncertainty k = 0.306539
         3         6         7        27     9      180.000000        1.635532         4    ;  uncertainty k = 0.064361
         4         2         1        18     9        0.000000       -0.052797         1    ;  uncertainty k = 0.930529
         4         2         1        18     9      180.000000        7.465507         2    ;  uncertainty k = 0.328543
         4         2         1        18     9        0.000000        1.428014         3    ;  uncertainty k = 0.279225
         4         2         1        18     9      180.000000        1.405913         4    ;  uncertainty k = 0.128499
         4         2         5        11     9        0.000000        1.623278         1    ;  uncertainty k = 1.880305
         4         2         5        11     9      180.000000        3.662316         2    ;  uncertainty k = 1.743484
         4         2         5        11     9        0.000000        1.569747         3    ;  uncertainty k = 0.589847
         4         2         5        11     9      180.000000        0.371282         4    ;  uncertainty k = 0.515571
         4         7         6        19     9        0.000000        0.048199         1    ;  uncertainty k = 0.284658
         4         7         6        19     9      180.000000       14.172628         2    ;  uncertainty k = 0.077877
         4         7         6        19     9        0.000000        1.411333         3    ;  uncertainty k = 0.294366
         4         7         6        19     9      180.000000        1.327511         4    ;  uncertainty k = 0.029473
         4         8         9        11     9        0.000000        0.242136         1    ;  uncertainty k = 1.389041
         4         8         9        11     9      180.000000        3.935945         2    ;  uncertainty k = 1.125120
         4         8         9        11     9        0.000000        0.662448         3    ;  uncertainty k = 0.191552
         4         8         9        11     9      180.000000        0.483134         4    ;  uncertainty k = 0.352806
         4         8         9        28     9        0.000000        2.434358         1    ;  uncertainty k = 2.418488
         4         8         9        28     9      180.000000        5.313313         2    ;  uncertainty k = 0.917383
         4         8         9        28     9        0.000000        1.846186         3    ;  uncertainty k = 0.184920
         4         8         9        28     9      180.000000       -0.014345         4    ;  uncertainty k = 0.077603
         5         2         1        18     9        0.000000        0.092192         1    ;  uncertainty k = 0.578328
         5         2         1        18     9      180.000000       10.792431         2    ;  uncertainty k = 0.377364
         5         2         1        18     9        0.000000        1.152433         3    ;  uncertainty k = 0.601042
         5         2         1        18     9      180.000000        1.216222         4    ;  uncertainty k = 0.326307
         5         2         4         7     9        0.000000        0.031818         1    ;  uncertainty k = 0.442176
         5         2         4         7     9      180.000000        8.057702         2    ;  uncertainty k = 0.583175
         5         2         4         7     9        0.000000        0.776359         3    ;  uncertainty k = 0.187004
         5         2         4         7     9      180.000000        1.528243         4    ;  uncertainty k = 0.242962
         5         2         4         8     9        0.000000       -0.424619         1    ;  uncertainty k = 0.802997
         5         2         4         8     9      180.000000        7.018599         2    ;  uncertainty k = 0.957149
         5         2         4         8     9        0.000000        0.968565         3    ;  uncertainty k = 0.353747
         5         2         4         8     9      180.000000        1.563660         4    ;  uncertainty k = 0.258961
         5        11         9         8     9        0.000000        0.100886         1    ;  uncertainty k = 0.844233
         5        11         9         8     9      180.000000        7.171150         2    ;  uncertainty k = 0.728116
         5        11         9         8     9        0.000000        0.615717         3    ;  uncertainty k = 0.699118
         5        11         9         8     9      180.000000        0.385246         4    ;  uncertainty k = 0.202044
         5        11         9        28     9        0.000000        5.753506         1    ;  uncertainty k = 1.631050
         5        11         9        28     9      180.000000       11.092402         2    ;  uncertainty k = 0.684858
         5        11         9        28     9        0.000000        1.234597         3    ;  uncertainty k = 0.617876
         5        11         9        28     9      180.000000       -0.243901         4    ;  uncertainty k = 0.151536
         5        11        12        13     9        0.000000        0.805140         1    ;  uncertainty k = 0.754433
         5        11        12        13     9      180.000000        4.102089         2    ;  uncertainty k = 0.360320
         5        11        12        13     9        0.000000        0.568747         3    ;  uncertainty k = 0.180362
         5        11        12        13     9      180.000000       -0.132516         4    ;  uncertainty k = 0.156288
         5        11        12        17     9        0.000000        0.805140         1    ;  uncertainty k = 0.754433
         5        11        12        17     9      180.000000        4.102089         2    ;  uncertainty k = 0.360320
         5        11        12        17     9        0.000000        0.568747         3    ;  uncertainty k = 0.180362
         5        11        12        17     9      180.000000       -0.132516         4    ;  uncertainty k = 0.156288
         6         3         1        18     9        0.000000        0.212637         1    ;  uncertainty k = 0.271758
         6         3         1        18     9      180.000000       14.944913         2    ;  uncertainty k = 0.510200
         6         3         1        18     9        0.000000        1.489431         3    ;  uncertainty k = 0.330092
         6         3         1        18     9      180.000000        1.381237         4    ;  uncertainty k = 0.396033
         6         7         4         8     9        0.000000        0.172855         1    ;  uncertainty k = 0.268341
         6         7         4         8     9      180.000000        8.954843         2    ;  uncertainty k = 0.660101
         6         7         4         8     9        0.000000        1.401850         3    ;  uncertainty k = 0.221223
         6         7         4         8     9      180.000000        1.862521         4    ;  uncertainty k = 0.211415
         7         4         8         9     9        0.000000        0.341659         1    ;  uncertainty k = 0.752740
         7         4         8         9     9      180.000000        2.880396         2    ;  uncertainty k = 0.583144
         7         4         8         9     9        0.000000        0.684635         3    ;  uncertainty k = 0.416908
         7         4         8         9     9      180.000000        0.515685         4    ;  uncertainty k = 0.262665
         7         4         8        10     9        0.000000       -2.096385         1    ;  uncertainty k = 0.471531
         7         4         8        10     9      180.000000        5.253328         2    ;  uncertainty k = 0.608331
         7         4         8        10     9        0.000000        0.502590         3    ;  uncertainty k = 0.280250
         7         4         8        10     9      180.000000       -0.106343         4    ;  uncertainty k = 0.098030
         7         6         3        26     9        0.000000        0.074540         1    ;  uncertainty k = 0.345516
         7         6         3        26     9      180.000000        5.243380         2    ;  uncertainty k = 0.758106
         7         6         3        26     9        0.000000        1.197902         3    ;  uncertainty k = 0.215952
         7         6         3        26     9      180.000000        1.376410         4    ;  uncertainty k = 0.176021
         8         4         7        27     9        0.000000       -0.369523         1    ;  uncertainty k = 0.752824
         8         4         7        27     9      180.000000        7.637346         2    ;  uncertainty k = 0.396508
         8         4         7        27     9        0.000000        0.953257         3    ;  uncertainty k = 0.245527
         8         4         7        27     9      180.000000        1.186756         4    ;  uncertainty k = 0.153529
         8         9        11        12     9        0.000000        1.215102         1    ;  uncertainty k = 0.788262
         8         9        11        12     9      180.000000        5.418533         2    ;  uncertainty k = 0.791601
         8         9        11        12     9        0.000000        0.552956         3    ;  uncertainty k = 0.341631
         8         9        11        12     9      180.000000       -0.096082         4    ;  uncertainty k = 0.323075
         9        11        12        13     9        0.000000       -0.018556         1    ;  uncertainty k = 0.367622
         9        11        12        13     9      180.000000        4.182570         2    ;  uncertainty k = 0.396155
         9        11        12        13     9        0.000000        0.562156         3    ;  uncertainty k = 0.122503
         9        11        12        13     9      180.000000       -0.116289         4    ;  uncertainty k = 0.038189
         9        11        12        17     9        0.000000       -0.018556         1    ;  uncertainty k = 0.367622
         9        11        12        17     9      180.000000        4.182570         2    ;  uncertainty k = 0.396155
         9        11        12        17     9        0.000000        0.562156         3    ;  uncertainty k = 0.122503
         9        11        12        17     9      180.000000       -0.116289         4    ;  uncertainty k = 0.038189
        10         8         9        11     9        0.000000        0.122345         1    ;  uncertainty k = 1.277905
        10         8         9        11     9      180.000000       11.176859         2    ;  uncertainty k = 0.488284
        10         8         9        11     9        0.000000        1.313185         3    ;  uncertainty k = 0.386331
        10         8         9        11     9      180.000000       -0.503685         4    ;  uncertainty k = 0.423563
        10         8         9        28     9        0.000000        1.545795         1    ;  uncertainty k = 2.519145
        10         8         9        28     9      180.000000        9.292190         2    ;  uncertainty k = 0.602286
        10         8         9        28     9        0.000000        0.727520         3    ;  uncertainty k = 0.510606
        10         8         9        28     9      180.000000       -0.121427         4    ;  uncertainty k = 0.059269
        11        12        13        14     9        0.000000        0.092785         1    ;  uncertainty k = 0.200130
        11        12        13        14     9      180.000000        8.997776         2    ;  uncertainty k = 0.604308
        11        12        13        14     9        0.000000        1.319465         3    ;  uncertainty k = 0.254201
        11        12        13        14     9      180.000000        1.718781         4    ;  uncertainty k = 0.207195
        11        12        13        29     9        0.000000       -0.290893         1    ;  uncertainty k = 0.152625
        11        12        13        29     9      180.000000        7.179402         2    ;  uncertainty k = 0.245823
        11        12        13        29     9        0.000000        0.713525         3    ;  uncertainty k = 0.190488
        11        12        13        29     9      180.000000        1.059650         4    ;  uncertainty k = 0.170630
        11        12        17        16     9        0.000000        0.092785         1    ;  uncertainty k = 0.200130
        11        12        17        16     9      180.000000        8.997776         2    ;  uncertainty k = 0.604308
        11        12        17        16     9        0.000000        1.319465         3    ;  uncertainty k = 0.254201
        11        12        17        16     9      180.000000        1.718781         4    ;  uncertainty k = 0.207195
        11        12        17        32     9        0.000000       -0.290893         1    ;  uncertainty k = 0.152625
        11        12        17        32     9      180.000000        7.179402         2    ;  uncertainty k = 0.245823
        11        12        17        32     9        0.000000        0.713525         3    ;  uncertainty k = 0.190488
        11        12        17        32     9      180.000000        1.059650         4    ;  uncertainty k = 0.170630
        12        11         9        28     9        0.000000        0.911210         1    ;  uncertainty k = 0.194932
        12        11         9        28     9      180.000000        4.793165         2    ;  uncertainty k = 0.891808
        12        11         9        28     9        0.000000        1.369262         3    ;  uncertainty k = 0.264202
        12        11         9        28     9      180.000000       -0.082819         4    ;  uncertainty k = 0.261156
        12        13        14        15     9        0.000000       -0.157190         1    ;  uncertainty k = 0.331545
        12        13        14        15     9      180.000000       12.892641         2    ;  uncertainty k = 0.235323
        12        13        14        15     9        0.000000       -0.731767         3    ;  uncertainty k = 0.477532
        12        13        14        15     9      180.000000        0.862237         4    ;  uncertainty k = 0.247524
        12        13        14        30     9        0.000000        0.090811         1    ;  uncertainty k = 0.102091
        12        13        14        30     9      180.000000        8.136184         2    ;  uncertainty k = 0.296933
        12        13        14        30     9        0.000000        1.435449         3    ;  uncertainty k = 0.234663
        12        13        14        30     9      180.000000        1.865610         4    ;  uncertainty k = 0.190535
        12        17        16        15     9        0.000000       -0.157190         1    ;  uncertainty k = 0.331545
        12        17        16        15     9      180.000000       12.892641         2    ;  uncertainty k = 0.235323
        12        17        16        15     9        0.000000       -0.731767         3    ;  uncertainty k = 0.477532
        12        17        16        15     9      180.000000        0.862237         4    ;  uncertainty k = 0.247524
        12        17        16        31     9        0.000000        0.090811         1    ;  uncertainty k = 0.102091
        12        17        16        31     9      180.000000        8.136184         2    ;  uncertainty k = 0.296933
        12        17        16        31     9        0.000000        1.435449         3    ;  uncertainty k = 0.234663
        12        17        16        31     9      180.000000        1.865610         4    ;  uncertainty k = 0.190535
        13        12        17        16     9        0.000000        0.079774         1    ;  uncertainty k = 0.115158
        13        12        17        16     9      180.000000       10.977376         2    ;  uncertainty k = 0.295190
        13        12        17        16     9        0.000000       -0.642110         3    ;  uncertainty k = 0.192275
        13        12        17        16     9      180.000000        0.950663         4    ;  uncertainty k = 0.281409
        13        12        17        32     9        0.000000        0.078769         1    ;  uncertainty k = 0.157075
        13        12        17        32     9      180.000000        6.861581         2    ;  uncertainty k = 0.550974
        13        12        17        32     9        0.000000        1.312357         3    ;  uncertainty k = 0.236134
        13        12        17        32     9      180.000000        1.582469         4    ;  uncertainty k = 0.252484
        13        14        15        16     9        0.000000       -0.146579         1    ;  uncertainty k = 0.208420
        13        14        15        16     9      180.000000       11.541385         2    ;  uncertainty k = 0.287084
        13        14        15        16     9        0.000000       -0.440480         3    ;  uncertainty k = 0.211930
        13        14        15        16     9      180.000000        0.825922         4    ;  uncertainty k = 0.299594
        13        14        15        20     9        0.000000        0.083876         1    ;  uncertainty k = 0.351769
        13        14        15        20     9      180.000000        8.379037         2    ;  uncertainty k = 0.377941
        13        14        15        20     9        0.000000        1.435412         3    ;  uncertainty k = 0.410797
        13        14        15        20     9      180.000000        1.863287         4    ;  uncertainty k = 0.139008
        14        13        12        17     9        0.000000        0.079774         1    ;  uncertainty k = 0.115158
        14        13        12        17     9      180.000000       10.977376         2    ;  uncertainty k = 0.295190
        14        13        12        17     9        0.000000       -0.642110         3    ;  uncertainty k = 0.192275
        14        13        12        17     9      180.000000        0.950663         4    ;  uncertainty k = 0.281409
        14        15        16        17     9        0.000000       -0.146579         1    ;  uncertainty k = 0.208420
        14        15        16        17     9      180.000000       11.541385         2    ;  uncertainty k = 0.287084
        14        15        16        17     9        0.000000       -0.440480         3    ;  uncertainty k = 0.211930
        14        15        16        17     9      180.000000        0.825922         4    ;  uncertainty k = 0.299594
        14        15        16        31     9        0.000000        0.004212         1    ;  uncertainty k = 0.205748
        14        15        16        31     9      180.000000        7.240774         2    ;  uncertainty k = 0.357879
        14        15        16        31     9        0.000000        1.426664         3    ;  uncertainty k = 0.338283
        14        15        16        31     9      180.000000        1.612823         4    ;  uncertainty k = 0.179170
        14        15        20        21     9        0.000000       -0.647057         1    ;  uncertainty k = 0.266948
        14        15        20        21     9      180.000000        2.467229         2    ;  uncertainty k = 0.135697
        14        15        20        21     9        0.000000        0.453147         3    ;  uncertainty k = 0.101000
        14        15        20        21     9      180.000000        0.263910         4    ;  uncertainty k = 0.061818
        14        15        20        25     9        0.000000       -0.647058         1    ;  uncertainty k = 0.266948
        14        15        20        25     9      180.000000        2.467230         2    ;  uncertainty k = 0.135698
        14        15        20        25     9        0.000000        0.453146         3    ;  uncertainty k = 0.101000
        14        15        20        25     9      180.000000        0.263909         4    ;  uncertainty k = 0.061818
        14        15        20        33     9        0.000000       -0.292763         1    ;  uncertainty k = 0.385256
        14        15        20        33     9      180.000000        1.780967         2    ;  uncertainty k = 0.205439
        14        15        20        33     9        0.000000        0.544919         3    ;  uncertainty k = 0.106846
        14        15        20        33     9      180.000000        0.334671         4    ;  uncertainty k = 0.048638
        15        14        13        29     9        0.000000       -0.006898         1    ;  uncertainty k = 0.158296
        15        14        13        29     9      180.000000        7.534155         2    ;  uncertainty k = 0.325800
        15        14        13        29     9        0.000000        1.332401         3    ;  uncertainty k = 0.346232
        15        14        13        29     9      180.000000        1.873255         4    ;  uncertainty k = 0.158643
        15        16        17        32     9        0.000000       -0.006898         1    ;  uncertainty k = 0.158296
        15        16        17        32     9      180.000000        7.534155         2    ;  uncertainty k = 0.325800
        15        16        17        32     9        0.000000        1.332401         3    ;  uncertainty k = 0.346232
        15        16        17        32     9      180.000000        1.873255         4    ;  uncertainty k = 0.158643
        15        20        21        22     9        0.000000       -2.832475         1    ;  uncertainty k = 0.581086
        15        20        21        22     9      180.000000        0.222409         2    ;  uncertainty k = 0.295764
        15        20        21        22     9        0.000000        1.015574         3    ;  uncertainty k = 0.202374
        15        20        21        22     9      180.000000       -0.110199         4    ;  uncertainty k = 0.068311
        15        20        21        34     9        0.000000        0.817307         1    ;  uncertainty k = 0.440840
        15        20        21        34     9      180.000000       -0.159434         2    ;  uncertainty k = 0.083444
        15        20        21        34     9        0.000000        0.872655         3    ;  uncertainty k = 0.137786
        15        20        21        34     9      180.000000        0.021967         4    ;  uncertainty k = 0.061137
        15        20        21        35     9        0.000000        0.817307         1    ;  uncertainty k = 0.440840
        15        20        21        35     9      180.000000       -0.159434         2    ;  uncertainty k = 0.083444
        15        20        21        35     9        0.000000        0.872655         3    ;  uncertainty k = 0.137786
        15        20        21        35     9      180.000000        0.021967         4    ;  uncertainty k = 0.061137
        15        20        25        24     9        0.000000       -2.832472         1    ;  uncertainty k = 0.581087
        15        20        25        24     9      180.000000        0.222410         2    ;  uncertainty k = 0.295763
        15        20        25        24     9        0.000000        1.015575         3    ;  uncertainty k = 0.202374
        15        20        25        24     9      180.000000       -0.110199         4    ;  uncertainty k = 0.068312
        15        20        25        41     9        0.000000        0.817307         1    ;  uncertainty k = 0.440839
        15        20        25        41     9      180.000000       -0.159435         2    ;  uncertainty k = 0.083444
        15        20        25        41     9        0.000000        0.872655         3    ;  uncertainty k = 0.137787
        15        20        25        41     9      180.000000        0.021967         4    ;  uncertainty k = 0.061137
        15        20        25        42     9        0.000000        0.817307         1    ;  uncertainty k = 0.440839
        15        20        25        42     9      180.000000       -0.159435         2    ;  uncertainty k = 0.083444
        15        20        25        42     9        0.000000        0.872655         3    ;  uncertainty k = 0.137787
        15        20        25        42     9      180.000000        0.021967         4    ;  uncertainty k = 0.061137
        16        15        14        30     9        0.000000        0.004212         1    ;  uncertainty k = 0.205748
        16        15        14        30     9      180.000000        7.240774         2    ;  uncertainty k = 0.357879
        16        15        14        30     9        0.000000        1.426664         3    ;  uncertainty k = 0.338283
        16        15        14        30     9      180.000000        1.612823         4    ;  uncertainty k = 0.179170
        16        15        20        21     9        0.000000       -0.647057         1    ;  uncertainty k = 0.266948
        16        15        20        21     9      180.000000        2.467229         2    ;  uncertainty k = 0.135697
        16        15        20        21     9        0.000000        0.453147         3    ;  uncertainty k = 0.101000
        16        15        20        21     9      180.000000        0.263910         4    ;  uncertainty k = 0.061818
        16        15        20        25     9        0.000000       -0.647058         1    ;  uncertainty k = 0.266948
        16        15        20        25     9      180.000000        2.467230         2    ;  uncertainty k = 0.135698
        16        15        20        25     9        0.000000        0.453146         3    ;  uncertainty k = 0.101000
        16        15        20        25     9      180.000000        0.263909         4    ;  uncertainty k = 0.061818
        16        15        20        33     9        0.000000       -0.292763         1    ;  uncertainty k = 0.385256
        16        15        20        33     9      180.000000        1.780967         2    ;  uncertainty k = 0.205439
        16        15        20        33     9        0.000000        0.544919         3    ;  uncertainty k = 0.106846
        16        15        20        33     9      180.000000        0.334671         4    ;  uncertainty k = 0.048638
        17        12        13        29     9        0.000000        0.078769         1    ;  uncertainty k = 0.157075
        17        12        13        29     9      180.000000        6.861581         2    ;  uncertainty k = 0.550974
        17        12        13        29     9        0.000000        1.312357         3    ;  uncertainty k = 0.236134
        17        12        13        29     9      180.000000        1.582469         4    ;  uncertainty k = 0.252484
        17        16        15        20     9        0.000000        0.083876         1    ;  uncertainty k = 0.351769
        17        16        15        20     9      180.000000        8.379037         2    ;  uncertainty k = 0.377941
        17        16        15        20     9        0.000000        1.435412         3    ;  uncertainty k = 0.410797
        17        16        15        20     9      180.000000        1.863287         4    ;  uncertainty k = 0.139008
        18         1         3        26     9        0.000000       -0.298583         1    ;  uncertainty k = 0.349027
        18         1         3        26     9      180.000000       10.799949         2    ;  uncertainty k = 0.406755
        18         1         3        26     9        0.000000        1.018938         3    ;  uncertainty k = 0.250366
        18         1         3        26     9      180.000000        1.225121         4    ;  uncertainty k = 0.361142
        19         6         3        26     9        0.000000       -0.129263         1    ;  uncertainty k = 0.390558
        19         6         3        26     9      180.000000        8.272394         2    ;  uncertainty k = 0.350808
        19         6         3        26     9        0.000000        0.776690         3    ;  uncertainty k = 0.296456
        19         6         3        26     9      180.000000        0.987497         4    ;  uncertainty k = 0.192836
        19         6         7        27     9        0.000000       -0.386407         1    ;  uncertainty k = 0.252002
        19         6         7        27     9      180.000000        9.760304         2    ;  uncertainty k = 0.456352
        19         6         7        27     9        0.000000        0.949469         3    ;  uncertainty k = 0.225793
        19         6         7        27     9      180.000000        1.004391         4    ;  uncertainty k = 0.195808
        20        15        14        30     9        0.000000       -0.160687         1    ;  uncertainty k = 0.267164
        20        15        14        30     9      180.000000        7.517083         2    ;  uncertainty k = 0.310469
        20        15        14        30     9        0.000000        0.694925         3    ;  uncertainty k = 0.313651
        20        15        14        30     9      180.000000        0.987584         4    ;  uncertainty k = 0.108990
        20        15        16        31     9        0.000000       -0.160687         1    ;  uncertainty k = 0.267164
        20        15        16        31     9      180.000000        7.517083         2    ;  uncertainty k = 0.310469
        20        15        16        31     9        0.000000        0.694925         3    ;  uncertainty k = 0.313651
        20        15        16        31     9      180.000000        0.987584         4    ;  uncertainty k = 0.108990
        20        21        22        23     9        0.000000       -1.643550         1    ;  uncertainty k = 0.751986
        20        21        22        23     9      180.000000       -2.600630         2    ;  uncertainty k = 0.809157
        20        21        22        23     9        0.000000        1.691398         3    ;  uncertainty k = 0.248709
        20        21        22        23     9      180.000000       -0.771882         4    ;  uncertainty k = 0.258134
        20        21        22        36     9        0.000000        0.690690         1    ;  uncertainty k = 0.612029
        20        21        22        36     9      180.000000       -1.061936         2    ;  uncertainty k = 0.190460
        20        21        22        36     9        0.000000        0.464704         3    ;  uncertainty k = 0.151946
        20        21        22        36     9      180.000000        0.145208         4    ;  uncertainty k = 0.071072
        20        21        22        37     9        0.000000        0.690690         1    ;  uncertainty k = 0.612029
        20        21        22        37     9      180.000000       -1.061936         2    ;  uncertainty k = 0.190460
        20        21        22        37     9        0.000000        0.464704         3    ;  uncertainty k = 0.151946
        20        21        22        37     9      180.000000        0.145208         4    ;  uncertainty k = 0.071072
        20        25        24        23     9        0.000000       -1.643552         1    ;  uncertainty k = 0.751985
        20        25        24        23     9      180.000000       -2.600632         2    ;  uncertainty k = 0.809158
        20        25        24        23     9        0.000000        1.691398         3    ;  uncertainty k = 0.248709
        20        25        24        23     9      180.000000       -0.771882         4    ;  uncertainty k = 0.258134
        20        25        24        39     9        0.000000        0.690690         1    ;  uncertainty k = 0.612031
        20        25        24        39     9      180.000000       -1.061936         2    ;  uncertainty k = 0.190460
        20        25        24        39     9        0.000000        0.464704         3    ;  uncertainty k = 0.151946
        20        25        24        39     9      180.000000        0.145208         4    ;  uncertainty k = 0.071071
        20        25        24        40     9        0.000000        0.690690         1    ;  uncertainty k = 0.612031
        20        25        24        40     9      180.000000       -1.061936         2    ;  uncertainty k = 0.190460
        20        25        24        40     9        0.000000        0.464704         3    ;  uncertainty k = 0.151946
        20        25        24        40     9      180.000000        0.145208         4    ;  uncertainty k = 0.071071
        21        20        25        24     9        0.000000       -4.813388         1    ;  uncertainty k = 1.033952
        21        20        25        24     9      180.000000        0.532429         2    ;  uncertainty k = 1.031083
        21        20        25        24     9        0.000000        1.287770         3    ;  uncertainty k = 0.177826
        21        20        25        24     9      180.000000       -1.064692         4    ;  uncertainty k = 0.156207
        21        20        25        41     9        0.000000       -1.637703         1    ;  uncertainty k = 0.266489
        21        20        25        41     9      180.000000       -0.262328         2    ;  uncertainty k = 0.235722
        21        20        25        41     9        0.000000        0.319991         3    ;  uncertainty k = 0.177564
        21        20        25        41     9      180.000000       -0.078813         4    ;  uncertainty k = 0.101123
        21        20        25        42     9        0.000000       -1.637703         1    ;  uncertainty k = 0.266489
        21        20        25        42     9      180.000000       -0.262328         2    ;  uncertainty k = 0.235722
        21        20        25        42     9        0.000000        0.319991         3    ;  uncertainty k = 0.177564
        21        20        25        42     9      180.000000       -0.078813         4    ;  uncertainty k = 0.101123
        21        22        23        24     9        0.000000       -1.378011         1    ;  uncertainty k = 0.661366
        21        22        23        24     9      180.000000       -0.056866         2    ;  uncertainty k = 0.533186
        21        22        23        24     9        0.000000        0.814214         3    ;  uncertainty k = 0.333026
        21        22        23        24     9      180.000000       -0.430987         4    ;  uncertainty k = 0.338177
        21        22        23        38     9        0.000000       -1.014339         1    ;  uncertainty k = 0.401735
        21        22        23        38     9      180.000000       -0.191792         2    ;  uncertainty k = 0.299853
        21        22        23        38     9        0.000000        0.571726         3    ;  uncertainty k = 0.133966
        21        22        23        38     9      180.000000       -0.121031         4    ;  uncertainty k = 0.132458
        21        22        23        43     9        0.000000       -1.014339         1    ;  uncertainty k = 0.401735
        21        22        23        43     9      180.000000       -0.191792         2    ;  uncertainty k = 0.299853
        21        22        23        43     9        0.000000        0.571726         3    ;  uncertainty k = 0.133966
        21        22        23        43     9      180.000000       -0.121031         4    ;  uncertainty k = 0.132458
        22        21        20        25     9        0.000000       -4.813387         1    ;  uncertainty k = 1.033950
        22        21        20        25     9      180.000000        0.532430         2    ;  uncertainty k = 1.031084
        22        21        20        25     9        0.000000        1.287769         3    ;  uncertainty k = 0.177825
        22        21        20        25     9      180.000000       -1.064692         4    ;  uncertainty k = 0.156208
        22        21        20        33     9        0.000000       -2.131754         1    ;  uncertainty k = 0.381546
        22        21        20        33     9      180.000000       -0.694135         2    ;  uncertainty k = 0.450563
        22        21        20        33     9        0.000000        0.225149         3    ;  uncertainty k = 0.131976
        22        21        20        33     9      180.000000       -0.165997         4    ;  uncertainty k = 0.072041
        22        23        24        25     9        0.000000       -1.378011         1    ;  uncertainty k = 0.661365
        22        23        24        25     9      180.000000       -0.056867         2    ;  uncertainty k = 0.533188
        22        23        24        25     9        0.000000        0.814213         3    ;  uncertainty k = 0.333025
        22        23        24        25     9      180.000000       -0.430986         4    ;  uncertainty k = 0.338177
        22        23        24        39     9        0.000000       -0.415487         1    ;  uncertainty k = 0.893735
        22        23        24        39     9      180.000000       -0.788066         2    ;  uncertainty k = 0.370061
        22        23        24        39     9        0.000000        0.547163         3    ;  uncertainty k = 0.162173
        22        23        24        39     9      180.000000        0.009112         4    ;  uncertainty k = 0.250746
        22        23        24        40     9        0.000000       -0.415487         1    ;  uncertainty k = 0.893735
        22        23        24        40     9      180.000000       -0.788066         2    ;  uncertainty k = 0.370061
        22        23        24        40     9        0.000000        0.547163         3    ;  uncertainty k = 0.162173
        22        23        24        40     9      180.000000        0.009112         4    ;  uncertainty k = 0.250746
        23        22        21        34     9        0.000000       -1.007347         1    ;  uncertainty k = 0.422021
        23        22        21        34     9      180.000000       -1.726119         2    ;  uncertainty k = 0.643628
        23        22        21        34     9        0.000000        0.764711         3    ;  uncertainty k = 0.104551
        23        22        21        34     9      180.000000       -0.118816         4    ;  uncertainty k = 0.160220
        23        22        21        35     9        0.000000       -1.007347         1    ;  uncertainty k = 0.422021
        23        22        21        35     9      180.000000       -1.726119         2    ;  uncertainty k = 0.643628
        23        22        21        35     9        0.000000        0.764711         3    ;  uncertainty k = 0.104551
        23        22        21        35     9      180.000000       -0.118816         4    ;  uncertainty k = 0.160220
        23        24        25        41     9        0.000000       -1.007346         1    ;  uncertainty k = 0.422020
        23        24        25        41     9      180.000000       -1.726120         2    ;  uncertainty k = 0.643626
        23        24        25        41     9        0.000000        0.764711         3    ;  uncertainty k = 0.104551
        23        24        25        41     9      180.000000       -0.118816         4    ;  uncertainty k = 0.160221
        23        24        25        42     9        0.000000       -1.007346         1    ;  uncertainty k = 0.422020
        23        24        25        42     9      180.000000       -1.726120         2    ;  uncertainty k = 0.643626
        23        24        25        42     9        0.000000        0.764711         3    ;  uncertainty k = 0.104551
        23        24        25        42     9      180.000000       -0.118816         4    ;  uncertainty k = 0.160221
        24        23        22        36     9        0.000000       -0.415487         1    ;  uncertainty k = 0.893736
        24        23        22        36     9      180.000000       -0.788065         2    ;  uncertainty k = 0.370062
        24        23        22        36     9        0.000000        0.547162         3    ;  uncertainty k = 0.162172
        24        23        22        36     9      180.000000        0.009112         4    ;  uncertainty k = 0.250746
        24        23        22        37     9        0.000000       -0.415487         1    ;  uncertainty k = 0.893736
        24        23        22        37     9      180.000000       -0.788065         2    ;  uncertainty k = 0.370062
        24        23        22        37     9        0.000000        0.547162         3    ;  uncertainty k = 0.162172
        24        23        22        37     9      180.000000        0.009112         4    ;  uncertainty k = 0.250746
        24        25        20        33     9        0.000000       -2.131755         1    ;  uncertainty k = 0.381546
        24        25        20        33     9      180.000000       -0.694135         2    ;  uncertainty k = 0.450562
        24        25        20        33     9        0.000000        0.225149         3    ;  uncertainty k = 0.131976
        24        25        20        33     9      180.000000       -0.165997         4    ;  uncertainty k = 0.072041
        25        20        21        34     9        0.000000       -1.637704         1    ;  uncertainty k = 0.266488
        25        20        21        34     9      180.000000       -0.262329         2    ;  uncertainty k = 0.235723
        25        20        21        34     9        0.000000        0.319990         3    ;  uncertainty k = 0.177564
        25        20        21        34     9      180.000000       -0.078814         4    ;  uncertainty k = 0.101123
        25        20        21        35     9        0.000000       -1.637704         1    ;  uncertainty k = 0.266488
        25        20        21        35     9      180.000000       -0.262329         2    ;  uncertainty k = 0.235723
        25        20        21        35     9        0.000000        0.319990         3    ;  uncertainty k = 0.177564
        25        20        21        35     9      180.000000       -0.078814         4    ;  uncertainty k = 0.101123
        25        24        23        38     9        0.000000       -1.014340         1    ;  uncertainty k = 0.401737
        25        24        23        38     9      180.000000       -0.191794         2    ;  uncertainty k = 0.299853
        25        24        23        38     9        0.000000        0.571726         3    ;  uncertainty k = 0.133965
        25        24        23        38     9      180.000000       -0.121030         4    ;  uncertainty k = 0.132458
        25        24        23        43     9        0.000000       -1.014340         1    ;  uncertainty k = 0.401737
        25        24        23        43     9      180.000000       -0.191794         2    ;  uncertainty k = 0.299853
        25        24        23        43     9        0.000000        0.571726         3    ;  uncertainty k = 0.133965
        25        24        23        43     9      180.000000       -0.121030         4    ;  uncertainty k = 0.132458
        29        13        14        30     9        0.000000       -0.101338         1    ;  uncertainty k = 0.131609
        29        13        14        30     9      180.000000        7.997056         2    ;  uncertainty k = 0.394783
        29        13        14        30     9        0.000000       -0.404297         3    ;  uncertainty k = 0.200580
        29        13        14        30     9      180.000000        0.285366         4    ;  uncertainty k = 0.217525
        31        16        17        32     9        0.000000       -0.101338         1    ;  uncertainty k = 0.131609
        31        16        17        32     9      180.000000        7.997056         2    ;  uncertainty k = 0.394783
        31        16        17        32     9        0.000000       -0.404297         3    ;  uncertainty k = 0.200580
        31        16        17        32     9      180.000000        0.285366         4    ;  uncertainty k = 0.217525
        33        20        21        34     9        0.000000        1.369597         1    ;  uncertainty k = 0.376155
        33        20        21        34     9      180.000000       -0.139027         2    ;  uncertainty k = 0.191692
        33        20        21        34     9        0.000000        0.014465         3    ;  uncertainty k = 0.055872
        33        20        21        34     9      180.000000        0.136515         4    ;  uncertainty k = 0.074319
        33        20        21        35     9        0.000000        1.369597         1    ;  uncertainty k = 0.376155
        33        20        21        35     9      180.000000       -0.139027         2    ;  uncertainty k = 0.191692
        33        20        21        35     9        0.000000        0.014465         3    ;  uncertainty k = 0.055872
        33        20        21        35     9      180.000000        0.136515         4    ;  uncertainty k = 0.074319
        33        20        25        41     9        0.000000        1.369597         1    ;  uncertainty k = 0.376155
        33        20        25        41     9      180.000000       -0.139028         2    ;  uncertainty k = 0.191694
        33        20        25        41     9        0.000000        0.014466         3    ;  uncertainty k = 0.055872
        33        20        25        41     9      180.000000        0.136515         4    ;  uncertainty k = 0.074319
        33        20        25        42     9        0.000000        1.369597         1    ;  uncertainty k = 0.376155
        33        20        25        42     9      180.000000       -0.139028         2    ;  uncertainty k = 0.191694
        33        20        25        42     9        0.000000        0.014466         3    ;  uncertainty k = 0.055872
        33        20        25        42     9      180.000000        0.136515         4    ;  uncertainty k = 0.074319
        34        21        22        36     9        0.000000        0.541407         1    ;  uncertainty k = 0.297248
        34        21        22        36     9      180.000000        0.340650         2    ;  uncertainty k = 0.089843
        34        21        22        36     9        0.000000        0.239730         3    ;  uncertainty k = 0.066334
        34        21        22        36     9      180.000000       -0.030561         4    ;  uncertainty k = 0.047672
        34        21        22        37     9        0.000000        0.541407         1    ;  uncertainty k = 0.297248
        34        21        22        37     9      180.000000        0.340650         2    ;  uncertainty k = 0.089843
        34        21        22        37     9        0.000000        0.239730         3    ;  uncertainty k = 0.066334
        34        21        22        37     9      180.000000       -0.030561         4    ;  uncertainty k = 0.047672
        35        21        22        36     9        0.000000        0.541407         1    ;  uncertainty k = 0.297248
        35        21        22        36     9      180.000000        0.340650         2    ;  uncertainty k = 0.089843
        35        21        22        36     9        0.000000        0.239730         3    ;  uncertainty k = 0.066334
        35        21        22        36     9      180.000000       -0.030561         4    ;  uncertainty k = 0.047672
        35        21        22        37     9        0.000000        0.541407         1    ;  uncertainty k = 0.297248
        35        21        22        37     9      180.000000        0.340650         2    ;  uncertainty k = 0.089843
        35        21        22        37     9        0.000000        0.239730         3    ;  uncertainty k = 0.066334
        35        21        22        37     9      180.000000       -0.030561         4    ;  uncertainty k = 0.047672
        36        22        23        38     9        0.000000        0.194117         1    ;  uncertainty k = 0.678491
        36        22        23        38     9      180.000000       -0.396126         2    ;  uncertainty k = 0.233526
        36        22        23        38     9        0.000000        0.326233         3    ;  uncertainty k = 0.207707
        36        22        23        38     9      180.000000        0.101272         4    ;  uncertainty k = 0.078594
        36        22        23        43     9        0.000000        0.194117         1    ;  uncertainty k = 0.678491
        36        22        23        43     9      180.000000       -0.396126         2    ;  uncertainty k = 0.233526
        36        22        23        43     9        0.000000        0.326233         3    ;  uncertainty k = 0.207707
        36        22        23        43     9      180.000000        0.101272         4    ;  uncertainty k = 0.078594
        37        22        23        38     9        0.000000        0.194117         1    ;  uncertainty k = 0.678491
        37        22        23        38     9      180.000000       -0.396126         2    ;  uncertainty k = 0.233526
        37        22        23        38     9        0.000000        0.326233         3    ;  uncertainty k = 0.207707
        37        22        23        38     9      180.000000        0.101272         4    ;  uncertainty k = 0.078594
        37        22        23        43     9        0.000000        0.194117         1    ;  uncertainty k = 0.678491
        37        22        23        43     9      180.000000       -0.396126         2    ;  uncertainty k = 0.233526
        37        22        23        43     9        0.000000        0.326233         3    ;  uncertainty k = 0.207707
        37        22        23        43     9      180.000000        0.101272         4    ;  uncertainty k = 0.078594
        38        23        24        39     9        0.000000        0.194117         1    ;  uncertainty k = 0.678491
        38        23        24        39     9      180.000000       -0.396124         2    ;  uncertainty k = 0.233526
        38        23        24        39     9        0.000000        0.326233         3    ;  uncertainty k = 0.207707
        38        23        24        39     9      180.000000        0.101271         4    ;  uncertainty k = 0.078594
        38        23        24        40     9        0.000000        0.194117         1    ;  uncertainty k = 0.678491
        38        23        24        40     9      180.000000       -0.396124         2    ;  uncertainty k = 0.233526
        38        23        24        40     9        0.000000        0.326233         3    ;  uncertainty k = 0.207707
        38        23        24        40     9      180.000000        0.101271         4    ;  uncertainty k = 0.078594
        39        24        23        43     9        0.000000        0.194117         1    ;  uncertainty k = 0.678491
        39        24        23        43     9      180.000000       -0.396124         2    ;  uncertainty k = 0.233526
        39        24        23        43     9        0.000000        0.326233         3    ;  uncertainty k = 0.207707
        39        24        23        43     9      180.000000        0.101271         4    ;  uncertainty k = 0.078594
        39        24        25        41     9        0.000000        0.541407         1    ;  uncertainty k = 0.297249
        39        24        25        41     9      180.000000        0.340649         2    ;  uncertainty k = 0.089842
        39        24        25        41     9        0.000000        0.239729         3    ;  uncertainty k = 0.066334
        39        24        25        41     9      180.000000       -0.030561         4    ;  uncertainty k = 0.047672
        39        24        25        42     9        0.000000        0.541407         1    ;  uncertainty k = 0.297249
        39        24        25        42     9      180.000000        0.340649         2    ;  uncertainty k = 0.089842
        39        24        25        42     9        0.000000        0.239729         3    ;  uncertainty k = 0.066334
        39        24        25        42     9      180.000000       -0.030561         4    ;  uncertainty k = 0.047672
        40        24        23        43     9        0.000000        0.194117         1    ;  uncertainty k = 0.678491
        40        24        23        43     9      180.000000       -0.396124         2    ;  uncertainty k = 0.233526
        40        24        23        43     9        0.000000        0.326233         3    ;  uncertainty k = 0.207707
        40        24        23        43     9      180.000000        0.101271         4    ;  uncertainty k = 0.078594
        40        24        25        41     9        0.000000        0.541407         1    ;  uncertainty k = 0.297249
        40        24        25        41     9      180.000000        0.340649         2    ;  uncertainty k = 0.089842
        40        24        25        41     9        0.000000        0.239729         3    ;  uncertainty k = 0.066334
        40        24        25        41     9      180.000000       -0.030561         4    ;  uncertainty k = 0.047672
        40        24        25        42     9        0.000000        0.541407         1    ;  uncertainty k = 0.297249
        40        24        25        42     9      180.000000        0.340649         2    ;  uncertainty k = 0.089842
        40        24        25        42     9        0.000000        0.239729         3    ;  uncertainty k = 0.066334
        40        24        25        42     9      180.000000       -0.030561         4    ;  uncertainty k = 0.047672

[ dihedrals ] ; impropers
;       ai        aj        ak        al funct           phase               k        pn
         1         2         3        18     4      180.000000       14.559520         2    ;  uncertainty k = 0.105545
         1         3        18         2     4      180.000000       14.559520         2    ;  uncertainty k = 0.105545
         1        18         2         3     4      180.000000       14.559520         2    ;  uncertainty k = 0.105545
         2         1         4         5     4      180.000000       18.200966         2    ;  uncertainty k = 0.098022
         2         4         5         1     4      180.000000       18.200966         2    ;  uncertainty k = 0.098022
         2         5         1         4     4      180.000000       18.200966         2    ;  uncertainty k = 0.098022
         3         1         6        26     4      180.000000        1.584692         2    ;  uncertainty k = 0.329078
         3         6        26         1     4      180.000000        1.584692         2    ;  uncertainty k = 0.329078
         3        26         1         6     4      180.000000        1.584692         2    ;  uncertainty k = 0.329078
         4         2         7         8     4      180.000000        6.105512         2    ;  uncertainty k = 0.266857
         4         7         8         2     4      180.000000        6.105512         2    ;  uncertainty k = 0.266857
         4         8         2         7     4      180.000000        6.105512         2    ;  uncertainty k = 0.266857
         6         3         7        19     4      180.000000       17.465623         2    ;  uncertainty k = 0.094175
         6         7        19         3     4      180.000000       17.465623         2    ;  uncertainty k = 0.094175
         6        19         3         7     4      180.000000       17.465623         2    ;  uncertainty k = 0.094175
         7         4         6        27     4      180.000000        3.006111         2    ;  uncertainty k = 0.132734
         7         6        27         4     4      180.000000        3.006111         2    ;  uncertainty k = 0.132734
         7        27         4         6     4      180.000000        3.006111         2    ;  uncertainty k = 0.132734
         8         4         9        10     4      180.000000       50.279711         2    ;  uncertainty k = 0.014480
         8         9        10         4     4      180.000000       50.279711         2    ;  uncertainty k = 0.014480
         8        10         4         9     4      180.000000       50.279711         2    ;  uncertainty k = 0.014480
         9         8        11        28     4      180.000000        0.757578         2    ;  uncertainty k = 0.563079
         9        11        28         8     4      180.000000        0.757578         2    ;  uncertainty k = 0.563079
         9        28         8        11     4      180.000000        0.757578         2    ;  uncertainty k = 0.563079
        11         5         9        12     4      180.000000       30.243258         2    ;  uncertainty k = 0.041061
        11         9        12         5     4      180.000000       30.243258         2    ;  uncertainty k = 0.041061
        11        12         5         9     4      180.000000       30.243258         2    ;  uncertainty k = 0.041061
        12        11        13        17     4      180.000000        8.474717         2    ;  uncertainty k = 0.220633
        12        13        17        11     4      180.000000        8.474717         2    ;  uncertainty k = 0.220633
        12        17        11        13     4      180.000000        8.474717         2    ;  uncertainty k = 0.220633
        13        12        14        29     4      180.000000        4.094936         2    ;  uncertainty k = 0.122584
        13        14        29        12     4      180.000000        4.094936         2    ;  uncertainty k = 0.122584
        13        29        12        14     4      180.000000        4.094936         2    ;  uncertainty k = 0.122584
        14        13        15        30     4      180.000000        3.345389         2    ;  uncertainty k = 0.166708
        14        15        30        13     4      180.000000        3.345389         2    ;  uncertainty k = 0.166708
        14        30        13        15     4      180.000000        3.345389         2    ;  uncertainty k = 0.166708
        15        14        16        20     4      180.000000       14.822385         2    ;  uncertainty k = 0.107755
        15        16        20        14     4      180.000000       14.822385         2    ;  uncertainty k = 0.107755
        15        20        14        16     4      180.000000       14.822385         2    ;  uncertainty k = 0.107755
        16        15        17        31     4      180.000000        3.345390         2    ;  uncertainty k = 0.166708
        16        17        31        15     4      180.000000        3.345390         2    ;  uncertainty k = 0.166708
        16        31        15        17     4      180.000000        3.345390         2    ;  uncertainty k = 0.166708
        17        12        16        32     4      180.000000        4.094936         2    ;  uncertainty k = 0.122584
        17        16        32        12     4      180.000000        4.094936         2    ;  uncertainty k = 0.122584
        17        32        12        16     4      180.000000        4.094936         2    ;  uncertainty k = 0.122584

[ pairs ]
;       ai        aj funct
         1         7     1
         1         8     1
         1        11     1
         1        19     1
         2         6     1
         2         9     1
         2        10     1
         2        12     1
         2        26     1
         2        27     1
         3         4     1
         3         5     1
         3        27     1
         4        11     1
         4        18     1
         4        19     1
         4        28     1
         5         7     1
         5         8     1
         5        13     1
         5        17     1
         5        18     1
         5        28     1
         6         8     1
         6        18     1
         7         9     1
         7        10     1
         7        26     1
         8        12     1
         8        27     1
         9        13     1
         9        17     1
        10        11     1
        10        28     1
        11        14     1
        11        16     1
        11        29     1
        11        32     1
        12        15     1
        12        28     1
        12        30     1
        12        31     1
        13        16     1
        13        20     1
        13        32     1
        14        17     1
        14        21     1
        14        25     1
        14        31     1
        14        33     1
        15        22     1
        15        24     1
        15        29     1
        15        32     1
        15        34     1
        15        35     1
        15        41     1
        15        42     1
        16        21     1
        16        25     1
        16        30     1
        16        33     1
        17        20     1
        17        29     1
        18        26     1
        19        26     1
        19        27     1
        20        23     1
        20        30     1
        20        31     1
        20        36     1
        20        37     1
        20        39     1
        20        40     1
        21        24     1
        21        38     1
        21        41     1
        21        42     1
        21        43     1
        22        25     1
        22        33     1
        22        39     1
        22        40     1
        23        34     1
        23        35     1
        23        41     1
        23        42     1
        24        33     1
        24        36     1
        24        37     1
        25        34     1
        25        35     1
        25        38     1
        25        43     1
        29        30     1
        31        32     1
        33        34     1
        33        35     1
        33        41     1
        33        42     1
        34        36     1
        34        37     1
        35        36     1
        35        37     1
        36        38     1
        36        43     1
        37        38     1
        37        43     1
        38        39     1
        38        40     1
        39        41     1
        39        42     1
        39        43     1
        40        41     1
        40        42     1
        40        43     1
