; ITP file created by ByteFF-joint-25, 2026-02-17 09:51:37.650637

[ atomtypes ]
;name           bonded.type        at.num        mass        charge   ptype           sigma         epsilon
 c0bf                                   6      0.0000       0.00000       A     3.31504e-01     4.13224e-01    ;  uncertainty sigma = 0.000008, epsilon = 0.000825
 c1bf                                   6      0.0000       0.00000       A     3.31513e-01     4.13012e-01    ;  uncertainty sigma = 0.000012, epsilon = 0.000723
 c2bf                                   6      0.0000       0.00000       A     3.31510e-01     4.13281e-01    ;  uncertainty sigma = 0.000007, epsilon = 0.000662
 c3bf                                   6      0.0000       0.00000       A     3.31553e-01     4.14094e-01    ;  uncertainty sigma = 0.000012, epsilon = 0.000786
 n4bf                                   7      0.0000       0.00000       A     3.38451e-01     3.94289e-01    ;  uncertainty sigma = 0.000025, epsilon = 0.001873
 c5bf                                   6      0.0000       0.00000       A     3.31510e-01     4.13349e-01    ;  uncertainty sigma = 0.000006, epsilon = 0.000631
 c6bf                                   6      0.0000       0.00000       A     3.31510e-01     4.13527e-01    ;  uncertainty sigma = 0.000008, epsilon = 0.000785
 c7bf                                   6      0.0000       0.00000       A     3.31539e-01     4.13390e-01    ;  uncertainty sigma = 0.000009, epsilon = 0.001213
 n8bf                                   7      0.0000       0.00000       A     3.26867e-01     4.92512e-01    ;  uncertainty sigma = 0.000088, epsilon = 0.003430
 o9bf                                   8      0.0000       0.00000       A     3.04814e-01     6.11899e-01    ;  uncertainty sigma = 0.000014, epsilon = 0.001624
 c10bf                                  6      0.0000       0.00000       A     3.31514e-01     4.12811e-01    ;  uncertainty sigma = 0.000013, epsilon = 0.001292
 c11bf                                  6      0.0000       0.00000       A     3.31501e-01     4.12893e-01    ;  uncertainty sigma = 0.000017, epsilon = 0.001086
 c12bf                                  6      0.0000       0.00000       A     3.31517e-01     4.13262e-01    ;  uncertainty sigma = 0.000004, epsilon = 0.000655
 c13bf                                  6      0.0000       0.00000       A     3.31511e-01     4.13305e-01    ;  uncertainty sigma = 0.000003, epsilon = 0.000548
 c14bf                                  6      0.0000       0.00000       A     3.31537e-01     4.13180e-01    ;  uncertainty sigma = 0.000005, epsilon = 0.000780
 c15bf                                  6      0.0000       0.00000       A     3.31511e-01     4.13305e-01    ;  uncertainty sigma = 0.000003, epsilon = 0.000548
 c16bf                                  6      0.0000       0.00000       A     3.31517e-01     4.13262e-01    ;  uncertainty sigma = 0.000004, epsilon = 0.000655
 c17bf                                  6      0.0000       0.00000       A     3.39784e-01     4.51159e-01    ;  uncertainty sigma = 0.000004, epsilon = 0.000717
 f18bf                                  9      0.0000       0.00000       A     3.03428e-01     3.47890e-01    ;  uncertainty sigma = 0.000015, epsilon = 0.000826
 c19bf                                  6      0.0000       0.00000       A     3.39788e-01     4.50952e-01    ;  uncertainty sigma = 0.000006, epsilon = 0.000509
 c20bf                                  6      0.0000       0.00000       A     3.39779e-01     4.51138e-01    ;  uncertainty sigma = 0.000002, epsilon = 0.000667
 c21bf                                  6      0.0000       0.00000       A     3.39763e-01     4.50974e-01    ;  uncertainty sigma = 0.000003, epsilon = 0.000458
 n22bf                                  7      0.0000       0.00000       A     3.50723e-01     2.17976e-01    ;  uncertainty sigma = 0.000025, epsilon = 0.001137
 c23bf                                  6      0.0000       0.00000       A     3.39763e-01     4.50974e-01    ;  uncertainty sigma = 0.000003, epsilon = 0.000458
 c24bf                                  6      0.0000       0.00000       A     3.39779e-01     4.51138e-01    ;  uncertainty sigma = 0.000002, epsilon = 0.000667
 h25bf                                  1      0.0000       0.00000       A     2.62557e-01     6.70748e-02    ;  uncertainty sigma = 0.000009, epsilon = 0.000428
 h26bf                                  1      0.0000       0.00000       A     2.62584e-01     6.68454e-02    ;  uncertainty sigma = 0.000019, epsilon = 0.000520
 h27bf                                  1      0.0000       0.00000       A     1.10651e-01     4.13762e-02    ;  uncertainty sigma = 0.000058, epsilon = 0.001253
 h28bf                                  1      0.0000       0.00000       A     2.62566e-01     6.70592e-02    ;  uncertainty sigma = 0.000011, epsilon = 0.000549
 h29bf                                  1      0.0000       0.00000       A     2.62558e-01     6.70445e-02    ;  uncertainty sigma = 0.000012, epsilon = 0.000408
 h30bf                                  1      0.0000       0.00000       A     2.62558e-01     6.70445e-02    ;  uncertainty sigma = 0.000012, epsilon = 0.000408
 h31bf                                  1      0.0000       0.00000       A     2.62566e-01     6.70592e-02    ;  uncertainty sigma = 0.000011, epsilon = 0.000549
 h32bf                                  1      0.0000       0.00000       A     2.60033e-01     8.66509e-02    ;  uncertainty sigma = 0.000010, epsilon = 0.000546
 h33bf                                  1      0.0000       0.00000       A     2.60033e-01     8.66509e-02    ;  uncertainty sigma = 0.000010, epsilon = 0.000546
 h34bf                                  1      0.0000       0.00000       A     2.60033e-01     8.66509e-02    ;  uncertainty sigma = 0.000010, epsilon = 0.000546
 h35bf                                  1      0.0000       0.00000       A     2.60038e-01     8.67687e-02    ;  uncertainty sigma = 0.000058, epsilon = 0.000688
 h36bf                                  1      0.0000       0.00000       A     2.60032e-01     8.68888e-02    ;  uncertainty sigma = 0.000007, epsilon = 0.000628
 h37bf                                  1      0.0000       0.00000       A     2.60032e-01     8.68888e-02    ;  uncertainty sigma = 0.000007, epsilon = 0.000628
 h38bf                                  1      0.0000       0.00000       A     2.42202e-01     8.68215e-02    ;  uncertainty sigma = 0.000010, epsilon = 0.000511
 h39bf                                  1      0.0000       0.00000       A     2.42202e-01     8.68215e-02    ;  uncertainty sigma = 0.000010, epsilon = 0.000511
 h40bf                                  1      0.0000       0.00000       A     1.10684e-01     4.10785e-02    ;  uncertainty sigma = 0.000098, epsilon = 0.000900
 h41bf                                  1      0.0000       0.00000       A     2.42202e-01     8.68215e-02    ;  uncertainty sigma = 0.000010, epsilon = 0.000511
 h42bf                                  1      0.0000       0.00000       A     2.42202e-01     8.68215e-02    ;  uncertainty sigma = 0.000010, epsilon = 0.000511
 h43bf                                  1      0.0000       0.00000       A     2.60032e-01     8.68888e-02    ;  uncertainty sigma = 0.000007, epsilon = 0.000628
 h44bf                                  1      0.0000       0.00000       A     2.60032e-01     8.68888e-02    ;  uncertainty sigma = 0.000007, epsilon = 0.000628

[ moleculetype ]
;name             nrexcl
 MOL                   3

[ atoms ]
;       nr            type      resi   res      atom      cgnr      charge          mass ; qtot
         1            c0bf         1   UNL        c0         1    -0.03982       12.0110 ; qtot   -0.040
         2            c1bf         1   UNL        c1         2     0.17366       12.0110 ; qtot    0.134
         3            c2bf         1   UNL        c2         3    -0.13544       12.0110 ; qtot   -0.002
         4            c3bf         1   UNL        c3         4    -0.17592       12.0110 ; qtot   -0.178
         5            n4bf         1   UNL        n4         5    -0.62118       14.0070 ; qtot   -0.799
         6            c5bf         1   UNL        c5         6     0.11459       12.0110 ; qtot   -0.684
         7            c6bf         1   UNL        c6         7    -0.10348       12.0110 ; qtot   -0.788
         8            c7bf         1   UNL        c7         8     0.71850       12.0110 ; qtot   -0.069
         9            n8bf         1   UNL        n8         9    -0.50618       14.0070 ; qtot   -0.575
        10            o9bf         1   UNL        o9        10    -0.60550       15.9990 ; qtot   -1.181
        11           c10bf         1   UNL       c10        11     0.56229       12.0110 ; qtot   -0.618
        12           c11bf         1   UNL       c11        12    -0.15441       12.0110 ; qtot   -0.773
        13           c12bf         1   UNL       c12        13    -0.08643       12.0110 ; qtot   -0.859
        14           c13bf         1   UNL       c13        14    -0.13221       12.0110 ; qtot   -0.992
        15           c14bf         1   UNL       c14        15    -0.05582       12.0110 ; qtot   -1.047
        16           c15bf         1   UNL       c15        16    -0.13221       12.0110 ; qtot   -1.180
        17           c16bf         1   UNL       c16        17    -0.08643       12.0110 ; qtot   -1.266
        18           c17bf         1   UNL       c17        18    -0.04026       12.0110 ; qtot   -1.306
        19           f18bf         1   UNL       f18        19    -0.13870       18.9980 ; qtot   -1.445
        20           c19bf         1   UNL       c19        20    -0.01646       12.0110 ; qtot   -1.461
        21           c20bf         1   UNL       c20        21    -0.09171       12.0110 ; qtot   -1.553
        22           c21bf         1   UNL       c21        22     0.15416       12.0110 ; qtot   -1.399
        23           n22bf         1   UNL       n22        23    -0.80661       14.0070 ; qtot   -2.206
        24           c23bf         1   UNL       c23        24     0.15416       12.0110 ; qtot   -2.051
        25           c24bf         1   UNL       c24        25    -0.09171       12.0110 ; qtot   -2.143
        26           h25bf         1   UNL       h25        26     0.15341        1.0080 ; qtot   -1.990
        27           h26bf         1   UNL       h26        27     0.17584        1.0080 ; qtot   -1.814
        28           h27bf         1   UNL       h27        28     0.33625        1.0080 ; qtot   -1.478
        29           h28bf         1   UNL       h28        29     0.14599        1.0080 ; qtot   -1.332
        30           h29bf         1   UNL       h29        30     0.13584        1.0080 ; qtot   -1.196
        31           h30bf         1   UNL       h30        31     0.13584        1.0080 ; qtot   -1.060
        32           h31bf         1   UNL       h31        32     0.14599        1.0080 ; qtot   -0.914
        33           h32bf         1   UNL       h32        33     0.05084        1.0080 ; qtot   -0.863
        34           h33bf         1   UNL       h33        34     0.05084        1.0080 ; qtot   -0.812
        35           h34bf         1   UNL       h34        35     0.05084        1.0080 ; qtot   -0.761
        36           h35bf         1   UNL       h35        36     0.05106        1.0080 ; qtot   -0.710
        37           h36bf         1   UNL       h36        37     0.04783        1.0080 ; qtot   -0.663
        38           h37bf         1   UNL       h37        38     0.04783        1.0080 ; qtot   -0.615
        39           h38bf         1   UNL       h38        39     0.04211        1.0080 ; qtot   -0.573
        40           h39bf         1   UNL       h39        40     0.04211        1.0080 ; qtot   -0.530
        41           h40bf         1   UNL       h40        41     0.35063        1.0080 ; qtot   -0.180
        42           h41bf         1   UNL       h41        42     0.04211        1.0080 ; qtot   -0.138
        43           h42bf         1   UNL       h42        43     0.04211        1.0080 ; qtot   -0.096
        44           h43bf         1   UNL       h43        44     0.04783        1.0080 ; qtot   -0.048
        45           h44bf         1   UNL       h44        45     0.04782        1.0080 ; qtot    0.000

[ bonds ]
;       ai        aj funct               r               k
         1         2     1        0.141844   306039.859814    ;  uncertainty r = 0.000032, k = 27.801396
         1         3     1        0.138870   365742.812451    ;  uncertainty r = 0.000089, k = 7.721924
         1        18     1        0.150649   234450.353174    ;  uncertainty r = 0.000046, k = 2.989949
         2         4     1        0.141734   392289.301611    ;  uncertainty r = 0.000080, k = 15.374263
         2         5     1        0.138684   289195.352637    ;  uncertainty r = 0.000071, k = 30.783835
         3         6     1        0.140198   351180.531201    ;  uncertainty r = 0.000093, k = 4.447604
         3        26     1        0.108786   338550.081201    ;  uncertainty r = 0.000032, k = 1.188614
         4         7     1        0.139877   368575.005566    ;  uncertainty r = 0.000067, k = 3.222827
         4         8     1        0.146556   266305.547705    ;  uncertainty r = 0.000052, k = 14.717181
         5        11     1        0.129708   464193.348828    ;  uncertainty r = 0.000066, k = 10.155082
         6         7     1        0.137894   359234.552441    ;  uncertainty r = 0.000088, k = 9.675816
         6        19     1        0.135558   338536.214551    ;  uncertainty r = 0.000077, k = 4.410943
         7        27     1        0.108581   333195.281348    ;  uncertainty r = 0.000033, k = 2.285182
         8         9     1        0.140091   450228.074121    ;  uncertainty r = 0.000093, k = 15.366200
         8        10     1        0.123473   853603.724414    ;  uncertainty r = 0.000122, k = 12.777083
         9        11     1        0.138912   298725.904004    ;  uncertainty r = 0.000076, k = 21.073722
         9        28     1        0.102058   454589.659180    ;  uncertainty r = 0.000027, k = 4.102090
        11        12     1        0.147302   266692.741357    ;  uncertainty r = 0.000101, k = 11.763867
        12        13     1        0.139990   350460.129346    ;  uncertainty r = 0.000056, k = 3.505935
        12        17     1        0.139990   350460.129346    ;  uncertainty r = 0.000056, k = 3.505935
        13        14     1        0.139212   360485.462207    ;  uncertainty r = 0.000047, k = 3.282654
        13        29     1        0.108738   333316.276172    ;  uncertainty r = 0.000040, k = 0.861667
        14        15     1        0.139829   349154.544629    ;  uncertainty r = 0.000037, k = 2.779113
        14        30     1        0.108887   334346.749609    ;  uncertainty r = 0.000024, k = 0.557827
        15        16     1        0.139829   349154.544629    ;  uncertainty r = 0.000037, k = 2.779113
        15        20     1        0.151380   218578.580029    ;  uncertainty r = 0.000029, k = 1.449496
        16        17     1        0.139212   360485.462207    ;  uncertainty r = 0.000047, k = 3.282653
        16        31     1        0.108887   334346.749609    ;  uncertainty r = 0.000024, k = 0.557811
        17        32     1        0.108738   333316.276172    ;  uncertainty r = 0.000040, k = 0.861652
        18        33     1        0.109435   309134.906396    ;  uncertainty r = 0.000009, k = 1.848072
        18        34     1        0.109435   309134.906396    ;  uncertainty r = 0.000009, k = 1.848072
        18        35     1        0.109435   309134.931934    ;  uncertainty r = 0.000009, k = 1.848080
        20        21     1        0.154218   203457.597900    ;  uncertainty r = 0.000056, k = 4.466811
        20        25     1        0.154218   203457.585132    ;  uncertainty r = 0.000056, k = 4.466789
        20        36     1        0.109804   301798.707764    ;  uncertainty r = 0.000029, k = 1.555462
        21        22     1        0.153674   214263.600195    ;  uncertainty r = 0.000015, k = 3.401085
        21        37     1        0.109704   309311.137988    ;  uncertainty r = 0.000009, k = 1.477940
        21        38     1        0.109704   309311.137988    ;  uncertainty r = 0.000009, k = 1.477940
        22        23     1        0.146837   247100.160303    ;  uncertainty r = 0.000030, k = 5.102979
        22        39     1        0.109878   307347.206592    ;  uncertainty r = 0.000006, k = 1.361997
        22        40     1        0.109878   307347.206592    ;  uncertainty r = 0.000006, k = 1.361997
        23        24     1        0.146837   247100.160303    ;  uncertainty r = 0.000030, k = 5.102983
        23        41     1        0.101830   399089.246484    ;  uncertainty r = 0.000012, k = 1.934436
        24        25     1        0.153674   214263.574658    ;  uncertainty r = 0.000015, k = 3.401062
        24        42     1        0.109878   307347.232129    ;  uncertainty r = 0.000006, k = 1.362011
        24        43     1        0.109878   307347.232129    ;  uncertainty r = 0.000006, k = 1.362011
        25        44     1        0.109704   309311.137988    ;  uncertainty r = 0.000009, k = 1.477956
        25        45     1        0.109704   309311.137988    ;  uncertainty r = 0.000009, k = 1.477956

[ angles ]
;       ai        aj        ak funct           theta             cth
         1         2         4     1      121.271164      404.802958    ;  uncertainty theta = 0.005086, k = 0.100430
         1         2         5     1      117.664429      464.894968    ;  uncertainty theta = 0.009099, k = 0.158322
         1         3         6     1      121.263329      491.728277    ;  uncertainty theta = 0.003093, k = 0.183268
         1         3        26     1      119.288620      270.847029    ;  uncertainty theta = 0.003481, k = 0.067440
         1        18        33     1      109.499817      400.107705    ;  uncertainty theta = 0.001709, k = 0.068429
         1        18        34     1      109.499817      400.107705    ;  uncertainty theta = 0.001709, k = 0.068429
         1        18        35     1      109.499817      400.107800    ;  uncertainty theta = 0.001709, k = 0.068429
         2         1         3     1      119.470741      477.243693    ;  uncertainty theta = 0.003649, k = 0.130108
         2         1        18     1      118.993469      414.152285    ;  uncertainty theta = 0.005038, k = 0.244727
         2         4         7     1      122.740501      437.534190    ;  uncertainty theta = 0.002637, k = 0.159148
         2         4         8     1      117.448227      485.588709    ;  uncertainty theta = 0.004852, k = 0.216438
         2         5        11     1      116.403244      415.278599    ;  uncertainty theta = 0.005673, k = 0.413650
         3         1        18     1      121.301254      430.129641    ;  uncertainty theta = 0.002856, k = 0.258395
         3         6         7     1      123.933640      383.171973    ;  uncertainty theta = 0.005713, k = 0.275175
         3         6        19     1      118.383179      504.379010    ;  uncertainty theta = 0.002254, k = 0.101970
         4         2         5     1      123.042679      562.222319    ;  uncertainty theta = 0.006225, k = 0.109081
         4         7         6     1      117.322021      472.627796    ;  uncertainty theta = 0.002495, k = 0.109840
         4         7        27     1      120.877220      246.181996    ;  uncertainty theta = 0.005177, k = 0.115637
         4         8         9     1      108.990097      387.260464    ;  uncertainty theta = 0.007419, k = 0.261793
         4         8        10     1      128.035751      512.297078    ;  uncertainty theta = 0.003486, k = 0.151806
         5        11         9     1      123.546104      675.013921    ;  uncertainty theta = 0.006250, k = 0.156742
         5        11        12     1      122.550339      443.681834    ;  uncertainty theta = 0.003650, k = 0.171217
         6         3        26     1      120.168358      285.966275    ;  uncertainty theta = 0.002511, k = 0.086396
         6         7        27     1      122.104652      281.526010    ;  uncertainty theta = 0.003233, k = 0.096423
         7         4         8     1      117.459763      400.796568    ;  uncertainty theta = 0.003962, k = 0.195477
         7         6        19     1      119.088547      499.437165    ;  uncertainty theta = 0.001116, k = 0.072803
         8         9        11     1      120.698891      497.188622    ;  uncertainty theta = 0.003032, k = 0.164369
         8         9        28     1      115.359695      353.409748    ;  uncertainty theta = 0.007397, k = 0.132885
         9         8        10     1      125.003098      819.265263    ;  uncertainty theta = 0.003246, k = 0.067269
         9        11        12     1      116.694008      512.858703    ;  uncertainty theta = 0.005056, k = 0.244392
        11         9        28     1      116.878708      330.011947    ;  uncertainty theta = 0.006468, k = 0.213208
        11        12        13     1      117.960777      401.511480    ;  uncertainty theta = 0.002371, k = 0.109730
        11        12        17     1      117.960777      401.511480    ;  uncertainty theta = 0.002371, k = 0.109730
        12        13        14     1      121.711082      516.675479    ;  uncertainty theta = 0.001231, k = 0.077801
        12        13        29     1      118.310974      266.861165    ;  uncertainty theta = 0.002482, k = 0.057906
        12        17        16     1      121.711082      516.675479    ;  uncertainty theta = 0.001231, k = 0.077801
        12        17        32     1      118.310974      266.861165    ;  uncertainty theta = 0.002482, k = 0.057906
        13        12        17     1      121.022133      428.244588    ;  uncertainty theta = 0.000967, k = 0.212766
        13        14        15     1      121.758888      516.621500    ;  uncertainty theta = 0.003115, k = 0.071686
        13        14        30     1      119.700317      288.613643    ;  uncertainty theta = 0.000946, k = 0.021267
        14        13        29     1      120.172897      286.253918    ;  uncertainty theta = 0.001666, k = 0.059245
        14        15        16     1      118.523239      451.643858    ;  uncertainty theta = 0.003829, k = 0.157095
        14        15        20     1      120.945480      421.205283    ;  uncertainty theta = 0.003269, k = 0.141974
        15        14        30     1      118.893600      266.108730    ;  uncertainty theta = 0.001233, k = 0.067761
        15        16        17     1      121.758888      516.621500    ;  uncertainty theta = 0.003115, k = 0.071686
        15        16        31     1      118.893600      266.108730    ;  uncertainty theta = 0.001233, k = 0.067761
        15        20        21     1      110.946106      555.564794    ;  uncertainty theta = 0.001117, k = 0.078082
        15        20        25     1      110.946121      555.564730    ;  uncertainty theta = 0.001117, k = 0.078082
        15        20        36     1      105.078918      401.008143    ;  uncertainty theta = 0.000968, k = 0.039428
        16        15        20     1      120.945480      421.205283    ;  uncertainty theta = 0.003269, k = 0.141974
        16        17        32     1      120.172897      286.253918    ;  uncertainty theta = 0.001666, k = 0.059245
        17        16        31     1      119.700317      288.613643    ;  uncertainty theta = 0.000946, k = 0.021267
        20        21        22     1      109.759781      566.782991    ;  uncertainty theta = 0.002002, k = 0.031531
        20        21        37     1      108.431808      387.287054    ;  uncertainty theta = 0.000468, k = 0.085725
        20        21        38     1      108.431808      387.287054    ;  uncertainty theta = 0.000468, k = 0.085725
        20        25        24     1      109.759781      566.783055    ;  uncertainty theta = 0.002002, k = 0.031531
        20        25        44     1      108.431808      387.287054    ;  uncertainty theta = 0.000468, k = 0.085725
        20        25        45     1      108.431808      387.287054    ;  uncertainty theta = 0.000468, k = 0.085725
        21        20        25     1      108.777077      585.240575    ;  uncertainty theta = 0.002813, k = 0.083505
        21        20        36     1      107.557297      406.490099    ;  uncertainty theta = 0.001760, k = 0.025043
        21        22        23     1      111.754929      748.895843    ;  uncertainty theta = 0.001481, k = 0.034414
        21        22        39     1      108.917336      411.196205    ;  uncertainty theta = 0.000749, k = 0.032387
        21        22        40     1      108.917336      411.196205    ;  uncertainty theta = 0.000749, k = 0.032387
        22        21        37     1      108.497780      404.214359    ;  uncertainty theta = 0.000630, k = 0.027301
        22        21        38     1      108.497780      404.214359    ;  uncertainty theta = 0.000630, k = 0.027301
        22        23        24     1      109.665726      507.697813    ;  uncertainty theta = 0.001488, k = 0.068615
        22        23        41     1      105.695923      408.797696    ;  uncertainty theta = 0.001215, k = 0.057977
        23        22        39     1      108.301186      451.433975    ;  uncertainty theta = 0.001622, k = 0.045051
        23        22        40     1      108.301186      451.433975    ;  uncertainty theta = 0.001622, k = 0.045051
        23        24        25     1      111.754929      748.895843    ;  uncertainty theta = 0.001481, k = 0.034414
        23        24        42     1      108.301186      451.433975    ;  uncertainty theta = 0.001622, k = 0.045051
        23        24        43     1      108.301186      451.433975    ;  uncertainty theta = 0.001622, k = 0.045051
        24        23        41     1      105.695923      408.797696    ;  uncertainty theta = 0.001215, k = 0.057977
        24        25        44     1      108.497780      404.214327    ;  uncertainty theta = 0.000630, k = 0.027301
        24        25        45     1      108.497780      404.214327    ;  uncertainty theta = 0.000630, k = 0.027301
        25        20        36     1      107.557312      406.490099    ;  uncertainty theta = 0.001760, k = 0.025043
        25        24        42     1      108.917336      411.196205    ;  uncertainty theta = 0.000749, k = 0.032387
        25        24        43     1      108.917336      411.196205    ;  uncertainty theta = 0.000749, k = 0.032387
        33        18        34     1      106.807327      315.669668    ;  uncertainty theta = 0.001138, k = 0.027254
        33        18        35     1      106.807327      315.669636    ;  uncertainty theta = 0.001138, k = 0.027254
        34        18        35     1      106.807327      315.669636    ;  uncertainty theta = 0.001138, k = 0.027254
        37        21        38     1      105.000282      315.141592    ;  uncertainty theta = 0.001383, k = 0.021846
        39        22        40     1      105.106224      314.909268    ;  uncertainty theta = 0.001793, k = 0.040671
        42        24        43     1      105.106224      314.909332    ;  uncertainty theta = 0.001793, k = 0.040671
        44        25        45     1      105.000267      315.141592    ;  uncertainty theta = 0.001383, k = 0.021846

[ dihedrals ] ; propers for gromacs 4.5 or higher, use funct 9
;       ai        aj        ak        al funct           phase               k        pn
         1         2         4         7     9        0.000000       -0.003498         1    ;  uncertainty k = 0.472609
         1         2         4         7     9      180.000000        6.586524         2    ;  uncertainty k = 0.781161
         1         2         4         7     9        0.000000        0.359829         3    ;  uncertainty k = 0.187691
         1         2         4         7     9      180.000000        1.411063         4    ;  uncertainty k = 0.263209
         1         2         4         8     9        0.000000       -0.041161         1    ;  uncertainty k = 0.618019
         1         2         4         8     9      180.000000        6.103120         2    ;  uncertainty k = 0.881233
         1         2         4         8     9        0.000000        0.966876         3    ;  uncertainty k = 0.271823
         1         2         4         8     9      180.000000        1.477102         4    ;  uncertainty k = 0.153685
         1         2         5        11     9        0.000000        1.730703         1    ;  uncertainty k = 2.367853
         1         2         5        11     9      180.000000        5.099652         2    ;  uncertainty k = 1.474252
         1         2         5        11     9        0.000000        2.211057         3    ;  uncertainty k = 0.355232
         1         2         5        11     9      180.000000        0.176451         4    ;  uncertainty k = 0.460790
         1         3         6         7     9        0.000000       -0.176394         1    ;  uncertainty k = 0.472652
         1         3         6         7     9      180.000000        6.585547         2    ;  uncertainty k = 0.699553
         1         3         6         7     9        0.000000        0.137583         3    ;  uncertainty k = 0.516395
         1         3         6         7     9      180.000000        1.234796         4    ;  uncertainty k = 0.266521
         1         3         6        19     9        0.000000       -0.040801         1    ;  uncertainty k = 0.198356
         1         3         6        19     9      180.000000       10.227298         2    ;  uncertainty k = 0.469679
         1         3         6        19     9        0.000000        1.541703         3    ;  uncertainty k = 0.441154
         1         3         6        19     9      180.000000        1.601974         4    ;  uncertainty k = 0.272233
         2         1         3         6     9        0.000000        0.120474         1    ;  uncertainty k = 0.354591
         2         1         3         6     9      180.000000       13.298081         2    ;  uncertainty k = 0.332786
         2         1         3         6     9        0.000000        0.401016         3    ;  uncertainty k = 0.289544
         2         1         3         6     9      180.000000        1.095531         4    ;  uncertainty k = 0.253388
         2         1         3        26     9        0.000000        0.351858         1    ;  uncertainty k = 0.291236
         2         1         3        26     9      180.000000        9.561567         2    ;  uncertainty k = 0.399776
         2         1         3        26     9        0.000000        1.498361         3    ;  uncertainty k = 0.201517
         2         1         3        26     9      180.000000        1.564017         4    ;  uncertainty k = 0.130263
         2         1        18        33     9        0.000000        0.058463         1    ;  uncertainty k = 0.224780
         2         1        18        33     9      180.000000        3.082733         2    ;  uncertainty k = 0.454778
         2         1        18        33     9        0.000000        0.426638         3    ;  uncertainty k = 0.098095
         2         1        18        33     9      180.000000        0.378026         4    ;  uncertainty k = 0.041231
         2         1        18        34     9        0.000000        0.058463         1    ;  uncertainty k = 0.224780
         2         1        18        34     9      180.000000        3.082733         2    ;  uncertainty k = 0.454778
         2         1        18        34     9        0.000000        0.426638         3    ;  uncertainty k = 0.098095
         2         1        18        34     9      180.000000        0.378026         4    ;  uncertainty k = 0.041231
         2         1        18        35     9        0.000000        0.058464         1    ;  uncertainty k = 0.224780
         2         1        18        35     9      180.000000        3.082734         2    ;  uncertainty k = 0.454780
         2         1        18        35     9        0.000000        0.426638         3    ;  uncertainty k = 0.098095
         2         1        18        35     9      180.000000        0.378026         4    ;  uncertainty k = 0.041230
         2         4         7         6     9        0.000000        0.038370         1    ;  uncertainty k = 0.417297
         2         4         7         6     9      180.000000       11.877016         2    ;  uncertainty k = 0.493789
         2         4         7         6     9        0.000000       -0.296600         3    ;  uncertainty k = 0.191594
         2         4         7         6     9      180.000000        1.100769         4    ;  uncertainty k = 0.203140
         2         4         7        27     9        0.000000        0.098091         1    ;  uncertainty k = 0.435475
         2         4         7        27     9      180.000000        7.082699         2    ;  uncertainty k = 0.751235
         2         4         7        27     9        0.000000        1.376102         3    ;  uncertainty k = 0.308075
         2         4         7        27     9      180.000000        1.435590         4    ;  uncertainty k = 0.102281
         2         4         8         9     9        0.000000       -1.245062         1    ;  uncertainty k = 0.929841
         2         4         8         9     9      180.000000        2.361346         2    ;  uncertainty k = 0.988986
         2         4         8         9     9        0.000000       -0.198502         3    ;  uncertainty k = 0.601233
         2         4         8         9     9      180.000000        0.561299         4    ;  uncertainty k = 0.260004
         2         4         8        10     9        0.000000       -2.745583         1    ;  uncertainty k = 0.925660
         2         4         8        10     9      180.000000        5.124239         2    ;  uncertainty k = 0.688870
         2         4         8        10     9        0.000000        0.242193         3    ;  uncertainty k = 0.253626
         2         4         8        10     9      180.000000       -0.125308         4    ;  uncertainty k = 0.189047
         2         5        11         9     9        0.000000       -0.749072         1    ;  uncertainty k = 0.426890
         2         5        11         9     9      180.000000       23.735698         2    ;  uncertainty k = 0.142309
         2         5        11         9     9        0.000000        1.781851         3    ;  uncertainty k = 0.270895
         2         5        11         9     9      180.000000        1.479577         4    ;  uncertainty k = 0.403234
         2         5        11        12     9        0.000000       -0.543533         1    ;  uncertainty k = 0.596093
         2         5        11        12     9      180.000000       18.878382         2    ;  uncertainty k = 0.427527
         2         5        11        12     9        0.000000        2.743092         3    ;  uncertainty k = 0.434544
         2         5        11        12     9      180.000000        1.346055         4    ;  uncertainty k = 0.350910
         3         1         2         4     9        0.000000        0.296678         1    ;  uncertainty k = 0.771221
         3         1         2         4     9      180.000000        6.455509         2    ;  uncertainty k = 0.944520
         3         1         2         4     9        0.000000        0.282202         3    ;  uncertainty k = 0.269525
         3         1         2         4     9      180.000000        1.028383         4    ;  uncertainty k = 0.309860
         3         1         2         5     9        0.000000        0.294112         1    ;  uncertainty k = 0.469025
         3         1         2         5     9      180.000000        9.023362         2    ;  uncertainty k = 0.267806
         3         1         2         5     9        0.000000        0.893349         3    ;  uncertainty k = 0.102399
         3         1         2         5     9      180.000000        1.382378         4    ;  uncertainty k = 0.285119
         3         1        18        33     9        0.000000        0.040329         1    ;  uncertainty k = 0.245891
         3         1        18        33     9      180.000000        2.115984         2    ;  uncertainty k = 0.283026
         3         1        18        33     9        0.000000        0.291249         3    ;  uncertainty k = 0.089773
         3         1        18        33     9      180.000000        0.237136         4    ;  uncertainty k = 0.018760
         3         1        18        34     9        0.000000        0.040329         1    ;  uncertainty k = 0.245891
         3         1        18        34     9      180.000000        2.115984         2    ;  uncertainty k = 0.283026
         3         1        18        34     9        0.000000        0.291249         3    ;  uncertainty k = 0.089773
         3         1        18        34     9      180.000000        0.237136         4    ;  uncertainty k = 0.018760
         3         1        18        35     9        0.000000        0.040330         1    ;  uncertainty k = 0.245890
         3         1        18        35     9      180.000000        2.115984         2    ;  uncertainty k = 0.283028
         3         1        18        35     9        0.000000        0.291249         3    ;  uncertainty k = 0.089773
         3         1        18        35     9      180.000000        0.237136         4    ;  uncertainty k = 0.018760
         3         6         7         4     9        0.000000        0.082823         1    ;  uncertainty k = 0.345133
         3         6         7         4     9      180.000000        8.663161         2    ;  uncertainty k = 0.493840
         3         6         7         4     9        0.000000        0.373577         3    ;  uncertainty k = 0.432288
         3         6         7         4     9      180.000000        1.345721         4    ;  uncertainty k = 0.431090
         3         6         7        27     9        0.000000        0.071466         1    ;  uncertainty k = 0.138144
         3         6         7        27     9      180.000000        6.148639         2    ;  uncertainty k = 0.529769
         3         6         7        27     9        0.000000        1.416250         3    ;  uncertainty k = 0.324519
         3         6         7        27     9      180.000000        1.608923         4    ;  uncertainty k = 0.035061
         4         2         1        18     9        0.000000        0.211804         1    ;  uncertainty k = 0.526011
         4         2         1        18     9      180.000000        6.081583         2    ;  uncertainty k = 0.493021
         4         2         1        18     9        0.000000        1.265400         3    ;  uncertainty k = 0.359627
         4         2         1        18     9      180.000000        1.352389         4    ;  uncertainty k = 0.204452
         4         2         5        11     9        0.000000        1.433870         1    ;  uncertainty k = 2.213577
         4         2         5        11     9      180.000000        4.010027         2    ;  uncertainty k = 1.657061
         4         2         5        11     9        0.000000        1.588329         3    ;  uncertainty k = 0.741149
         4         2         5        11     9      180.000000        0.380709         4    ;  uncertainty k = 0.487317
         4         7         6        19     9        0.000000        0.046866         1    ;  uncertainty k = 0.324517
         4         7         6        19     9      180.000000       14.145532         2    ;  uncertainty k = 0.227016
         4         7         6        19     9        0.000000        1.428161         3    ;  uncertainty k = 0.294474
         4         7         6        19     9      180.000000        1.335092         4    ;  uncertainty k = 0.089393
         4         8         9        11     9        0.000000        0.276246         1    ;  uncertainty k = 1.378828
         4         8         9        11     9      180.000000        4.107860         2    ;  uncertainty k = 1.229742
         4         8         9        11     9        0.000000        0.641226         3    ;  uncertainty k = 0.225229
         4         8         9        11     9      180.000000        0.484712         4    ;  uncertainty k = 0.355038
         4         8         9        28     9        0.000000        2.434066         1    ;  uncertainty k = 2.380345
         4         8         9        28     9      180.000000        5.178657         2    ;  uncertainty k = 0.955652
         4         8         9        28     9        0.000000        1.798372         3    ;  uncertainty k = 0.147455
         4         8         9        28     9      180.000000       -0.011961         4    ;  uncertainty k = 0.088708
         5         2         1        18     9        0.000000        0.035748         1    ;  uncertainty k = 0.111275
         5         2         1        18     9      180.000000        9.834909         2    ;  uncertainty k = 0.290044
         5         2         1        18     9        0.000000        0.953279         3    ;  uncertainty k = 0.315912
         5         2         1        18     9      180.000000        1.223331         4    ;  uncertainty k = 0.296420
         5         2         4         7     9        0.000000        0.038463         1    ;  uncertainty k = 0.444830
         5         2         4         7     9      180.000000        8.587017         2    ;  uncertainty k = 0.671836
         5         2         4         7     9        0.000000        0.713149         3    ;  uncertainty k = 0.200155
         5         2         4         7     9      180.000000        1.463394         4    ;  uncertainty k = 0.249537
         5         2         4         8     9        0.000000       -0.318912         1    ;  uncertainty k = 0.501585
         5         2         4         8     9      180.000000        7.364334         2    ;  uncertainty k = 0.847824
         5         2         4         8     9        0.000000        1.039164         3    ;  uncertainty k = 0.400747
         5         2         4         8     9      180.000000        1.558526         4    ;  uncertainty k = 0.213351
         5        11         9         8     9        0.000000        0.260345         1    ;  uncertainty k = 0.744534
         5        11         9         8     9      180.000000        7.151947         2    ;  uncertainty k = 0.710411
         5        11         9         8     9        0.000000        0.556205         3    ;  uncertainty k = 0.726166
         5        11         9         8     9      180.000000        0.390384         4    ;  uncertainty k = 0.219598
         5        11         9        28     9        0.000000        6.065384         1    ;  uncertainty k = 1.650690
         5        11         9        28     9      180.000000       11.046837         2    ;  uncertainty k = 0.751346
         5        11         9        28     9        0.000000        1.163981         3    ;  uncertainty k = 0.602529
         5        11         9        28     9      180.000000       -0.243028         4    ;  uncertainty k = 0.111389
         5        11        12        13     9        0.000000        0.794715         1    ;  uncertainty k = 0.690677
         5        11        12        13     9      180.000000        3.956046         2    ;  uncertainty k = 0.298849
         5        11        12        13     9        0.000000        0.581249         3    ;  uncertainty k = 0.195406
         5        11        12        13     9      180.000000       -0.122035         4    ;  uncertainty k = 0.148595
         5        11        12        17     9        0.000000        0.794715         1    ;  uncertainty k = 0.690677
         5        11        12        17     9      180.000000        3.956046         2    ;  uncertainty k = 0.298849
         5        11        12        17     9        0.000000        0.581249         3    ;  uncertainty k = 0.195406
         5        11        12        17     9      180.000000       -0.122035         4    ;  uncertainty k = 0.148595
         6         3         1        18     9        0.000000        0.165929         1    ;  uncertainty k = 0.147205
         6         3         1        18     9      180.000000       12.371069         2    ;  uncertainty k = 0.407532
         6         3         1        18     9        0.000000        1.395374         3    ;  uncertainty k = 0.475066
         6         3         1        18     9      180.000000        1.730385         4    ;  uncertainty k = 0.265547
         6         7         4         8     9        0.000000        0.224040         1    ;  uncertainty k = 0.245527
         6         7         4         8     9      180.000000        9.027461         2    ;  uncertainty k = 0.664720
         6         7         4         8     9        0.000000        1.382491         3    ;  uncertainty k = 0.223697
         6         7         4         8     9      180.000000        1.831307         4    ;  uncertainty k = 0.221420
         7         4         8         9     9        0.000000        0.342639         1    ;  uncertainty k = 0.671986
         7         4         8         9     9      180.000000        2.990341         2    ;  uncertainty k = 0.603025
         7         4         8         9     9        0.000000        0.643755         3    ;  uncertainty k = 0.388268
         7         4         8         9     9      180.000000        0.530074         4    ;  uncertainty k = 0.265179
         7         4         8        10     9        0.000000       -2.145286         1    ;  uncertainty k = 0.588023
         7         4         8        10     9      180.000000        5.417318         2    ;  uncertainty k = 0.631896
         7         4         8        10     9        0.000000        0.509742         3    ;  uncertainty k = 0.299702
         7         4         8        10     9      180.000000       -0.110827         4    ;  uncertainty k = 0.117123
         7         6         3        26     9        0.000000       -0.003076         1    ;  uncertainty k = 0.385379
         7         6         3        26     9      180.000000        5.349108         2    ;  uncertainty k = 0.633324
         7         6         3        26     9        0.000000        1.187736         3    ;  uncertainty k = 0.211863
         7         6         3        26     9      180.000000        1.390850         4    ;  uncertainty k = 0.168830
         8         4         7        27     9        0.000000       -0.397729         1    ;  uncertainty k = 0.706623
         8         4         7        27     9      180.000000        7.620397         2    ;  uncertainty k = 0.403376
         8         4         7        27     9        0.000000        0.928923         3    ;  uncertainty k = 0.245975
         8         4         7        27     9      180.000000        1.200455         4    ;  uncertainty k = 0.140897
         8         9        11        12     9        0.000000        1.075617         1    ;  uncertainty k = 0.762265
         8         9        11        12     9      180.000000        5.485743         2    ;  uncertainty k = 0.773779
         8         9        11        12     9        0.000000        0.550239         3    ;  uncertainty k = 0.337292
         8         9        11        12     9      180.000000       -0.095006         4    ;  uncertainty k = 0.321618
         9        11        12        13     9        0.000000       -0.021950         1    ;  uncertainty k = 0.343841
         9        11        12        13     9      180.000000        4.147032         2    ;  uncertainty k = 0.386928
         9        11        12        13     9        0.000000        0.555485         3    ;  uncertainty k = 0.120350
         9        11        12        13     9      180.000000       -0.114760         4    ;  uncertainty k = 0.037444
         9        11        12        17     9        0.000000       -0.021950         1    ;  uncertainty k = 0.343841
         9        11        12        17     9      180.000000        4.147032         2    ;  uncertainty k = 0.386928
         9        11        12        17     9        0.000000        0.555485         3    ;  uncertainty k = 0.120350
         9        11        12        17     9      180.000000       -0.114760         4    ;  uncertainty k = 0.037444
        10         8         9        11     9        0.000000        0.127245         1    ;  uncertainty k = 1.121683
        10         8         9        11     9      180.000000       11.229615         2    ;  uncertainty k = 0.462697
        10         8         9        11     9        0.000000        1.301863         3    ;  uncertainty k = 0.370929
        10         8         9        11     9      180.000000       -0.501672         4    ;  uncertainty k = 0.406473
        10         8         9        28     9        0.000000        1.557424         1    ;  uncertainty k = 2.536981
        10         8         9        28     9      180.000000        9.275895         2    ;  uncertainty k = 0.599165
        10         8         9        28     9        0.000000        0.736764         3    ;  uncertainty k = 0.510834
        10         8         9        28     9      180.000000       -0.116238         4    ;  uncertainty k = 0.056838
        11        12        13        14     9        0.000000        0.101850         1    ;  uncertainty k = 0.215557
        11        12        13        14     9      180.000000        8.974403         2    ;  uncertainty k = 0.602231
        11        12        13        14     9        0.000000        1.324278         3    ;  uncertainty k = 0.263744
        11        12        13        14     9      180.000000        1.720276         4    ;  uncertainty k = 0.201582
        11        12        13        29     9        0.000000       -0.277101         1    ;  uncertainty k = 0.139093
        11        12        13        29     9      180.000000        7.155449         2    ;  uncertainty k = 0.250424
        11        12        13        29     9        0.000000        0.715237         3    ;  uncertainty k = 0.183151
        11        12        13        29     9      180.000000        1.062175         4    ;  uncertainty k = 0.170705
        11        12        17        16     9        0.000000        0.101850         1    ;  uncertainty k = 0.215557
        11        12        17        16     9      180.000000        8.974403         2    ;  uncertainty k = 0.602231
        11        12        17        16     9        0.000000        1.324278         3    ;  uncertainty k = 0.263744
        11        12        17        16     9      180.000000        1.720276         4    ;  uncertainty k = 0.201582
        11        12        17        32     9        0.000000       -0.277101         1    ;  uncertainty k = 0.139093
        11        12        17        32     9      180.000000        7.155449         2    ;  uncertainty k = 0.250424
        11        12        17        32     9        0.000000        0.715237         3    ;  uncertainty k = 0.183151
        11        12        17        32     9      180.000000        1.062175         4    ;  uncertainty k = 0.170705
        12        11         9        28     9        0.000000        0.896796         1    ;  uncertainty k = 0.159572
        12        11         9        28     9      180.000000        4.738319         2    ;  uncertainty k = 0.902579
        12        11         9        28     9        0.000000        1.356618         3    ;  uncertainty k = 0.255867
        12        11         9        28     9      180.000000       -0.079382         4    ;  uncertainty k = 0.269441
        12        13        14        15     9        0.000000       -0.136746         1    ;  uncertainty k = 0.342976
        12        13        14        15     9      180.000000       12.963085         2    ;  uncertainty k = 0.170319
        12        13        14        15     9        0.000000       -0.759639         3    ;  uncertainty k = 0.528128
        12        13        14        15     9      180.000000        0.857474         4    ;  uncertainty k = 0.277718
        12        13        14        30     9        0.000000        0.090811         1    ;  uncertainty k = 0.102091
        12        13        14        30     9      180.000000        8.136184         2    ;  uncertainty k = 0.296933
        12        13        14        30     9        0.000000        1.435449         3    ;  uncertainty k = 0.234663
        12        13        14        30     9      180.000000        1.865610         4    ;  uncertainty k = 0.190535
        12        17        16        15     9        0.000000       -0.136746         1    ;  uncertainty k = 0.342976
        12        17        16        15     9      180.000000       12.963085         2    ;  uncertainty k = 0.170319
        12        17        16        15     9        0.000000       -0.759639         3    ;  uncertainty k = 0.528128
        12        17        16        15     9      180.000000        0.857474         4    ;  uncertainty k = 0.277718
        12        17        16        31     9        0.000000        0.090811         1    ;  uncertainty k = 0.102091
        12        17        16        31     9      180.000000        8.136184         2    ;  uncertainty k = 0.296933
        12        17        16        31     9        0.000000        1.435449         3    ;  uncertainty k = 0.234663
        12        17        16        31     9      180.000000        1.865610         4    ;  uncertainty k = 0.190535
        13        12        17        16     9        0.000000        0.079774         1    ;  uncertainty k = 0.115158
        13        12        17        16     9      180.000000       10.977376         2    ;  uncertainty k = 0.295190
        13        12        17        16     9        0.000000       -0.642110         3    ;  uncertainty k = 0.192275
        13        12        17        16     9      180.000000        0.950663         4    ;  uncertainty k = 0.281409
        13        12        17        32     9        0.000000        0.078769         1    ;  uncertainty k = 0.157075
        13        12        17        32     9      180.000000        6.861581         2    ;  uncertainty k = 0.550974
        13        12        17        32     9        0.000000        1.312357         3    ;  uncertainty k = 0.236134
        13        12        17        32     9      180.000000        1.582469         4    ;  uncertainty k = 0.252484
        13        14        15        16     9        0.000000       -0.132899         1    ;  uncertainty k = 0.255959
        13        14        15        16     9      180.000000       11.186029         2    ;  uncertainty k = 0.287867
        13        14        15        16     9        0.000000       -0.301599         3    ;  uncertainty k = 0.238141
        13        14        15        16     9      180.000000        0.876559         4    ;  uncertainty k = 0.302260
        13        14        15        20     9        0.000000        0.128364         1    ;  uncertainty k = 0.271556
        13        14        15        20     9      180.000000        8.223691         2    ;  uncertainty k = 0.382147
        13        14        15        20     9        0.000000        1.376710         3    ;  uncertainty k = 0.428107
        13        14        15        20     9      180.000000        1.868861         4    ;  uncertainty k = 0.157260
        14        13        12        17     9        0.000000        0.079774         1    ;  uncertainty k = 0.115158
        14        13        12        17     9      180.000000       10.977376         2    ;  uncertainty k = 0.295190
        14        13        12        17     9        0.000000       -0.642110         3    ;  uncertainty k = 0.192275
        14        13        12        17     9      180.000000        0.950663         4    ;  uncertainty k = 0.281409
        14        15        16        17     9        0.000000       -0.132899         1    ;  uncertainty k = 0.255959
        14        15        16        17     9      180.000000       11.186029         2    ;  uncertainty k = 0.287867
        14        15        16        17     9        0.000000       -0.301599         3    ;  uncertainty k = 0.238141
        14        15        16        17     9      180.000000        0.876559         4    ;  uncertainty k = 0.302260
        14        15        16        31     9        0.000000        0.064543         1    ;  uncertainty k = 0.170735
        14        15        16        31     9      180.000000        7.186664         2    ;  uncertainty k = 0.332693
        14        15        16        31     9        0.000000        1.450523         3    ;  uncertainty k = 0.364067
        14        15        16        31     9      180.000000        1.608596         4    ;  uncertainty k = 0.155133
        14        15        20        21     9        0.000000       -0.566710         1    ;  uncertainty k = 0.224334
        14        15        20        21     9      180.000000        2.662942         2    ;  uncertainty k = 0.203232
        14        15        20        21     9        0.000000        0.356775         3    ;  uncertainty k = 0.053879
        14        15        20        21     9      180.000000        0.279798         4    ;  uncertainty k = 0.050737
        14        15        20        25     9        0.000000       -0.566710         1    ;  uncertainty k = 0.224334
        14        15        20        25     9      180.000000        2.662940         2    ;  uncertainty k = 0.203233
        14        15        20        25     9        0.000000        0.356774         3    ;  uncertainty k = 0.053879
        14        15        20        25     9      180.000000        0.279798         4    ;  uncertainty k = 0.050737
        14        15        20        36     9        0.000000       -0.284272         1    ;  uncertainty k = 0.364458
        14        15        20        36     9      180.000000        1.937337         2    ;  uncertainty k = 0.280809
        14        15        20        36     9        0.000000        0.499032         3    ;  uncertainty k = 0.125288
        14        15        20        36     9      180.000000        0.316902         4    ;  uncertainty k = 0.029390
        15        14        13        29     9        0.000000       -0.001558         1    ;  uncertainty k = 0.183479
        15        14        13        29     9      180.000000        7.585983         2    ;  uncertainty k = 0.319078
        15        14        13        29     9        0.000000        1.315538         3    ;  uncertainty k = 0.335565
        15        14        13        29     9      180.000000        1.871310         4    ;  uncertainty k = 0.163720
        15        16        17        32     9        0.000000       -0.001558         1    ;  uncertainty k = 0.183479
        15        16        17        32     9      180.000000        7.585983         2    ;  uncertainty k = 0.319078
        15        16        17        32     9        0.000000        1.315538         3    ;  uncertainty k = 0.335565
        15        16        17        32     9      180.000000        1.871310         4    ;  uncertainty k = 0.163720
        15        20        21        22     9        0.000000       -3.953589         1    ;  uncertainty k = 0.873361
        15        20        21        22     9      180.000000        0.713975         2    ;  uncertainty k = 0.231023
        15        20        21        22     9        0.000000        1.019276         3    ;  uncertainty k = 0.130694
        15        20        21        22     9      180.000000       -0.059183         4    ;  uncertainty k = 0.140074
        15        20        21        37     9        0.000000        1.055859         1    ;  uncertainty k = 0.298925
        15        20        21        37     9      180.000000       -0.294046         2    ;  uncertainty k = 0.280367
        15        20        21        37     9        0.000000        0.968318         3    ;  uncertainty k = 0.092166
        15        20        21        37     9      180.000000        0.013303         4    ;  uncertainty k = 0.060103
        15        20        21        38     9        0.000000        1.055859         1    ;  uncertainty k = 0.298925
        15        20        21        38     9      180.000000       -0.294046         2    ;  uncertainty k = 0.280367
        15        20        21        38     9        0.000000        0.968318         3    ;  uncertainty k = 0.092166
        15        20        21        38     9      180.000000        0.013303         4    ;  uncertainty k = 0.060103
        15        20        25        24     9        0.000000       -3.953590         1    ;  uncertainty k = 0.873362
        15        20        25        24     9      180.000000        0.713975         2    ;  uncertainty k = 0.231022
        15        20        25        24     9        0.000000        1.019277         3    ;  uncertainty k = 0.130694
        15        20        25        24     9      180.000000       -0.059183         4    ;  uncertainty k = 0.140074
        15        20        25        44     9        0.000000        1.055858         1    ;  uncertainty k = 0.298925
        15        20        25        44     9      180.000000       -0.294046         2    ;  uncertainty k = 0.280369
        15        20        25        44     9        0.000000        0.968318         3    ;  uncertainty k = 0.092167
        15        20        25        44     9      180.000000        0.013303         4    ;  uncertainty k = 0.060102
        15        20        25        45     9        0.000000        1.055858         1    ;  uncertainty k = 0.298925
        15        20        25        45     9      180.000000       -0.294046         2    ;  uncertainty k = 0.280369
        15        20        25        45     9        0.000000        0.968318         3    ;  uncertainty k = 0.092167
        15        20        25        45     9      180.000000        0.013303         4    ;  uncertainty k = 0.060102
        16        15        14        30     9        0.000000        0.064543         1    ;  uncertainty k = 0.170735
        16        15        14        30     9      180.000000        7.186664         2    ;  uncertainty k = 0.332693
        16        15        14        30     9        0.000000        1.450523         3    ;  uncertainty k = 0.364067
        16        15        14        30     9      180.000000        1.608596         4    ;  uncertainty k = 0.155133
        16        15        20        21     9        0.000000       -0.566710         1    ;  uncertainty k = 0.224334
        16        15        20        21     9      180.000000        2.662942         2    ;  uncertainty k = 0.203232
        16        15        20        21     9        0.000000        0.356775         3    ;  uncertainty k = 0.053879
        16        15        20        21     9      180.000000        0.279798         4    ;  uncertainty k = 0.050737
        16        15        20        25     9        0.000000       -0.566710         1    ;  uncertainty k = 0.224334
        16        15        20        25     9      180.000000        2.662940         2    ;  uncertainty k = 0.203233
        16        15        20        25     9        0.000000        0.356774         3    ;  uncertainty k = 0.053879
        16        15        20        25     9      180.000000        0.279798         4    ;  uncertainty k = 0.050737
        16        15        20        36     9        0.000000       -0.284272         1    ;  uncertainty k = 0.364458
        16        15        20        36     9      180.000000        1.937337         2    ;  uncertainty k = 0.280809
        16        15        20        36     9        0.000000        0.499032         3    ;  uncertainty k = 0.125288
        16        15        20        36     9      180.000000        0.316902         4    ;  uncertainty k = 0.029390
        17        12        13        29     9        0.000000        0.078769         1    ;  uncertainty k = 0.157075
        17        12        13        29     9      180.000000        6.861581         2    ;  uncertainty k = 0.550974
        17        12        13        29     9        0.000000        1.312357         3    ;  uncertainty k = 0.236134
        17        12        13        29     9      180.000000        1.582469         4    ;  uncertainty k = 0.252484
        17        16        15        20     9        0.000000        0.128364         1    ;  uncertainty k = 0.271556
        17        16        15        20     9      180.000000        8.223691         2    ;  uncertainty k = 0.382147
        17        16        15        20     9        0.000000        1.376710         3    ;  uncertainty k = 0.428107
        17        16        15        20     9      180.000000        1.868861         4    ;  uncertainty k = 0.157260
        18         1         3        26     9        0.000000       -0.303250         1    ;  uncertainty k = 0.309929
        18         1         3        26     9      180.000000        9.141893         2    ;  uncertainty k = 0.424482
        18         1         3        26     9        0.000000        0.727216         3    ;  uncertainty k = 0.302195
        18         1         3        26     9      180.000000        1.166579         4    ;  uncertainty k = 0.166019
        19         6         3        26     9        0.000000       -0.142189         1    ;  uncertainty k = 0.328787
        19         6         3        26     9      180.000000        8.846603         2    ;  uncertainty k = 0.339539
        19         6         3        26     9        0.000000        0.777188         3    ;  uncertainty k = 0.267076
        19         6         3        26     9      180.000000        0.906640         4    ;  uncertainty k = 0.199556
        19         6         7        27     9        0.000000       -0.393781         1    ;  uncertainty k = 0.262327
        19         6         7        27     9      180.000000        9.745063         2    ;  uncertainty k = 0.435080
        19         6         7        27     9        0.000000        0.931965         3    ;  uncertainty k = 0.242917
        19         6         7        27     9      180.000000        0.990273         4    ;  uncertainty k = 0.235528
        20        15        14        30     9        0.000000       -0.098713         1    ;  uncertainty k = 0.419604
        20        15        14        30     9      180.000000        7.813399         2    ;  uncertainty k = 0.217822
        20        15        14        30     9        0.000000        0.681561         3    ;  uncertainty k = 0.321944
        20        15        14        30     9      180.000000        0.967742         4    ;  uncertainty k = 0.119473
        20        15        16        31     9        0.000000       -0.098713         1    ;  uncertainty k = 0.419604
        20        15        16        31     9      180.000000        7.813399         2    ;  uncertainty k = 0.217822
        20        15        16        31     9        0.000000        0.681561         3    ;  uncertainty k = 0.321944
        20        15        16        31     9      180.000000        0.967742         4    ;  uncertainty k = 0.119473
        20        21        22        23     9        0.000000       -2.192699         1    ;  uncertainty k = 1.041346
        20        21        22        23     9      180.000000       -2.035314         2    ;  uncertainty k = 0.656834
        20        21        22        23     9        0.000000        2.289125         3    ;  uncertainty k = 0.287178
        20        21        22        23     9      180.000000       -0.967851         4    ;  uncertainty k = 0.180308
        20        21        22        39     9        0.000000        3.062126         1    ;  uncertainty k = 0.924693
        20        21        22        39     9      180.000000       -2.552958         2    ;  uncertainty k = 0.584972
        20        21        22        39     9        0.000000       -0.017518         3    ;  uncertainty k = 0.216718
        20        21        22        39     9      180.000000        0.371778         4    ;  uncertainty k = 0.104388
        20        21        22        40     9        0.000000        3.062126         1    ;  uncertainty k = 0.924693
        20        21        22        40     9      180.000000       -2.552958         2    ;  uncertainty k = 0.584972
        20        21        22        40     9        0.000000       -0.017518         3    ;  uncertainty k = 0.216718
        20        21        22        40     9      180.000000        0.371778         4    ;  uncertainty k = 0.104388
        20        25        24        23     9        0.000000       -2.192699         1    ;  uncertainty k = 1.041347
        20        25        24        23     9      180.000000       -2.035315         2    ;  uncertainty k = 0.656835
        20        25        24        23     9        0.000000        2.289125         3    ;  uncertainty k = 0.287177
        20        25        24        23     9      180.000000       -0.967850         4    ;  uncertainty k = 0.180308
        20        25        24        42     9        0.000000        3.062124         1    ;  uncertainty k = 0.924691
        20        25        24        42     9      180.000000       -2.552957         2    ;  uncertainty k = 0.584972
        20        25        24        42     9        0.000000       -0.017518         3    ;  uncertainty k = 0.216718
        20        25        24        42     9      180.000000        0.371777         4    ;  uncertainty k = 0.104388
        20        25        24        43     9        0.000000        3.062124         1    ;  uncertainty k = 0.924691
        20        25        24        43     9      180.000000       -2.552957         2    ;  uncertainty k = 0.584972
        20        25        24        43     9        0.000000       -0.017518         3    ;  uncertainty k = 0.216718
        20        25        24        43     9      180.000000        0.371777         4    ;  uncertainty k = 0.104388
        21        20        25        24     9        0.000000       -6.459814         1    ;  uncertainty k = 1.447670
        21        20        25        24     9      180.000000        0.797955         2    ;  uncertainty k = 0.654945
        21        20        25        24     9        0.000000        1.428328         3    ;  uncertainty k = 0.163157
        21        20        25        24     9      180.000000       -1.421570         4    ;  uncertainty k = 0.218468
        21        20        25        44     9        0.000000       -1.866246         1    ;  uncertainty k = 0.471505
        21        20        25        44     9      180.000000       -0.123330         2    ;  uncertainty k = 0.161167
        21        20        25        44     9        0.000000        0.433242         3    ;  uncertainty k = 0.143902
        21        20        25        44     9      180.000000       -0.110976         4    ;  uncertainty k = 0.054765
        21        20        25        45     9        0.000000       -1.866246         1    ;  uncertainty k = 0.471505
        21        20        25        45     9      180.000000       -0.123330         2    ;  uncertainty k = 0.161167
        21        20        25        45     9        0.000000        0.433242         3    ;  uncertainty k = 0.143902
        21        20        25        45     9      180.000000       -0.110976         4    ;  uncertainty k = 0.054765
        21        22        23        24     9        0.000000       -5.135157         1    ;  uncertainty k = 2.125247
        21        22        23        24     9      180.000000       -1.202368         2    ;  uncertainty k = 0.946079
        21        22        23        24     9        0.000000        1.752748         3    ;  uncertainty k = 0.267196
        21        22        23        24     9      180.000000       -0.690522         4    ;  uncertainty k = 0.292278
        21        22        23        41     9        0.000000        7.068940         1    ;  uncertainty k = 0.490106
        21        22        23        41     9      180.000000       -4.533060         2    ;  uncertainty k = 0.208877
        21        22        23        41     9        0.000000        0.825272         3    ;  uncertainty k = 0.280449
        21        22        23        41     9      180.000000        0.389569         4    ;  uncertainty k = 0.211148
        22        21        20        25     9        0.000000       -6.459813         1    ;  uncertainty k = 1.447671
        22        21        20        25     9      180.000000        0.797955         2    ;  uncertainty k = 0.654944
        22        21        20        25     9        0.000000        1.428327         3    ;  uncertainty k = 0.163157
        22        21        20        25     9      180.000000       -1.421570         4    ;  uncertainty k = 0.218469
        22        21        20        36     9        0.000000       -2.107795         1    ;  uncertainty k = 0.664211
        22        21        20        36     9      180.000000       -0.544150         2    ;  uncertainty k = 0.212725
        22        21        20        36     9        0.000000        0.072384         3    ;  uncertainty k = 0.158418
        22        21        20        36     9      180.000000       -0.083684         4    ;  uncertainty k = 0.049658
        22        23        24        25     9        0.000000       -5.135155         1    ;  uncertainty k = 2.125245
        22        23        24        25     9      180.000000       -1.202367         2    ;  uncertainty k = 0.946079
        22        23        24        25     9        0.000000        1.752748         3    ;  uncertainty k = 0.267196
        22        23        24        25     9      180.000000       -0.690522         4    ;  uncertainty k = 0.292278
        22        23        24        42     9        0.000000       -5.998005         1    ;  uncertainty k = 0.704934
        22        23        24        42     9      180.000000       -0.996609         2    ;  uncertainty k = 0.362684
        22        23        24        42     9        0.000000        1.071518         3    ;  uncertainty k = 0.147179
        22        23        24        42     9      180.000000        0.155893         4    ;  uncertainty k = 0.084620
        22        23        24        43     9        0.000000       -5.998005         1    ;  uncertainty k = 0.704934
        22        23        24        43     9      180.000000       -0.996609         2    ;  uncertainty k = 0.362684
        22        23        24        43     9        0.000000        1.071518         3    ;  uncertainty k = 0.147179
        22        23        24        43     9      180.000000        0.155893         4    ;  uncertainty k = 0.084620
        23        22        21        37     9        0.000000       -1.744526         1    ;  uncertainty k = 0.317708
        23        22        21        37     9      180.000000        0.443224         2    ;  uncertainty k = 0.258185
        23        22        21        37     9        0.000000        1.365875         3    ;  uncertainty k = 0.108878
        23        22        21        37     9      180.000000       -0.212569         4    ;  uncertainty k = 0.157232
        23        22        21        38     9        0.000000       -1.744526         1    ;  uncertainty k = 0.317708
        23        22        21        38     9      180.000000        0.443224         2    ;  uncertainty k = 0.258185
        23        22        21        38     9        0.000000        1.365875         3    ;  uncertainty k = 0.108878
        23        22        21        38     9      180.000000       -0.212569         4    ;  uncertainty k = 0.157232
        23        24        25        44     9        0.000000       -1.744525         1    ;  uncertainty k = 0.317708
        23        24        25        44     9      180.000000        0.443224         2    ;  uncertainty k = 0.258187
        23        24        25        44     9        0.000000        1.365875         3    ;  uncertainty k = 0.108878
        23        24        25        44     9      180.000000       -0.212569         4    ;  uncertainty k = 0.157232
        23        24        25        45     9        0.000000       -1.744525         1    ;  uncertainty k = 0.317708
        23        24        25        45     9      180.000000        0.443224         2    ;  uncertainty k = 0.258187
        23        24        25        45     9        0.000000        1.365875         3    ;  uncertainty k = 0.108878
        23        24        25        45     9      180.000000       -0.212569         4    ;  uncertainty k = 0.157232
        24        23        22        39     9        0.000000       -5.998006         1    ;  uncertainty k = 0.704932
        24        23        22        39     9      180.000000       -0.996609         2    ;  uncertainty k = 0.362684
        24        23        22        39     9        0.000000        1.071518         3    ;  uncertainty k = 0.147179
        24        23        22        39     9      180.000000        0.155893         4    ;  uncertainty k = 0.084620
        24        23        22        40     9        0.000000       -5.998006         1    ;  uncertainty k = 0.704932
        24        23        22        40     9      180.000000       -0.996609         2    ;  uncertainty k = 0.362684
        24        23        22        40     9        0.000000        1.071518         3    ;  uncertainty k = 0.147179
        24        23        22        40     9      180.000000        0.155893         4    ;  uncertainty k = 0.084620
        24        25        20        36     9        0.000000       -2.107794         1    ;  uncertainty k = 0.664212
        24        25        20        36     9      180.000000       -0.544151         2    ;  uncertainty k = 0.212726
        24        25        20        36     9        0.000000        0.072384         3    ;  uncertainty k = 0.158419
        24        25        20        36     9      180.000000       -0.083684         4    ;  uncertainty k = 0.049658
        25        20        21        37     9        0.000000       -1.866247         1    ;  uncertainty k = 0.471503
        25        20        21        37     9      180.000000       -0.123331         2    ;  uncertainty k = 0.161167
        25        20        21        37     9        0.000000        0.433243         3    ;  uncertainty k = 0.143901
        25        20        21        37     9      180.000000       -0.110976         4    ;  uncertainty k = 0.054766
        25        20        21        38     9        0.000000       -1.866247         1    ;  uncertainty k = 0.471503
        25        20        21        38     9      180.000000       -0.123331         2    ;  uncertainty k = 0.161167
        25        20        21        38     9        0.000000        0.433243         3    ;  uncertainty k = 0.143901
        25        20        21        38     9      180.000000       -0.110976         4    ;  uncertainty k = 0.054766
        25        24        23        41     9        0.000000        7.068940         1    ;  uncertainty k = 0.490107
        25        24        23        41     9      180.000000       -4.533060         2    ;  uncertainty k = 0.208877
        25        24        23        41     9        0.000000        0.825272         3    ;  uncertainty k = 0.280449
        25        24        23        41     9      180.000000        0.389569         4    ;  uncertainty k = 0.211148
        29        13        14        30     9        0.000000       -0.101338         1    ;  uncertainty k = 0.131609
        29        13        14        30     9      180.000000        7.997056         2    ;  uncertainty k = 0.394783
        29        13        14        30     9        0.000000       -0.404297         3    ;  uncertainty k = 0.200580
        29        13        14        30     9      180.000000        0.285366         4    ;  uncertainty k = 0.217525
        31        16        17        32     9        0.000000       -0.101338         1    ;  uncertainty k = 0.131609
        31        16        17        32     9      180.000000        7.997056         2    ;  uncertainty k = 0.394783
        31        16        17        32     9        0.000000       -0.404297         3    ;  uncertainty k = 0.200580
        31        16        17        32     9      180.000000        0.285366         4    ;  uncertainty k = 0.217525
        36        20        21        37     9        0.000000        1.665265         1    ;  uncertainty k = 0.299796
        36        20        21        37     9      180.000000       -0.220508         2    ;  uncertainty k = 0.211526
        36        20        21        37     9        0.000000       -0.037008         3    ;  uncertainty k = 0.098591
        36        20        21        37     9      180.000000        0.103526         4    ;  uncertainty k = 0.077647
        36        20        21        38     9        0.000000        1.665265         1    ;  uncertainty k = 0.299796
        36        20        21        38     9      180.000000       -0.220508         2    ;  uncertainty k = 0.211526
        36        20        21        38     9        0.000000       -0.037008         3    ;  uncertainty k = 0.098591
        36        20        21        38     9      180.000000        0.103526         4    ;  uncertainty k = 0.077647
        36        20        25        44     9        0.000000        1.665264         1    ;  uncertainty k = 0.299795
        36        20        25        44     9      180.000000       -0.220507         2    ;  uncertainty k = 0.211526
        36        20        25        44     9        0.000000       -0.037008         3    ;  uncertainty k = 0.098592
        36        20        25        44     9      180.000000        0.103526         4    ;  uncertainty k = 0.077647
        36        20        25        45     9        0.000000        1.665264         1    ;  uncertainty k = 0.299795
        36        20        25        45     9      180.000000       -0.220507         2    ;  uncertainty k = 0.211526
        36        20        25        45     9        0.000000       -0.037008         3    ;  uncertainty k = 0.098592
        36        20        25        45     9      180.000000        0.103526         4    ;  uncertainty k = 0.077647
        37        21        22        39     9        0.000000        0.297670         1    ;  uncertainty k = 0.297461
        37        21        22        39     9      180.000000        0.535776         2    ;  uncertainty k = 0.308889
        37        21        22        39     9        0.000000        0.175334         3    ;  uncertainty k = 0.045459
        37        21        22        39     9      180.000000       -0.210445         4    ;  uncertainty k = 0.050208
        37        21        22        40     9        0.000000        0.297670         1    ;  uncertainty k = 0.297461
        37        21        22        40     9      180.000000        0.535776         2    ;  uncertainty k = 0.308889
        37        21        22        40     9        0.000000        0.175334         3    ;  uncertainty k = 0.045459
        37        21        22        40     9      180.000000       -0.210445         4    ;  uncertainty k = 0.050208
        38        21        22        39     9        0.000000        0.297670         1    ;  uncertainty k = 0.297461
        38        21        22        39     9      180.000000        0.535776         2    ;  uncertainty k = 0.308889
        38        21        22        39     9        0.000000        0.175334         3    ;  uncertainty k = 0.045459
        38        21        22        39     9      180.000000       -0.210445         4    ;  uncertainty k = 0.050208
        38        21        22        40     9        0.000000        0.297670         1    ;  uncertainty k = 0.297461
        38        21        22        40     9      180.000000        0.535776         2    ;  uncertainty k = 0.308889
        38        21        22        40     9        0.000000        0.175334         3    ;  uncertainty k = 0.045459
        38        21        22        40     9      180.000000       -0.210445         4    ;  uncertainty k = 0.050208
        39        22        23        41     9        0.000000        2.142112         1    ;  uncertainty k = 0.474541
        39        22        23        41     9      180.000000       -3.157791         2    ;  uncertainty k = 0.210535
        39        22        23        41     9        0.000000        0.034562         3    ;  uncertainty k = 0.145200
        39        22        23        41     9      180.000000        0.171772         4    ;  uncertainty k = 0.176983
        40        22        23        41     9        0.000000        2.142112         1    ;  uncertainty k = 0.474541
        40        22        23        41     9      180.000000       -3.157791         2    ;  uncertainty k = 0.210535
        40        22        23        41     9        0.000000        0.034562         3    ;  uncertainty k = 0.145200
        40        22        23        41     9      180.000000        0.171772         4    ;  uncertainty k = 0.176983
        41        23        24        42     9        0.000000        2.142113         1    ;  uncertainty k = 0.474541
        41        23        24        42     9      180.000000       -3.157790         2    ;  uncertainty k = 0.210535
        41        23        24        42     9        0.000000        0.034562         3    ;  uncertainty k = 0.145201
        41        23        24        42     9      180.000000        0.171772         4    ;  uncertainty k = 0.176983
        41        23        24        43     9        0.000000        2.142113         1    ;  uncertainty k = 0.474541
        41        23        24        43     9      180.000000       -3.157790         2    ;  uncertainty k = 0.210535
        41        23        24        43     9        0.000000        0.034562         3    ;  uncertainty k = 0.145201
        41        23        24        43     9      180.000000        0.171772         4    ;  uncertainty k = 0.176983
        42        24        25        44     9        0.000000        0.297670         1    ;  uncertainty k = 0.297463
        42        24        25        44     9      180.000000        0.535777         2    ;  uncertainty k = 0.308889
        42        24        25        44     9        0.000000        0.175333         3    ;  uncertainty k = 0.045459
        42        24        25        44     9      180.000000       -0.210445         4    ;  uncertainty k = 0.050208
        42        24        25        45     9        0.000000        0.297670         1    ;  uncertainty k = 0.297463
        42        24        25        45     9      180.000000        0.535777         2    ;  uncertainty k = 0.308889
        42        24        25        45     9        0.000000        0.175333         3    ;  uncertainty k = 0.045459
        42        24        25        45     9      180.000000       -0.210445         4    ;  uncertainty k = 0.050208
        43        24        25        44     9        0.000000        0.297670         1    ;  uncertainty k = 0.297463
        43        24        25        44     9      180.000000        0.535777         2    ;  uncertainty k = 0.308889
        43        24        25        44     9        0.000000        0.175333         3    ;  uncertainty k = 0.045459
        43        24        25        44     9      180.000000       -0.210445         4    ;  uncertainty k = 0.050208
        43        24        25        45     9        0.000000        0.297670         1    ;  uncertainty k = 0.297463
        43        24        25        45     9      180.000000        0.535777         2    ;  uncertainty k = 0.308889
        43        24        25        45     9        0.000000        0.175333         3    ;  uncertainty k = 0.045459
        43        24        25        45     9      180.000000       -0.210445         4    ;  uncertainty k = 0.050208

[ dihedrals ] ; impropers
;       ai        aj        ak        al funct           phase               k        pn
         1         2         3        18     4      180.000000       14.598771         2    ;  uncertainty k = 0.130151
         1         3        18         2     4      180.000000       14.598771         2    ;  uncertainty k = 0.130151
         1        18         2         3     4      180.000000       14.598771         2    ;  uncertainty k = 0.130151
         2         1         4         5     4      180.000000       21.516061         2    ;  uncertainty k = 0.075383
         2         4         5         1     4      180.000000       21.516061         2    ;  uncertainty k = 0.075383
         2         5         1         4     4      180.000000       21.516061         2    ;  uncertainty k = 0.075383
         3         1         6        26     4      180.000000        3.004266         2    ;  uncertainty k = 0.201134
         3         6        26         1     4      180.000000        3.004266         2    ;  uncertainty k = 0.201134
         3        26         1         6     4      180.000000        3.004266         2    ;  uncertainty k = 0.201134
         4         2         7         8     4      180.000000        5.879878         2    ;  uncertainty k = 0.274630
         4         7         8         2     4      180.000000        5.879878         2    ;  uncertainty k = 0.274630
         4         8         2         7     4      180.000000        5.879878         2    ;  uncertainty k = 0.274630
         6         3         7        19     4      180.000000       17.083694         2    ;  uncertainty k = 0.048816
         6         7        19         3     4      180.000000       17.083694         2    ;  uncertainty k = 0.048816
         6        19         3         7     4      180.000000       17.083694         2    ;  uncertainty k = 0.048816
         7         4         6        27     4      180.000000        3.386151         2    ;  uncertainty k = 0.082051
         7         6        27         4     4      180.000000        3.386151         2    ;  uncertainty k = 0.082051
         7        27         4         6     4      180.000000        3.386151         2    ;  uncertainty k = 0.082051
         8         4         9        10     4      180.000000       50.304812         2    ;  uncertainty k = 0.013989
         8         9        10         4     4      180.000000       50.304812         2    ;  uncertainty k = 0.013989
         8        10         4         9     4      180.000000       50.304812         2    ;  uncertainty k = 0.013989
         9         8        11        28     4      180.000000        0.683154         2    ;  uncertainty k = 0.498652
         9        11        28         8     4      180.000000        0.683154         2    ;  uncertainty k = 0.498652
         9        28         8        11     4      180.000000        0.683154         2    ;  uncertainty k = 0.498652
        11         5         9        12     4      180.000000       30.059862         2    ;  uncertainty k = 0.041824
        11         9        12         5     4      180.000000       30.059862         2    ;  uncertainty k = 0.041824
        11        12         5         9     4      180.000000       30.059862         2    ;  uncertainty k = 0.041824
        12        11        13        17     4      180.000000        8.511074         2    ;  uncertainty k = 0.217461
        12        13        17        11     4      180.000000        8.511074         2    ;  uncertainty k = 0.217461
        12        17        11        13     4      180.000000        8.511074         2    ;  uncertainty k = 0.217461
        13        12        14        29     4      180.000000        4.094939         2    ;  uncertainty k = 0.122585
        13        14        29        12     4      180.000000        4.094939         2    ;  uncertainty k = 0.122585
        13        29        12        14     4      180.000000        4.094939         2    ;  uncertainty k = 0.122585
        14        13        15        30     4      180.000000        3.496957         2    ;  uncertainty k = 0.169343
        14        15        30        13     4      180.000000        3.496957         2    ;  uncertainty k = 0.169343
        14        30        13        15     4      180.000000        3.496957         2    ;  uncertainty k = 0.169343
        15        14        16        20     4      180.000000       15.752102         2    ;  uncertainty k = 0.089383
        15        16        20        14     4      180.000000       15.752102         2    ;  uncertainty k = 0.089383
        15        20        14        16     4      180.000000       15.752102         2    ;  uncertainty k = 0.089383
        16        15        17        31     4      180.000000        3.496954         2    ;  uncertainty k = 0.169342
        16        17        31        15     4      180.000000        3.496954         2    ;  uncertainty k = 0.169342
        16        31        15        17     4      180.000000        3.496954         2    ;  uncertainty k = 0.169342
        17        12        16        32     4      180.000000        4.094933         2    ;  uncertainty k = 0.122585
        17        16        32        12     4      180.000000        4.094933         2    ;  uncertainty k = 0.122585
        17        32        12        16     4      180.000000        4.094933         2    ;  uncertainty k = 0.122585

[ pairs ]
;       ai        aj funct
         1         7     1
         1         8     1
         1        11     1
         1        19     1
         2         6     1
         2         9     1
         2        10     1
         2        12     1
         2        26     1
         2        27     1
         2        33     1
         2        34     1
         2        35     1
         3         4     1
         3         5     1
         3        27     1
         3        33     1
         3        34     1
         3        35     1
         4        11     1
         4        18     1
         4        19     1
         4        28     1
         5         7     1
         5         8     1
         5        13     1
         5        17     1
         5        18     1
         5        28     1
         6         8     1
         6        18     1
         7         9     1
         7        10     1
         7        26     1
         8        12     1
         8        27     1
         9        13     1
         9        17     1
        10        11     1
        10        28     1
        11        14     1
        11        16     1
        11        29     1
        11        32     1
        12        15     1
        12        28     1
        12        30     1
        12        31     1
        13        16     1
        13        20     1
        13        32     1
        14        17     1
        14        21     1
        14        25     1
        14        31     1
        14        36     1
        15        22     1
        15        24     1
        15        29     1
        15        32     1
        15        37     1
        15        38     1
        15        44     1
        15        45     1
        16        21     1
        16        25     1
        16        30     1
        16        36     1
        17        20     1
        17        29     1
        18        26     1
        19        26     1
        19        27     1
        20        23     1
        20        30     1
        20        31     1
        20        39     1
        20        40     1
        20        42     1
        20        43     1
        21        24     1
        21        41     1
        21        44     1
        21        45     1
        22        25     1
        22        36     1
        22        42     1
        22        43     1
        23        37     1
        23        38     1
        23        44     1
        23        45     1
        24        36     1
        24        39     1
        24        40     1
        25        37     1
        25        38     1
        25        41     1
        29        30     1
        31        32     1
        36        37     1
        36        38     1
        36        44     1
        36        45     1
        37        39     1
        37        40     1
        38        39     1
        38        40     1
        39        41     1
        40        41     1
        41        42     1
        41        43     1
        42        44     1
        42        45     1
        43        44     1
        43        45     1
