; ITP file created by ByteFF-joint-25, 2026-02-17 09:50:59.645994

[ atomtypes ]
;name           bonded.type        at.num        mass        charge   ptype           sigma         epsilon
 c0bf                                   6      0.0000       0.00000       A     3.31544e-01     4.12898e-01    ;  uncertainty sigma = 0.000010, epsilon = 0.001450
 c1bf                                   6      0.0000       0.00000       A     3.31538e-01     4.12882e-01    ;  uncertainty sigma = 0.000014, epsilon = 0.000998
 c2bf                                   6      0.0000       0.00000       A     3.31511e-01     4.13650e-01    ;  uncertainty sigma = 0.000005, epsilon = 0.000721
 c3bf                                   6      0.0000       0.00000       A     3.31548e-01     4.13980e-01    ;  uncertainty sigma = 0.000015, epsilon = 0.000513
 n4bf                                   7      0.0000       0.00000       A     3.38442e-01     3.94072e-01    ;  uncertainty sigma = 0.000023, epsilon = 0.001715
 c5bf                                   6      0.0000       0.00000       A     3.31503e-01     4.13294e-01    ;  uncertainty sigma = 0.000007, epsilon = 0.000525
 c6bf                                   6      0.0000       0.00000       A     3.31511e-01     4.13581e-01    ;  uncertainty sigma = 0.000007, epsilon = 0.000714
 c7bf                                   6      0.0000       0.00000       A     3.31541e-01     4.13541e-01    ;  uncertainty sigma = 0.000006, epsilon = 0.001270
 n8bf                                   7      0.0000       0.00000       A     3.26867e-01     4.92512e-01    ;  uncertainty sigma = 0.000088, epsilon = 0.003430
 o9bf                                   8      0.0000       0.00000       A     3.04814e-01     6.11899e-01    ;  uncertainty sigma = 0.000014, epsilon = 0.001624
 c10bf                                  6      0.0000       0.00000       A     3.31510e-01     4.13013e-01    ;  uncertainty sigma = 0.000015, epsilon = 0.001151
 c11bf                                  6      0.0000       0.00000       A     3.31501e-01     4.12893e-01    ;  uncertainty sigma = 0.000017, epsilon = 0.001086
 c12bf                                  6      0.0000       0.00000       A     3.31517e-01     4.13262e-01    ;  uncertainty sigma = 0.000004, epsilon = 0.000655
 c13bf                                  6      0.0000       0.00000       A     3.31511e-01     4.13305e-01    ;  uncertainty sigma = 0.000003, epsilon = 0.000548
 c14bf                                  6      0.0000       0.00000       A     3.31549e-01     4.13212e-01    ;  uncertainty sigma = 0.000009, epsilon = 0.000617
 c15bf                                  6      0.0000       0.00000       A     3.31511e-01     4.13305e-01    ;  uncertainty sigma = 0.000003, epsilon = 0.000548
 c16bf                                  6      0.0000       0.00000       A     3.31517e-01     4.13262e-01    ;  uncertainty sigma = 0.000004, epsilon = 0.000655
 f17bf                                  9      0.0000       0.00000       A     3.03388e-01     3.48460e-01    ;  uncertainty sigma = 0.000026, epsilon = 0.000727
 f18bf                                  9      0.0000       0.00000       A     3.03417e-01     3.47913e-01    ;  uncertainty sigma = 0.000011, epsilon = 0.000751
 c19bf                                  6      0.0000       0.00000       A     3.39772e-01     4.50957e-01    ;  uncertainty sigma = 0.000013, epsilon = 0.001388
 c20bf                                  6      0.0000       0.00000       A     3.39756e-01     4.51129e-01    ;  uncertainty sigma = 0.000008, epsilon = 0.000998
 c21bf                                  6      0.0000       0.00000       A     3.39757e-01     4.50710e-01    ;  uncertainty sigma = 0.000006, epsilon = 0.000758
 n22bf                                  7      0.0000       0.00000       A     2.58857e-01     1.06527e+01    ;  uncertainty sigma = 0.000038, epsilon = 0.001026
 c23bf                                  6      0.0000       0.00000       A     3.39757e-01     4.50710e-01    ;  uncertainty sigma = 0.000006, epsilon = 0.000758
 c24bf                                  6      0.0000       0.00000       A     3.39756e-01     4.51129e-01    ;  uncertainty sigma = 0.000008, epsilon = 0.000998
 c25bf                                  6      0.0000       0.00000       A     3.39780e-01     4.50832e-01    ;  uncertainty sigma = 0.000006, epsilon = 0.000514
 h26bf                                  1      0.0000       0.00000       A     2.62539e-01     6.72957e-02    ;  uncertainty sigma = 0.000010, epsilon = 0.000428
 h27bf                                  1      0.0000       0.00000       A     2.62584e-01     6.68454e-02    ;  uncertainty sigma = 0.000019, epsilon = 0.000520
 h28bf                                  1      0.0000       0.00000       A     1.10651e-01     4.13762e-02    ;  uncertainty sigma = 0.000058, epsilon = 0.001253
 h29bf                                  1      0.0000       0.00000       A     2.62566e-01     6.70592e-02    ;  uncertainty sigma = 0.000011, epsilon = 0.000549
 h30bf                                  1      0.0000       0.00000       A     2.62558e-01     6.70445e-02    ;  uncertainty sigma = 0.000012, epsilon = 0.000408
 h31bf                                  1      0.0000       0.00000       A     2.62558e-01     6.70445e-02    ;  uncertainty sigma = 0.000012, epsilon = 0.000408
 h32bf                                  1      0.0000       0.00000       A     2.62566e-01     6.70592e-02    ;  uncertainty sigma = 0.000011, epsilon = 0.000549
 h33bf                                  1      0.0000       0.00000       A     2.60049e-01     8.62140e-02    ;  uncertainty sigma = 0.000056, epsilon = 0.000860
 h34bf                                  1      0.0000       0.00000       A     2.60025e-01     8.68945e-02    ;  uncertainty sigma = 0.000016, epsilon = 0.000806
 h35bf                                  1      0.0000       0.00000       A     2.60025e-01     8.68946e-02    ;  uncertainty sigma = 0.000016, epsilon = 0.000806
 h36bf                                  1      0.0000       0.00000       A     1.88805e-01     8.66466e-02    ;  uncertainty sigma = 0.000064, epsilon = 0.000799
 h37bf                                  1      0.0000       0.00000       A     1.88805e-01     8.66466e-02    ;  uncertainty sigma = 0.000064, epsilon = 0.000799
 h38bf                                  1      0.0000       0.00000       A     1.88805e-01     8.66466e-02    ;  uncertainty sigma = 0.000064, epsilon = 0.000799
 h39bf                                  1      0.0000       0.00000       A     1.88805e-01     8.66466e-02    ;  uncertainty sigma = 0.000064, epsilon = 0.000799
 h40bf                                  1      0.0000       0.00000       A     2.60025e-01     8.68946e-02    ;  uncertainty sigma = 0.000016, epsilon = 0.000806
 h41bf                                  1      0.0000       0.00000       A     2.60025e-01     8.68946e-02    ;  uncertainty sigma = 0.000016, epsilon = 0.000806
 h42bf                                  1      0.0000       0.00000       A     1.88744e-01     8.64263e-02    ;  uncertainty sigma = 0.000038, epsilon = 0.000477
 h43bf                                  1      0.0000       0.00000       A     1.88744e-01     8.64263e-02    ;  uncertainty sigma = 0.000038, epsilon = 0.000477
 h44bf                                  1      0.0000       0.00000       A     1.88744e-01     8.64265e-02    ;  uncertainty sigma = 0.000038, epsilon = 0.000477
 h45bf                                  1      0.0000       0.00000       A     1.10646e-01     4.13023e-02    ;  uncertainty sigma = 0.000116, epsilon = 0.000734

[ moleculetype ]
;name             nrexcl
 MOL                   3

[ atoms ]
;       nr            type      resi   res      atom      cgnr      charge          mass ; qtot
         1            c0bf         1   UNL        c0         1     0.16197       12.0110 ; qtot    0.162
         2            c1bf         1   UNL        c1         2     0.14566       12.0110 ; qtot    0.308
         3            c2bf         1   UNL        c2         3    -0.17908       12.0110 ; qtot    0.129
         4            c3bf         1   UNL        c3         4    -0.15686       12.0110 ; qtot   -0.028
         5            n4bf         1   UNL        n4         5    -0.60330       14.0070 ; qtot   -0.632
         6            c5bf         1   UNL        c5         6     0.13654       12.0110 ; qtot   -0.495
         7            c6bf         1   UNL        c6         7    -0.11531       12.0110 ; qtot   -0.610
         8            c7bf         1   UNL        c7         8     0.71821       12.0110 ; qtot    0.108
         9            n8bf         1   UNL        n8         9    -0.50497       14.0070 ; qtot   -0.397
        10            o9bf         1   UNL        o9        10    -0.59810       15.9990 ; qtot   -0.995
        11           c10bf         1   UNL       c10        11     0.56809       12.0110 ; qtot   -0.427
        12           c11bf         1   UNL       c11        12    -0.15636       12.0110 ; qtot   -0.584
        13           c12bf         1   UNL       c12        13    -0.08643       12.0110 ; qtot   -0.670
        14           c13bf         1   UNL       c13        14    -0.12382       12.0110 ; qtot   -0.794
        15           c14bf         1   UNL       c14        15    -0.08102       12.0110 ; qtot   -0.875
        16           c15bf         1   UNL       c15        16    -0.12382       12.0110 ; qtot   -0.999
        17           c16bf         1   UNL       c16        17    -0.08643       12.0110 ; qtot   -1.085
        18           f17bf         1   UNL       f17        18    -0.11130       18.9980 ; qtot   -1.196
        19           f18bf         1   UNL       f18        19    -0.12916       18.9980 ; qtot   -1.325
        20           c19bf         1   UNL       c19        20    -0.00272       12.0110 ; qtot   -1.328
        21           c20bf         1   UNL       c20        21    -0.09783       12.0110 ; qtot   -1.426
        22           c21bf         1   UNL       c21        22     0.14074       12.0110 ; qtot   -1.285
        23           n22bf         1   UNL       n22        23    -0.71799       14.0070 ; qtot   -2.003
        24           c23bf         1   UNL       c23        24     0.14074       12.0110 ; qtot   -1.863
        25           c24bf         1   UNL       c24        25    -0.09783       12.0110 ; qtot   -1.960
        26           c25bf         1   UNL       c25        26     0.11327       12.0110 ; qtot   -1.847
        27           h26bf         1   UNL       h26        27     0.17388        1.0080 ; qtot   -1.673
        28           h27bf         1   UNL       h27        28     0.17999        1.0080 ; qtot   -1.493
        29           h28bf         1   UNL       h28        29     0.33625        1.0080 ; qtot   -1.157
        30           h29bf         1   UNL       h29        30     0.14599        1.0080 ; qtot   -1.011
        31           h30bf         1   UNL       h30        31     0.13584        1.0080 ; qtot   -0.875
        32           h31bf         1   UNL       h31        32     0.13584        1.0080 ; qtot   -0.739
        33           h32bf         1   UNL       h32        33     0.14599        1.0080 ; qtot   -0.593
        34           h33bf         1   UNL       h33        34     0.07756        1.0080 ; qtot   -0.516
        35           h34bf         1   UNL       h34        35     0.09020        1.0080 ; qtot   -0.426
        36           h35bf         1   UNL       h35        36     0.09020        1.0080 ; qtot   -0.335
        37           h36bf         1   UNL       h36        37     0.09962        1.0080 ; qtot   -0.236
        38           h37bf         1   UNL       h37        38     0.09962        1.0080 ; qtot   -0.136
        39           h38bf         1   UNL       h38        39     0.09962        1.0080 ; qtot   -0.037
        40           h39bf         1   UNL       h39        40     0.09962        1.0080 ; qtot    0.063
        41           h40bf         1   UNL       h40        41     0.09020        1.0080 ; qtot    0.153
        42           h41bf         1   UNL       h41        42     0.09020        1.0080 ; qtot    0.244
        43           h42bf         1   UNL       h42        43     0.10283        1.0080 ; qtot    0.346
        44           h43bf         1   UNL       h43        44     0.10283        1.0080 ; qtot    0.449
        45           h44bf         1   UNL       h44        45     0.10283        1.0080 ; qtot    0.552
        46           h45bf         1   UNL       h45        46     0.44800        1.0080 ; qtot    1.000

[ bonds ]
;       ai        aj funct               r               k
         1         2     1        0.140594   336452.820557    ;  uncertainty r = 0.000084, k = 18.534899
         1         3     1        0.137938   359023.309473    ;  uncertainty r = 0.000078, k = 7.103887
         1        18     1        0.134196   339889.604736    ;  uncertainty r = 0.000115, k = 5.452010
         2         4     1        0.141656   371603.834424    ;  uncertainty r = 0.000058, k = 14.207407
         2         5     1        0.137961   288693.599512    ;  uncertainty r = 0.000063, k = 26.469039
         3         6     1        0.140111   357401.600879    ;  uncertainty r = 0.000073, k = 7.401736
         3        27     1        0.108776   339662.758594    ;  uncertainty r = 0.000023, k = 0.843693
         4         7     1        0.139703   366143.234326    ;  uncertainty r = 0.000092, k = 5.420202
         4         8     1        0.146687   263233.407910    ;  uncertainty r = 0.000057, k = 18.798687
         5        11     1        0.129829   464193.655273    ;  uncertainty r = 0.000067, k = 4.891522
         6         7     1        0.138106   352979.722705    ;  uncertainty r = 0.000101, k = 11.194013
         6        19     1        0.135089   339040.751221    ;  uncertainty r = 0.000098, k = 5.264047
         7        28     1        0.108562   332963.251172    ;  uncertainty r = 0.000030, k = 2.295878
         8         9     1        0.140177   443152.609375    ;  uncertainty r = 0.000081, k = 13.987810
         8        10     1        0.123397   850054.628027    ;  uncertainty r = 0.000094, k = 14.128502
         9        11     1        0.139054   294994.064063    ;  uncertainty r = 0.000114, k = 23.492881
         9        29     1        0.102058   454589.659180    ;  uncertainty r = 0.000027, k = 4.102090
        11        12     1        0.147239   266136.057910    ;  uncertainty r = 0.000097, k = 11.598161
        12        13     1        0.139990   350460.129346    ;  uncertainty r = 0.000056, k = 3.505935
        12        17     1        0.139990   350460.129346    ;  uncertainty r = 0.000056, k = 3.505935
        13        14     1        0.139212   360485.462207    ;  uncertainty r = 0.000047, k = 3.282654
        13        30     1        0.108738   333316.276172    ;  uncertainty r = 0.000040, k = 0.861667
        14        15     1        0.139741   350531.403418    ;  uncertainty r = 0.000057, k = 2.779676
        14        31     1        0.108887   334346.749609    ;  uncertainty r = 0.000024, k = 0.557827
        15        16     1        0.139741   350531.403418    ;  uncertainty r = 0.000057, k = 2.779676
        15        20     1        0.151614   220424.274609    ;  uncertainty r = 0.000065, k = 10.669392
        16        17     1        0.139212   360485.462207    ;  uncertainty r = 0.000047, k = 3.282653
        16        32     1        0.108887   334346.749609    ;  uncertainty r = 0.000024, k = 0.557811
        17        33     1        0.108738   333316.276172    ;  uncertainty r = 0.000040, k = 0.861652
        20        21     1        0.154247   205810.714844    ;  uncertainty r = 0.000058, k = 6.939162
        20        25     1        0.154247   205810.714844    ;  uncertainty r = 0.000058, k = 6.939122
        20        34     1        0.109611   303365.690332    ;  uncertainty r = 0.000023, k = 4.486208
        21        22     1        0.152704   207033.508252    ;  uncertainty r = 0.000044, k = 8.920649
        21        35     1        0.109473   310296.129834    ;  uncertainty r = 0.000016, k = 1.082270
        21        36     1        0.109473   310296.155371    ;  uncertainty r = 0.000016, k = 1.082252
        22        23     1        0.152359   180746.373975    ;  uncertainty r = 0.000049, k = 11.488963
        22        37     1        0.109164   310075.693506    ;  uncertainty r = 0.000011, k = 1.466888
        22        38     1        0.109164   310075.667969    ;  uncertainty r = 0.000011, k = 1.466914
        23        24     1        0.152359   180746.373975    ;  uncertainty r = 0.000049, k = 11.488881
        23        26     1        0.150397   205954.846289    ;  uncertainty r = 0.000038, k = 26.026574
        23        46     1        0.102676   387872.122266    ;  uncertainty r = 0.000046, k = 5.253483
        24        25     1        0.152704   207033.495483    ;  uncertainty r = 0.000044, k = 8.920738
        24        39     1        0.109164   310075.667969    ;  uncertainty r = 0.000011, k = 1.466914
        24        40     1        0.109164   310075.667969    ;  uncertainty r = 0.000011, k = 1.466914
        25        41     1        0.109473   310296.155371    ;  uncertainty r = 0.000016, k = 1.082267
        25        42     1        0.109473   310296.155371    ;  uncertainty r = 0.000016, k = 1.082267
        26        43     1        0.109000   315038.473193    ;  uncertainty r = 0.000021, k = 4.201444
        26        44     1        0.109000   315038.473193    ;  uncertainty r = 0.000021, k = 4.201444
        26        45     1        0.109000   315038.447656    ;  uncertainty r = 0.000021, k = 4.201437

[ angles ]
;       ai        aj        ak funct           theta             cth
         1         2         4     1      117.744827      375.038371    ;  uncertainty theta = 0.007887, k = 0.205196
         1         2         5     1      117.263992      443.791292    ;  uncertainty theta = 0.006630, k = 0.221674
         1         3         6     1      118.714645      473.837808    ;  uncertainty theta = 0.003009, k = 0.214435
         1         3        27     1      120.782410      273.280205    ;  uncertainty theta = 0.004767, k = 0.121787
         2         1         3     1      123.384987      405.510814    ;  uncertainty theta = 0.003663, k = 0.269021
         2         1        18     1      116.970627      448.960514    ;  uncertainty theta = 0.003390, k = 0.306091
         2         4         7     1      123.777054      431.139634    ;  uncertainty theta = 0.003024, k = 0.248224
         2         4         8     1      116.226151      476.951580    ;  uncertainty theta = 0.007098, k = 0.203932
         2         5        11     1      115.432571      416.249392    ;  uncertainty theta = 0.005281, k = 0.434298
         3         1        18     1      118.929054      522.626456    ;  uncertainty theta = 0.003210, k = 0.216028
         3         6         7     1      124.448891      390.388568    ;  uncertainty theta = 0.005139, k = 0.304870
         3         6        19     1      117.960777      499.747089    ;  uncertainty theta = 0.001896, k = 0.065673
         4         2         5     1      124.657120      556.921198    ;  uncertainty theta = 0.005473, k = 0.108220
         4         7         6     1      117.725159      469.227530    ;  uncertainty theta = 0.002239, k = 0.079084
         4         7        28     1      120.750771      247.884028    ;  uncertainty theta = 0.005394, k = 0.134251
         4         8         9     1      109.045425      384.072571    ;  uncertainty theta = 0.007548, k = 0.210556
         4         8        10     1      127.897461      511.435073    ;  uncertainty theta = 0.003238, k = 0.180439
         5        11         9     1      123.779724      676.575196    ;  uncertainty theta = 0.005829, k = 0.165399
         5        11        12     1      122.566589      443.445712    ;  uncertainty theta = 0.003843, k = 0.198254
         6         3        27     1      121.863022      278.649095    ;  uncertainty theta = 0.003311, k = 0.036104
         6         7        28     1      121.826523      283.668924    ;  uncertainty theta = 0.002314, k = 0.098165
         7         4         8     1      117.815475      397.822261    ;  uncertainty theta = 0.001960, k = 0.167842
         7         6        19     1      119.169388      495.113636    ;  uncertainty theta = 0.001298, k = 0.075437
         8         9        11     1      120.993088      495.952626    ;  uncertainty theta = 0.003553, k = 0.168138
         8         9        29     1      115.238609      352.064613    ;  uncertainty theta = 0.007103, k = 0.130000
         9         8        10     1      125.034592      819.476838    ;  uncertainty theta = 0.003392, k = 0.064961
         9        11        12     1      116.704002      515.092179    ;  uncertainty theta = 0.004672, k = 0.263151
        11         9        29     1      116.773087      330.788817    ;  uncertainty theta = 0.006546, k = 0.196820
        11        12        13     1      117.806412      401.217356    ;  uncertainty theta = 0.002897, k = 0.112826
        11        12        17     1      117.806412      401.217356    ;  uncertainty theta = 0.002897, k = 0.112826
        12        13        14     1      121.711082      516.675479    ;  uncertainty theta = 0.001231, k = 0.077801
        12        13        30     1      118.310974      266.861165    ;  uncertainty theta = 0.002482, k = 0.057906
        12        17        16     1      121.711082      516.675479    ;  uncertainty theta = 0.001231, k = 0.077801
        12        17        33     1      118.310974      266.861165    ;  uncertainty theta = 0.002482, k = 0.057906
        13        12        17     1      121.022133      428.244588    ;  uncertainty theta = 0.000967, k = 0.212766
        13        14        15     1      121.699829      515.668870    ;  uncertainty theta = 0.003167, k = 0.049813
        13        14        31     1      119.700317      288.613643    ;  uncertainty theta = 0.000946, k = 0.021267
        14        13        30     1      120.172897      286.253918    ;  uncertainty theta = 0.001666, k = 0.059245
        14        15        16     1      119.174217      459.343392    ;  uncertainty theta = 0.003352, k = 0.190066
        14        15        20     1      120.341476      411.063603    ;  uncertainty theta = 0.002561, k = 0.170468
        15        14        31     1      118.644432      266.230718    ;  uncertainty theta = 0.001179, k = 0.061174
        15        16        17     1      121.699829      515.668870    ;  uncertainty theta = 0.003167, k = 0.049813
        15        16        32     1      118.644432      266.230718    ;  uncertainty theta = 0.001179, k = 0.061174
        15        20        21     1      111.091515      563.851522    ;  uncertainty theta = 0.002803, k = 0.057916
        15        20        25     1      111.091515      563.851586    ;  uncertainty theta = 0.002803, k = 0.057916
        15        20        34     1      105.633995      405.321680    ;  uncertainty theta = 0.002642, k = 0.059997
        16        15        20     1      120.341476      411.063603    ;  uncertainty theta = 0.002561, k = 0.170468
        16        17        33     1      120.172897      286.253918    ;  uncertainty theta = 0.001666, k = 0.059245
        17        16        32     1      119.700317      288.613643    ;  uncertainty theta = 0.000946, k = 0.021267
        20        21        22     1      110.446365      591.357862    ;  uncertainty theta = 0.001891, k = 0.139750
        20        21        35     1      108.776550      396.962459    ;  uncertainty theta = 0.000992, k = 0.035622
        20        21        36     1      108.776550      396.962459    ;  uncertainty theta = 0.000992, k = 0.035622
        20        25        24     1      110.446365      591.357862    ;  uncertainty theta = 0.001891, k = 0.139750
        20        25        41     1      108.776550      396.962490    ;  uncertainty theta = 0.000992, k = 0.035622
        20        25        42     1      108.776550      396.962490    ;  uncertainty theta = 0.000992, k = 0.035622
        21        20        25     1      107.906754      612.963789    ;  uncertainty theta = 0.004375, k = 0.185015
        21        20        34     1      107.055443      403.779303    ;  uncertainty theta = 0.001833, k = 0.125756
        21        22        23     1      110.650620      713.926794    ;  uncertainty theta = 0.002047, k = 0.097202
        21        22        37     1      110.925636      412.335862    ;  uncertainty theta = 0.002586, k = 0.075180
        21        22        38     1      110.925636      412.335862    ;  uncertainty theta = 0.002586, k = 0.075180
        22        21        35     1      107.292374      411.158889    ;  uncertainty theta = 0.002043, k = 0.068645
        22        21        36     1      107.292374      411.158889    ;  uncertainty theta = 0.002043, k = 0.068645
        22        23        24     1      111.554550      635.186692    ;  uncertainty theta = 0.003148, k = 0.247385
        22        23        26     1      111.921425      655.399506    ;  uncertainty theta = 0.001942, k = 0.210735
        22        23        46     1      106.301903      443.540614    ;  uncertainty theta = 0.002416, k = 0.214247
        23        22        37     1      106.239639      470.442011    ;  uncertainty theta = 0.002425, k = 0.137238
        23        22        38     1      106.239639      470.442011    ;  uncertainty theta = 0.002425, k = 0.137238
        23        24        25     1      110.650620      713.926794    ;  uncertainty theta = 0.002047, k = 0.097202
        23        24        39     1      106.239639      470.442011    ;  uncertainty theta = 0.002425, k = 0.137238
        23        24        40     1      106.239639      470.442011    ;  uncertainty theta = 0.002425, k = 0.137238
        23        26        43     1      108.058128      474.988287    ;  uncertainty theta = 0.002486, k = 0.075219
        23        26        44     1      108.058128      474.988287    ;  uncertainty theta = 0.002486, k = 0.075219
        23        26        45     1      108.058128      474.988287    ;  uncertainty theta = 0.002486, k = 0.075219
        24        23        26     1      111.921425      655.399506    ;  uncertainty theta = 0.001942, k = 0.210735
        24        23        46     1      106.301903      443.540614    ;  uncertainty theta = 0.002416, k = 0.214247
        24        25        41     1      107.292381      411.158921    ;  uncertainty theta = 0.002043, k = 0.068645
        24        25        42     1      107.292381      411.158921    ;  uncertainty theta = 0.002043, k = 0.068645
        25        20        34     1      107.055443      403.779303    ;  uncertainty theta = 0.001833, k = 0.125756
        25        24        39     1      110.925644      412.335862    ;  uncertainty theta = 0.002586, k = 0.075180
        25        24        40     1      110.925644      412.335862    ;  uncertainty theta = 0.002586, k = 0.075180
        26        23        46     1      106.445045      462.817269    ;  uncertainty theta = 0.002954, k = 0.199968
        35        21        36     1      105.348892      317.343497    ;  uncertainty theta = 0.001472, k = 0.062582
        37        22        38     1      107.563721      325.925275    ;  uncertainty theta = 0.003019, k = 0.044328
        39        24        40     1      107.563721      325.925275    ;  uncertainty theta = 0.003019, k = 0.044328
        41        25        42     1      105.348900      317.343465    ;  uncertainty theta = 0.001472, k = 0.062582
        43        26        44     1      108.531784      323.850704    ;  uncertainty theta = 0.003642, k = 0.038982
        43        26        45     1      108.531784      323.850704    ;  uncertainty theta = 0.003642, k = 0.038982
        44        26        45     1      108.531784      323.850704    ;  uncertainty theta = 0.003642, k = 0.038982

[ dihedrals ] ; propers for gromacs 4.5 or higher, use funct 9
;       ai        aj        ak        al funct           phase               k        pn
         1         2         4         7     9        0.000000       -0.119945         1    ;  uncertainty k = 0.321599
         1         2         4         7     9      180.000000        6.334920         2    ;  uncertainty k = 0.618600
         1         2         4         7     9        0.000000        0.487171         3    ;  uncertainty k = 0.287025
         1         2         4         7     9      180.000000        1.510989         4    ;  uncertainty k = 0.193202
         1         2         4         8     9        0.000000        0.179315         1    ;  uncertainty k = 0.860542
         1         2         4         8     9      180.000000        5.867726         2    ;  uncertainty k = 0.894966
         1         2         4         8     9        0.000000        1.133310         3    ;  uncertainty k = 0.285482
         1         2         4         8     9      180.000000        1.529973         4    ;  uncertainty k = 0.197310
         1         2         5        11     9        0.000000        2.260542         1    ;  uncertainty k = 2.728316
         1         2         5        11     9      180.000000        4.830946         2    ;  uncertainty k = 1.772993
         1         2         5        11     9        0.000000        2.277562         3    ;  uncertainty k = 0.535712
         1         2         5        11     9      180.000000        0.254026         4    ;  uncertainty k = 0.475068
         1         3         6         7     9        0.000000       -0.130056         1    ;  uncertainty k = 0.400721
         1         3         6         7     9      180.000000        6.551236         2    ;  uncertainty k = 0.526580
         1         3         6         7     9        0.000000        0.105622         3    ;  uncertainty k = 0.506871
         1         3         6         7     9      180.000000        1.359340         4    ;  uncertainty k = 0.210112
         1         3         6        19     9        0.000000       -0.015259         1    ;  uncertainty k = 0.285854
         1         3         6        19     9      180.000000       10.935275         2    ;  uncertainty k = 0.649794
         1         3         6        19     9        0.000000        1.564824         3    ;  uncertainty k = 0.538907
         1         3         6        19     9      180.000000        1.585085         4    ;  uncertainty k = 0.346099
         2         1         3         6     9        0.000000        0.179077         1    ;  uncertainty k = 0.177748
         2         1         3         6     9      180.000000        9.645049         2    ;  uncertainty k = 0.327641
         2         1         3         6     9        0.000000        0.633373         3    ;  uncertainty k = 0.588154
         2         1         3         6     9      180.000000        1.513584         4    ;  uncertainty k = 0.188099
         2         1         3        27     9        0.000000        0.159089         1    ;  uncertainty k = 0.645460
         2         1         3        27     9      180.000000        7.108974         2    ;  uncertainty k = 0.686914
         2         1         3        27     9        0.000000        1.385932         3    ;  uncertainty k = 0.337265
         2         1         3        27     9      180.000000        1.535377         4    ;  uncertainty k = 0.179660
         2         4         7         6     9        0.000000        0.014010         1    ;  uncertainty k = 0.366077
         2         4         7         6     9      180.000000       11.746040         2    ;  uncertainty k = 0.441415
         2         4         7         6     9        0.000000       -0.167563         3    ;  uncertainty k = 0.292359
         2         4         7         6     9      180.000000        1.146326         4    ;  uncertainty k = 0.219417
         2         4         7        28     9        0.000000        0.092152         1    ;  uncertainty k = 0.592058
         2         4         7        28     9      180.000000        7.164964         2    ;  uncertainty k = 0.858959
         2         4         7        28     9        0.000000        1.344947         3    ;  uncertainty k = 0.280699
         2         4         7        28     9      180.000000        1.458862         4    ;  uncertainty k = 0.097316
         2         4         8         9     9        0.000000       -1.181459         1    ;  uncertainty k = 1.070487
         2         4         8         9     9      180.000000        2.463369         2    ;  uncertainty k = 1.046448
         2         4         8         9     9        0.000000       -0.224760         3    ;  uncertainty k = 0.544072
         2         4         8         9     9      180.000000        0.547120         4    ;  uncertainty k = 0.273698
         2         4         8        10     9        0.000000       -2.476877         1    ;  uncertainty k = 1.390257
         2         4         8        10     9      180.000000        5.173705         2    ;  uncertainty k = 0.758326
         2         4         8        10     9        0.000000        0.280323         3    ;  uncertainty k = 0.203572
         2         4         8        10     9      180.000000       -0.084180         4    ;  uncertainty k = 0.186540
         2         5        11         9     9        0.000000       -0.694127         1    ;  uncertainty k = 0.359360
         2         5        11         9     9      180.000000       23.709183         2    ;  uncertainty k = 0.142858
         2         5        11         9     9        0.000000        1.868776         3    ;  uncertainty k = 0.172481
         2         5        11         9     9      180.000000        1.515772         4    ;  uncertainty k = 0.471701
         2         5        11        12     9        0.000000       -0.304879         1    ;  uncertainty k = 0.567738
         2         5        11        12     9      180.000000       18.990209         2    ;  uncertainty k = 0.458872
         2         5        11        12     9        0.000000        2.811517         3    ;  uncertainty k = 0.430940
         2         5        11        12     9      180.000000        1.384047         4    ;  uncertainty k = 0.402463
         3         1         2         4     9        0.000000       -0.522036         1    ;  uncertainty k = 0.980944
         3         1         2         4     9      180.000000        4.625502         2    ;  uncertainty k = 1.419399
         3         1         2         4     9        0.000000        0.136906         3    ;  uncertainty k = 0.174451
         3         1         2         4     9      180.000000        1.017336         4    ;  uncertainty k = 0.325374
         3         1         2         5     9        0.000000       -0.071661         1    ;  uncertainty k = 0.319971
         3         1         2         5     9      180.000000        6.616975         2    ;  uncertainty k = 0.478036
         3         1         2         5     9        0.000000        0.855774         3    ;  uncertainty k = 0.085981
         3         1         2         5     9      180.000000        1.402437         4    ;  uncertainty k = 0.250653
         3         6         7         4     9        0.000000        0.024750         1    ;  uncertainty k = 0.387263
         3         6         7         4     9      180.000000        8.635741         2    ;  uncertainty k = 0.467336
         3         6         7         4     9        0.000000        0.381751         3    ;  uncertainty k = 0.463622
         3         6         7         4     9      180.000000        1.355304         4    ;  uncertainty k = 0.420257
         3         6         7        28     9        0.000000        0.087240         1    ;  uncertainty k = 0.215355
         3         6         7        28     9      180.000000        6.193115         2    ;  uncertainty k = 0.603394
         3         6         7        28     9        0.000000        1.432634         3    ;  uncertainty k = 0.306539
         3         6         7        28     9      180.000000        1.635532         4    ;  uncertainty k = 0.064361
         4         2         1        18     9        0.000000       -0.052797         1    ;  uncertainty k = 0.930529
         4         2         1        18     9      180.000000        7.465507         2    ;  uncertainty k = 0.328543
         4         2         1        18     9        0.000000        1.428014         3    ;  uncertainty k = 0.279225
         4         2         1        18     9      180.000000        1.405913         4    ;  uncertainty k = 0.128499
         4         2         5        11     9        0.000000        1.623278         1    ;  uncertainty k = 1.880305
         4         2         5        11     9      180.000000        3.662316         2    ;  uncertainty k = 1.743484
         4         2         5        11     9        0.000000        1.569747         3    ;  uncertainty k = 0.589847
         4         2         5        11     9      180.000000        0.371282         4    ;  uncertainty k = 0.515571
         4         7         6        19     9        0.000000        0.048199         1    ;  uncertainty k = 0.284658
         4         7         6        19     9      180.000000       14.172628         2    ;  uncertainty k = 0.077877
         4         7         6        19     9        0.000000        1.411333         3    ;  uncertainty k = 0.294366
         4         7         6        19     9      180.000000        1.327511         4    ;  uncertainty k = 0.029473
         4         8         9        11     9        0.000000        0.242136         1    ;  uncertainty k = 1.389041
         4         8         9        11     9      180.000000        3.935945         2    ;  uncertainty k = 1.125120
         4         8         9        11     9        0.000000        0.662448         3    ;  uncertainty k = 0.191552
         4         8         9        11     9      180.000000        0.483134         4    ;  uncertainty k = 0.352806
         4         8         9        29     9        0.000000        2.434358         1    ;  uncertainty k = 2.418488
         4         8         9        29     9      180.000000        5.313313         2    ;  uncertainty k = 0.917383
         4         8         9        29     9        0.000000        1.846186         3    ;  uncertainty k = 0.184920
         4         8         9        29     9      180.000000       -0.014345         4    ;  uncertainty k = 0.077603
         5         2         1        18     9        0.000000        0.092192         1    ;  uncertainty k = 0.578328
         5         2         1        18     9      180.000000       10.792431         2    ;  uncertainty k = 0.377364
         5         2         1        18     9        0.000000        1.152433         3    ;  uncertainty k = 0.601042
         5         2         1        18     9      180.000000        1.216222         4    ;  uncertainty k = 0.326307
         5         2         4         7     9        0.000000        0.031818         1    ;  uncertainty k = 0.442176
         5         2         4         7     9      180.000000        8.057702         2    ;  uncertainty k = 0.583175
         5         2         4         7     9        0.000000        0.776359         3    ;  uncertainty k = 0.187004
         5         2         4         7     9      180.000000        1.528243         4    ;  uncertainty k = 0.242962
         5         2         4         8     9        0.000000       -0.424619         1    ;  uncertainty k = 0.802997
         5         2         4         8     9      180.000000        7.018599         2    ;  uncertainty k = 0.957149
         5         2         4         8     9        0.000000        0.968565         3    ;  uncertainty k = 0.353747
         5         2         4         8     9      180.000000        1.563660         4    ;  uncertainty k = 0.258961
         5        11         9         8     9        0.000000        0.100886         1    ;  uncertainty k = 0.844233
         5        11         9         8     9      180.000000        7.171150         2    ;  uncertainty k = 0.728116
         5        11         9         8     9        0.000000        0.615717         3    ;  uncertainty k = 0.699118
         5        11         9         8     9      180.000000        0.385246         4    ;  uncertainty k = 0.202044
         5        11         9        29     9        0.000000        5.753506         1    ;  uncertainty k = 1.631050
         5        11         9        29     9      180.000000       11.092402         2    ;  uncertainty k = 0.684858
         5        11         9        29     9        0.000000        1.234597         3    ;  uncertainty k = 0.617876
         5        11         9        29     9      180.000000       -0.243901         4    ;  uncertainty k = 0.151536
         5        11        12        13     9        0.000000        0.805140         1    ;  uncertainty k = 0.754433
         5        11        12        13     9      180.000000        4.102089         2    ;  uncertainty k = 0.360320
         5        11        12        13     9        0.000000        0.568747         3    ;  uncertainty k = 0.180362
         5        11        12        13     9      180.000000       -0.132516         4    ;  uncertainty k = 0.156288
         5        11        12        17     9        0.000000        0.805140         1    ;  uncertainty k = 0.754433
         5        11        12        17     9      180.000000        4.102089         2    ;  uncertainty k = 0.360320
         5        11        12        17     9        0.000000        0.568747         3    ;  uncertainty k = 0.180362
         5        11        12        17     9      180.000000       -0.132516         4    ;  uncertainty k = 0.156288
         6         3         1        18     9        0.000000        0.212637         1    ;  uncertainty k = 0.271758
         6         3         1        18     9      180.000000       14.944913         2    ;  uncertainty k = 0.510200
         6         3         1        18     9        0.000000        1.489431         3    ;  uncertainty k = 0.330092
         6         3         1        18     9      180.000000        1.381237         4    ;  uncertainty k = 0.396033
         6         7         4         8     9        0.000000        0.172855         1    ;  uncertainty k = 0.268341
         6         7         4         8     9      180.000000        8.954843         2    ;  uncertainty k = 0.660101
         6         7         4         8     9        0.000000        1.401850         3    ;  uncertainty k = 0.221223
         6         7         4         8     9      180.000000        1.862521         4    ;  uncertainty k = 0.211415
         7         4         8         9     9        0.000000        0.341659         1    ;  uncertainty k = 0.752740
         7         4         8         9     9      180.000000        2.880396         2    ;  uncertainty k = 0.583144
         7         4         8         9     9        0.000000        0.684635         3    ;  uncertainty k = 0.416908
         7         4         8         9     9      180.000000        0.515685         4    ;  uncertainty k = 0.262665
         7         4         8        10     9        0.000000       -2.096385         1    ;  uncertainty k = 0.471531
         7         4         8        10     9      180.000000        5.253328         2    ;  uncertainty k = 0.608331
         7         4         8        10     9        0.000000        0.502590         3    ;  uncertainty k = 0.280250
         7         4         8        10     9      180.000000       -0.106343         4    ;  uncertainty k = 0.098030
         7         6         3        27     9        0.000000        0.074540         1    ;  uncertainty k = 0.345516
         7         6         3        27     9      180.000000        5.243380         2    ;  uncertainty k = 0.758106
         7         6         3        27     9        0.000000        1.197902         3    ;  uncertainty k = 0.215952
         7         6         3        27     9      180.000000        1.376410         4    ;  uncertainty k = 0.176021
         8         4         7        28     9        0.000000       -0.369523         1    ;  uncertainty k = 0.752824
         8         4         7        28     9      180.000000        7.637346         2    ;  uncertainty k = 0.396508
         8         4         7        28     9        0.000000        0.953257         3    ;  uncertainty k = 0.245527
         8         4         7        28     9      180.000000        1.186756         4    ;  uncertainty k = 0.153529
         8         9        11        12     9        0.000000        1.215102         1    ;  uncertainty k = 0.788262
         8         9        11        12     9      180.000000        5.418533         2    ;  uncertainty k = 0.791601
         8         9        11        12     9        0.000000        0.552956         3    ;  uncertainty k = 0.341631
         8         9        11        12     9      180.000000       -0.096082         4    ;  uncertainty k = 0.323075
         9        11        12        13     9        0.000000       -0.018556         1    ;  uncertainty k = 0.367622
         9        11        12        13     9      180.000000        4.182570         2    ;  uncertainty k = 0.396155
         9        11        12        13     9        0.000000        0.562156         3    ;  uncertainty k = 0.122503
         9        11        12        13     9      180.000000       -0.116289         4    ;  uncertainty k = 0.038189
         9        11        12        17     9        0.000000       -0.018556         1    ;  uncertainty k = 0.367622
         9        11        12        17     9      180.000000        4.182570         2    ;  uncertainty k = 0.396155
         9        11        12        17     9        0.000000        0.562156         3    ;  uncertainty k = 0.122503
         9        11        12        17     9      180.000000       -0.116289         4    ;  uncertainty k = 0.038189
        10         8         9        11     9        0.000000        0.122345         1    ;  uncertainty k = 1.277905
        10         8         9        11     9      180.000000       11.176859         2    ;  uncertainty k = 0.488284
        10         8         9        11     9        0.000000        1.313185         3    ;  uncertainty k = 0.386331
        10         8         9        11     9      180.000000       -0.503685         4    ;  uncertainty k = 0.423563
        10         8         9        29     9        0.000000        1.545795         1    ;  uncertainty k = 2.519145
        10         8         9        29     9      180.000000        9.292190         2    ;  uncertainty k = 0.602286
        10         8         9        29     9        0.000000        0.727520         3    ;  uncertainty k = 0.510606
        10         8         9        29     9      180.000000       -0.121427         4    ;  uncertainty k = 0.059269
        11        12        13        14     9        0.000000        0.092785         1    ;  uncertainty k = 0.200130
        11        12        13        14     9      180.000000        8.997776         2    ;  uncertainty k = 0.604308
        11        12        13        14     9        0.000000        1.319465         3    ;  uncertainty k = 0.254201
        11        12        13        14     9      180.000000        1.718781         4    ;  uncertainty k = 0.207195
        11        12        13        30     9        0.000000       -0.290893         1    ;  uncertainty k = 0.152625
        11        12        13        30     9      180.000000        7.179402         2    ;  uncertainty k = 0.245823
        11        12        13        30     9        0.000000        0.713525         3    ;  uncertainty k = 0.190488
        11        12        13        30     9      180.000000        1.059650         4    ;  uncertainty k = 0.170630
        11        12        17        16     9        0.000000        0.092785         1    ;  uncertainty k = 0.200130
        11        12        17        16     9      180.000000        8.997776         2    ;  uncertainty k = 0.604308
        11        12        17        16     9        0.000000        1.319465         3    ;  uncertainty k = 0.254201
        11        12        17        16     9      180.000000        1.718781         4    ;  uncertainty k = 0.207195
        11        12        17        33     9        0.000000       -0.290893         1    ;  uncertainty k = 0.152625
        11        12        17        33     9      180.000000        7.179402         2    ;  uncertainty k = 0.245823
        11        12        17        33     9        0.000000        0.713525         3    ;  uncertainty k = 0.190488
        11        12        17        33     9      180.000000        1.059650         4    ;  uncertainty k = 0.170630
        12        11         9        29     9        0.000000        0.911210         1    ;  uncertainty k = 0.194932
        12        11         9        29     9      180.000000        4.793165         2    ;  uncertainty k = 0.891808
        12        11         9        29     9        0.000000        1.369262         3    ;  uncertainty k = 0.264202
        12        11         9        29     9      180.000000       -0.082819         4    ;  uncertainty k = 0.261156
        12        13        14        15     9        0.000000       -0.157190         1    ;  uncertainty k = 0.331545
        12        13        14        15     9      180.000000       12.892641         2    ;  uncertainty k = 0.235323
        12        13        14        15     9        0.000000       -0.731767         3    ;  uncertainty k = 0.477532
        12        13        14        15     9      180.000000        0.862237         4    ;  uncertainty k = 0.247524
        12        13        14        31     9        0.000000        0.090811         1    ;  uncertainty k = 0.102091
        12        13        14        31     9      180.000000        8.136184         2    ;  uncertainty k = 0.296933
        12        13        14        31     9        0.000000        1.435449         3    ;  uncertainty k = 0.234663
        12        13        14        31     9      180.000000        1.865610         4    ;  uncertainty k = 0.190535
        12        17        16        15     9        0.000000       -0.157190         1    ;  uncertainty k = 0.331545
        12        17        16        15     9      180.000000       12.892641         2    ;  uncertainty k = 0.235323
        12        17        16        15     9        0.000000       -0.731767         3    ;  uncertainty k = 0.477532
        12        17        16        15     9      180.000000        0.862237         4    ;  uncertainty k = 0.247524
        12        17        16        32     9        0.000000        0.090811         1    ;  uncertainty k = 0.102091
        12        17        16        32     9      180.000000        8.136184         2    ;  uncertainty k = 0.296933
        12        17        16        32     9        0.000000        1.435449         3    ;  uncertainty k = 0.234663
        12        17        16        32     9      180.000000        1.865610         4    ;  uncertainty k = 0.190535
        13        12        17        16     9        0.000000        0.079774         1    ;  uncertainty k = 0.115158
        13        12        17        16     9      180.000000       10.977376         2    ;  uncertainty k = 0.295190
        13        12        17        16     9        0.000000       -0.642110         3    ;  uncertainty k = 0.192275
        13        12        17        16     9      180.000000        0.950663         4    ;  uncertainty k = 0.281409
        13        12        17        33     9        0.000000        0.078769         1    ;  uncertainty k = 0.157075
        13        12        17        33     9      180.000000        6.861581         2    ;  uncertainty k = 0.550974
        13        12        17        33     9        0.000000        1.312357         3    ;  uncertainty k = 0.236134
        13        12        17        33     9      180.000000        1.582469         4    ;  uncertainty k = 0.252484
        13        14        15        16     9        0.000000       -0.146579         1    ;  uncertainty k = 0.208420
        13        14        15        16     9      180.000000       11.541385         2    ;  uncertainty k = 0.287084
        13        14        15        16     9        0.000000       -0.440480         3    ;  uncertainty k = 0.211930
        13        14        15        16     9      180.000000        0.825922         4    ;  uncertainty k = 0.299594
        13        14        15        20     9        0.000000        0.082469         1    ;  uncertainty k = 0.348165
        13        14        15        20     9      180.000000        8.388059         2    ;  uncertainty k = 0.371710
        13        14        15        20     9        0.000000        1.439136         3    ;  uncertainty k = 0.424835
        13        14        15        20     9      180.000000        1.866682         4    ;  uncertainty k = 0.143658
        14        13        12        17     9        0.000000        0.079774         1    ;  uncertainty k = 0.115158
        14        13        12        17     9      180.000000       10.977376         2    ;  uncertainty k = 0.295190
        14        13        12        17     9        0.000000       -0.642110         3    ;  uncertainty k = 0.192275
        14        13        12        17     9      180.000000        0.950663         4    ;  uncertainty k = 0.281409
        14        15        16        17     9        0.000000       -0.146579         1    ;  uncertainty k = 0.208420
        14        15        16        17     9      180.000000       11.541385         2    ;  uncertainty k = 0.287084
        14        15        16        17     9        0.000000       -0.440480         3    ;  uncertainty k = 0.211930
        14        15        16        17     9      180.000000        0.825922         4    ;  uncertainty k = 0.299594
        14        15        16        32     9        0.000000        0.004212         1    ;  uncertainty k = 0.205748
        14        15        16        32     9      180.000000        7.240774         2    ;  uncertainty k = 0.357879
        14        15        16        32     9        0.000000        1.426664         3    ;  uncertainty k = 0.338283
        14        15        16        32     9      180.000000        1.612823         4    ;  uncertainty k = 0.179170
        14        15        20        21     9        0.000000       -0.668847         1    ;  uncertainty k = 0.282910
        14        15        20        21     9      180.000000        2.474040         2    ;  uncertainty k = 0.137952
        14        15        20        21     9        0.000000        0.450613         3    ;  uncertainty k = 0.099337
        14        15        20        21     9      180.000000        0.267706         4    ;  uncertainty k = 0.055610
        14        15        20        25     9        0.000000       -0.668846         1    ;  uncertainty k = 0.282912
        14        15        20        25     9      180.000000        2.474040         2    ;  uncertainty k = 0.137953
        14        15        20        25     9        0.000000        0.450614         3    ;  uncertainty k = 0.099337
        14        15        20        25     9      180.000000        0.267706         4    ;  uncertainty k = 0.055610
        14        15        20        34     9        0.000000       -0.306708         1    ;  uncertainty k = 0.381469
        14        15        20        34     9      180.000000        1.784974         2    ;  uncertainty k = 0.202506
        14        15        20        34     9        0.000000        0.540208         3    ;  uncertainty k = 0.107250
        14        15        20        34     9      180.000000        0.332541         4    ;  uncertainty k = 0.043632
        15        14        13        30     9        0.000000       -0.006898         1    ;  uncertainty k = 0.158296
        15        14        13        30     9      180.000000        7.534155         2    ;  uncertainty k = 0.325800
        15        14        13        30     9        0.000000        1.332401         3    ;  uncertainty k = 0.346232
        15        14        13        30     9      180.000000        1.873255         4    ;  uncertainty k = 0.158643
        15        16        17        33     9        0.000000       -0.006898         1    ;  uncertainty k = 0.158296
        15        16        17        33     9      180.000000        7.534155         2    ;  uncertainty k = 0.325800
        15        16        17        33     9        0.000000        1.332401         3    ;  uncertainty k = 0.346232
        15        16        17        33     9      180.000000        1.873255         4    ;  uncertainty k = 0.158643
        15        20        21        22     9        0.000000       -2.680184         1    ;  uncertainty k = 0.605093
        15        20        21        22     9      180.000000        0.251538         2    ;  uncertainty k = 0.251993
        15        20        21        22     9        0.000000        0.961982         3    ;  uncertainty k = 0.209946
        15        20        21        22     9      180.000000       -0.105209         4    ;  uncertainty k = 0.072217
        15        20        21        35     9        0.000000        0.842875         1    ;  uncertainty k = 0.410411
        15        20        21        35     9      180.000000       -0.180458         2    ;  uncertainty k = 0.091738
        15        20        21        35     9        0.000000        0.846914         3    ;  uncertainty k = 0.141031
        15        20        21        35     9      180.000000        0.018317         4    ;  uncertainty k = 0.058200
        15        20        21        36     9        0.000000        0.842874         1    ;  uncertainty k = 0.410410
        15        20        21        36     9      180.000000       -0.180458         2    ;  uncertainty k = 0.091737
        15        20        21        36     9        0.000000        0.846914         3    ;  uncertainty k = 0.141031
        15        20        21        36     9      180.000000        0.018318         4    ;  uncertainty k = 0.058199
        15        20        25        24     9        0.000000       -2.680184         1    ;  uncertainty k = 0.605094
        15        20        25        24     9      180.000000        0.251539         2    ;  uncertainty k = 0.251994
        15        20        25        24     9        0.000000        0.961982         3    ;  uncertainty k = 0.209945
        15        20        25        24     9      180.000000       -0.105209         4    ;  uncertainty k = 0.072217
        15        20        25        41     9        0.000000        0.842875         1    ;  uncertainty k = 0.410410
        15        20        25        41     9      180.000000       -0.180458         2    ;  uncertainty k = 0.091735
        15        20        25        41     9        0.000000        0.846915         3    ;  uncertainty k = 0.141031
        15        20        25        41     9      180.000000        0.018317         4    ;  uncertainty k = 0.058200
        15        20        25        42     9        0.000000        0.842875         1    ;  uncertainty k = 0.410410
        15        20        25        42     9      180.000000       -0.180458         2    ;  uncertainty k = 0.091735
        15        20        25        42     9        0.000000        0.846915         3    ;  uncertainty k = 0.141031
        15        20        25        42     9      180.000000        0.018317         4    ;  uncertainty k = 0.058200
        16        15        14        31     9        0.000000        0.004212         1    ;  uncertainty k = 0.205748
        16        15        14        31     9      180.000000        7.240774         2    ;  uncertainty k = 0.357879
        16        15        14        31     9        0.000000        1.426664         3    ;  uncertainty k = 0.338283
        16        15        14        31     9      180.000000        1.612823         4    ;  uncertainty k = 0.179170
        16        15        20        21     9        0.000000       -0.668847         1    ;  uncertainty k = 0.282910
        16        15        20        21     9      180.000000        2.474040         2    ;  uncertainty k = 0.137952
        16        15        20        21     9        0.000000        0.450613         3    ;  uncertainty k = 0.099337
        16        15        20        21     9      180.000000        0.267706         4    ;  uncertainty k = 0.055610
        16        15        20        25     9        0.000000       -0.668846         1    ;  uncertainty k = 0.282912
        16        15        20        25     9      180.000000        2.474040         2    ;  uncertainty k = 0.137953
        16        15        20        25     9        0.000000        0.450614         3    ;  uncertainty k = 0.099337
        16        15        20        25     9      180.000000        0.267706         4    ;  uncertainty k = 0.055610
        16        15        20        34     9        0.000000       -0.306708         1    ;  uncertainty k = 0.381469
        16        15        20        34     9      180.000000        1.784974         2    ;  uncertainty k = 0.202506
        16        15        20        34     9        0.000000        0.540208         3    ;  uncertainty k = 0.107250
        16        15        20        34     9      180.000000        0.332541         4    ;  uncertainty k = 0.043632
        17        12        13        30     9        0.000000        0.078769         1    ;  uncertainty k = 0.157075
        17        12        13        30     9      180.000000        6.861581         2    ;  uncertainty k = 0.550974
        17        12        13        30     9        0.000000        1.312357         3    ;  uncertainty k = 0.236134
        17        12        13        30     9      180.000000        1.582469         4    ;  uncertainty k = 0.252484
        17        16        15        20     9        0.000000        0.082469         1    ;  uncertainty k = 0.348165
        17        16        15        20     9      180.000000        8.388059         2    ;  uncertainty k = 0.371710
        17        16        15        20     9        0.000000        1.439136         3    ;  uncertainty k = 0.424835
        17        16        15        20     9      180.000000        1.866682         4    ;  uncertainty k = 0.143658
        18         1         3        27     9        0.000000       -0.298583         1    ;  uncertainty k = 0.349027
        18         1         3        27     9      180.000000       10.799949         2    ;  uncertainty k = 0.406755
        18         1         3        27     9        0.000000        1.018938         3    ;  uncertainty k = 0.250366
        18         1         3        27     9      180.000000        1.225121         4    ;  uncertainty k = 0.361142
        19         6         3        27     9        0.000000       -0.129263         1    ;  uncertainty k = 0.390558
        19         6         3        27     9      180.000000        8.272394         2    ;  uncertainty k = 0.350808
        19         6         3        27     9        0.000000        0.776690         3    ;  uncertainty k = 0.296456
        19         6         3        27     9      180.000000        0.987497         4    ;  uncertainty k = 0.192836
        19         6         7        28     9        0.000000       -0.386407         1    ;  uncertainty k = 0.252002
        19         6         7        28     9      180.000000        9.760304         2    ;  uncertainty k = 0.456352
        19         6         7        28     9        0.000000        0.949469         3    ;  uncertainty k = 0.225793
        19         6         7        28     9      180.000000        1.004391         4    ;  uncertainty k = 0.195808
        20        15        14        31     9        0.000000       -0.131835         1    ;  uncertainty k = 0.237911
        20        15        14        31     9      180.000000        7.537385         2    ;  uncertainty k = 0.313220
        20        15        14        31     9        0.000000        0.694250         3    ;  uncertainty k = 0.316875
        20        15        14        31     9      180.000000        0.988935         4    ;  uncertainty k = 0.110945
        20        15        16        32     9        0.000000       -0.131835         1    ;  uncertainty k = 0.237911
        20        15        16        32     9      180.000000        7.537385         2    ;  uncertainty k = 0.313220
        20        15        16        32     9        0.000000        0.694250         3    ;  uncertainty k = 0.316875
        20        15        16        32     9      180.000000        0.988935         4    ;  uncertainty k = 0.110945
        20        21        22        23     9        0.000000        0.073034         1    ;  uncertainty k = 1.353206
        20        21        22        23     9      180.000000       -3.215103         2    ;  uncertainty k = 0.944102
        20        21        22        23     9        0.000000        1.747272         3    ;  uncertainty k = 0.404872
        20        21        22        23     9      180.000000       -0.825213         4    ;  uncertainty k = 0.249089
        20        21        22        37     9        0.000000        0.795846         1    ;  uncertainty k = 0.713806
        20        21        22        37     9      180.000000       -1.064367         2    ;  uncertainty k = 0.244623
        20        21        22        37     9        0.000000        0.474980         3    ;  uncertainty k = 0.172814
        20        21        22        37     9      180.000000        0.153641         4    ;  uncertainty k = 0.080274
        20        21        22        38     9        0.000000        0.795846         1    ;  uncertainty k = 0.713806
        20        21        22        38     9      180.000000       -1.064367         2    ;  uncertainty k = 0.244623
        20        21        22        38     9        0.000000        0.474980         3    ;  uncertainty k = 0.172814
        20        21        22        38     9      180.000000        0.153641         4    ;  uncertainty k = 0.080274
        20        25        24        23     9        0.000000        0.073032         1    ;  uncertainty k = 1.353205
        20        25        24        23     9      180.000000       -3.215106         2    ;  uncertainty k = 0.944104
        20        25        24        23     9        0.000000        1.747272         3    ;  uncertainty k = 0.404872
        20        25        24        23     9      180.000000       -0.825213         4    ;  uncertainty k = 0.249089
        20        25        24        39     9        0.000000        0.795845         1    ;  uncertainty k = 0.713806
        20        25        24        39     9      180.000000       -1.064367         2    ;  uncertainty k = 0.244623
        20        25        24        39     9        0.000000        0.474980         3    ;  uncertainty k = 0.172814
        20        25        24        39     9      180.000000        0.153641         4    ;  uncertainty k = 0.080274
        20        25        24        40     9        0.000000        0.795845         1    ;  uncertainty k = 0.713806
        20        25        24        40     9      180.000000       -1.064367         2    ;  uncertainty k = 0.244623
        20        25        24        40     9        0.000000        0.474980         3    ;  uncertainty k = 0.172814
        20        25        24        40     9      180.000000        0.153641         4    ;  uncertainty k = 0.080274
        21        20        25        24     9        0.000000       -5.507244         1    ;  uncertainty k = 0.993568
        21        20        25        24     9      180.000000        0.867738         2    ;  uncertainty k = 0.998252
        21        20        25        24     9        0.000000        1.264620         3    ;  uncertainty k = 0.184551
        21        20        25        24     9      180.000000       -1.090877         4    ;  uncertainty k = 0.137493
        21        20        25        41     9        0.000000       -1.582906         1    ;  uncertainty k = 0.321008
        21        20        25        41     9      180.000000       -0.324273         2    ;  uncertainty k = 0.253003
        21        20        25        41     9        0.000000        0.250201         3    ;  uncertainty k = 0.184394
        21        20        25        41     9      180.000000       -0.065461         4    ;  uncertainty k = 0.108164
        21        20        25        42     9        0.000000       -1.582906         1    ;  uncertainty k = 0.321008
        21        20        25        42     9      180.000000       -0.324273         2    ;  uncertainty k = 0.253003
        21        20        25        42     9        0.000000        0.250201         3    ;  uncertainty k = 0.184394
        21        20        25        42     9      180.000000       -0.065461         4    ;  uncertainty k = 0.108164
        21        22        23        24     9        0.000000       -1.060428         1    ;  uncertainty k = 0.532699
        21        22        23        24     9      180.000000       -0.014068         2    ;  uncertainty k = 0.518807
        21        22        23        24     9        0.000000        0.656128         3    ;  uncertainty k = 0.307904
        21        22        23        24     9      180.000000       -0.362954         4    ;  uncertainty k = 0.299195
        21        22        23        26     9        0.000000       -2.518357         1    ;  uncertainty k = 0.617131
        21        22        23        26     9      180.000000        0.945264         2    ;  uncertainty k = 0.486866
        21        22        23        26     9        0.000000        0.958031         3    ;  uncertainty k = 0.095468
        21        22        23        26     9      180.000000       -0.082539         4    ;  uncertainty k = 0.123263
        21        22        23        46     9        0.000000       -0.791606         1    ;  uncertainty k = 0.380774
        21        22        23        46     9      180.000000       -0.342456         2    ;  uncertainty k = 0.206573
        21        22        23        46     9        0.000000        0.373399         3    ;  uncertainty k = 0.139301
        21        22        23        46     9      180.000000       -0.152330         4    ;  uncertainty k = 0.063937
        22        21        20        25     9        0.000000       -5.507245         1    ;  uncertainty k = 0.993570
        22        21        20        25     9      180.000000        0.867739         2    ;  uncertainty k = 0.998252
        22        21        20        25     9        0.000000        1.264620         3    ;  uncertainty k = 0.184551
        22        21        20        25     9      180.000000       -1.090876         4    ;  uncertainty k = 0.137493
        22        21        20        34     9        0.000000       -2.062535         1    ;  uncertainty k = 0.316732
        22        21        20        34     9      180.000000       -0.695824         2    ;  uncertainty k = 0.406948
        22        21        20        34     9        0.000000        0.155543         3    ;  uncertainty k = 0.128079
        22        21        20        34     9      180.000000       -0.171695         4    ;  uncertainty k = 0.064738
        22        23        24        25     9        0.000000       -1.060426         1    ;  uncertainty k = 0.532696
        22        23        24        25     9      180.000000       -0.014069         2    ;  uncertainty k = 0.518808
        22        23        24        25     9        0.000000        0.656128         3    ;  uncertainty k = 0.307905
        22        23        24        25     9      180.000000       -0.362954         4    ;  uncertainty k = 0.299195
        22        23        24        39     9        0.000000       -0.325904         1    ;  uncertainty k = 0.625950
        22        23        24        39     9      180.000000       -0.940395         2    ;  uncertainty k = 0.339719
        22        23        24        39     9        0.000000        0.374181         3    ;  uncertainty k = 0.234727
        22        23        24        39     9      180.000000        0.008118         4    ;  uncertainty k = 0.191924
        22        23        24        40     9        0.000000       -0.325904         1    ;  uncertainty k = 0.625950
        22        23        24        40     9      180.000000       -0.940395         2    ;  uncertainty k = 0.339719
        22        23        24        40     9        0.000000        0.374181         3    ;  uncertainty k = 0.234727
        22        23        24        40     9      180.000000        0.008118         4    ;  uncertainty k = 0.191924
        22        23        26        43     9        0.000000       -0.426711         1    ;  uncertainty k = 0.602510
        22        23        26        43     9      180.000000       -0.918971         2    ;  uncertainty k = 0.323976
        22        23        26        43     9        0.000000        1.091546         3    ;  uncertainty k = 0.086381
        22        23        26        43     9      180.000000        0.007352         4    ;  uncertainty k = 0.129102
        22        23        26        44     9        0.000000       -0.426711         1    ;  uncertainty k = 0.602510
        22        23        26        44     9      180.000000       -0.918971         2    ;  uncertainty k = 0.323976
        22        23        26        44     9        0.000000        1.091546         3    ;  uncertainty k = 0.086381
        22        23        26        44     9      180.000000        0.007352         4    ;  uncertainty k = 0.129102
        22        23        26        45     9        0.000000       -0.426711         1    ;  uncertainty k = 0.602510
        22        23        26        45     9      180.000000       -0.918971         2    ;  uncertainty k = 0.323976
        22        23        26        45     9        0.000000        1.091546         3    ;  uncertainty k = 0.086381
        22        23        26        45     9      180.000000        0.007352         4    ;  uncertainty k = 0.129102
        23        22        21        35     9        0.000000       -0.419168         1    ;  uncertainty k = 0.593173
        23        22        21        35     9      180.000000       -1.709828         2    ;  uncertainty k = 0.310270
        23        22        21        35     9        0.000000        0.754432         3    ;  uncertainty k = 0.063415
        23        22        21        35     9      180.000000       -0.075856         4    ;  uncertainty k = 0.119053
        23        22        21        36     9        0.000000       -0.419167         1    ;  uncertainty k = 0.593173
        23        22        21        36     9      180.000000       -1.709827         2    ;  uncertainty k = 0.310269
        23        22        21        36     9        0.000000        0.754432         3    ;  uncertainty k = 0.063414
        23        22        21        36     9      180.000000       -0.075856         4    ;  uncertainty k = 0.119053
        23        24        25        41     9        0.000000       -0.419166         1    ;  uncertainty k = 0.593171
        23        24        25        41     9      180.000000       -1.709827         2    ;  uncertainty k = 0.310270
        23        24        25        41     9        0.000000        0.754432         3    ;  uncertainty k = 0.063415
        23        24        25        41     9      180.000000       -0.075856         4    ;  uncertainty k = 0.119053
        23        24        25        42     9        0.000000       -0.419166         1    ;  uncertainty k = 0.593171
        23        24        25        42     9      180.000000       -1.709827         2    ;  uncertainty k = 0.310270
        23        24        25        42     9        0.000000        0.754432         3    ;  uncertainty k = 0.063415
        23        24        25        42     9      180.000000       -0.075856         4    ;  uncertainty k = 0.119053
        24        23        22        37     9        0.000000       -0.325904         1    ;  uncertainty k = 0.625950
        24        23        22        37     9      180.000000       -0.940395         2    ;  uncertainty k = 0.339719
        24        23        22        37     9        0.000000        0.374181         3    ;  uncertainty k = 0.234727
        24        23        22        37     9      180.000000        0.008118         4    ;  uncertainty k = 0.191924
        24        23        22        38     9        0.000000       -0.325904         1    ;  uncertainty k = 0.625950
        24        23        22        38     9      180.000000       -0.940395         2    ;  uncertainty k = 0.339719
        24        23        22        38     9        0.000000        0.374181         3    ;  uncertainty k = 0.234727
        24        23        22        38     9      180.000000        0.008118         4    ;  uncertainty k = 0.191924
        24        23        26        43     9        0.000000       -0.426711         1    ;  uncertainty k = 0.602510
        24        23        26        43     9      180.000000       -0.918971         2    ;  uncertainty k = 0.323976
        24        23        26        43     9        0.000000        1.091546         3    ;  uncertainty k = 0.086381
        24        23        26        43     9      180.000000        0.007352         4    ;  uncertainty k = 0.129102
        24        23        26        44     9        0.000000       -0.426711         1    ;  uncertainty k = 0.602510
        24        23        26        44     9      180.000000       -0.918971         2    ;  uncertainty k = 0.323976
        24        23        26        44     9        0.000000        1.091546         3    ;  uncertainty k = 0.086381
        24        23        26        44     9      180.000000        0.007352         4    ;  uncertainty k = 0.129102
        24        23        26        45     9        0.000000       -0.426711         1    ;  uncertainty k = 0.602510
        24        23        26        45     9      180.000000       -0.918971         2    ;  uncertainty k = 0.323976
        24        23        26        45     9        0.000000        1.091546         3    ;  uncertainty k = 0.086381
        24        23        26        45     9      180.000000        0.007352         4    ;  uncertainty k = 0.129102
        24        25        20        34     9        0.000000       -2.062536         1    ;  uncertainty k = 0.316733
        24        25        20        34     9      180.000000       -0.695824         2    ;  uncertainty k = 0.406949
        24        25        20        34     9        0.000000        0.155543         3    ;  uncertainty k = 0.128078
        24        25        20        34     9      180.000000       -0.171695         4    ;  uncertainty k = 0.064738
        25        20        21        35     9        0.000000       -1.582905         1    ;  uncertainty k = 0.321008
        25        20        21        35     9      180.000000       -0.324273         2    ;  uncertainty k = 0.253003
        25        20        21        35     9        0.000000        0.250201         3    ;  uncertainty k = 0.184394
        25        20        21        35     9      180.000000       -0.065461         4    ;  uncertainty k = 0.108164
        25        20        21        36     9        0.000000       -1.582907         1    ;  uncertainty k = 0.321010
        25        20        21        36     9      180.000000       -0.324274         2    ;  uncertainty k = 0.253000
        25        20        21        36     9        0.000000        0.250201         3    ;  uncertainty k = 0.184394
        25        20        21        36     9      180.000000       -0.065461         4    ;  uncertainty k = 0.108164
        25        24        23        26     9        0.000000       -2.518355         1    ;  uncertainty k = 0.617131
        25        24        23        26     9      180.000000        0.945264         2    ;  uncertainty k = 0.486866
        25        24        23        26     9        0.000000        0.958031         3    ;  uncertainty k = 0.095468
        25        24        23        26     9      180.000000       -0.082539         4    ;  uncertainty k = 0.123264
        25        24        23        46     9        0.000000       -0.791606         1    ;  uncertainty k = 0.380774
        25        24        23        46     9      180.000000       -0.342454         2    ;  uncertainty k = 0.206573
        25        24        23        46     9        0.000000        0.373399         3    ;  uncertainty k = 0.139301
        25        24        23        46     9      180.000000       -0.152330         4    ;  uncertainty k = 0.063937
        26        23        22        37     9        0.000000       -0.319537         1    ;  uncertainty k = 0.341715
        26        23        22        37     9      180.000000       -0.634301         2    ;  uncertainty k = 0.177015
        26        23        22        37     9        0.000000        0.826060         3    ;  uncertainty k = 0.119469
        26        23        22        37     9      180.000000       -0.018310         4    ;  uncertainty k = 0.085528
        26        23        22        38     9        0.000000       -0.319537         1    ;  uncertainty k = 0.341715
        26        23        22        38     9      180.000000       -0.634301         2    ;  uncertainty k = 0.177015
        26        23        22        38     9        0.000000        0.826060         3    ;  uncertainty k = 0.119469
        26        23        22        38     9      180.000000       -0.018310         4    ;  uncertainty k = 0.085528
        26        23        24        39     9        0.000000       -0.319537         1    ;  uncertainty k = 0.341715
        26        23        24        39     9      180.000000       -0.634301         2    ;  uncertainty k = 0.177015
        26        23        24        39     9        0.000000        0.826060         3    ;  uncertainty k = 0.119469
        26        23        24        39     9      180.000000       -0.018310         4    ;  uncertainty k = 0.085528
        26        23        24        40     9        0.000000       -0.319537         1    ;  uncertainty k = 0.341715
        26        23        24        40     9      180.000000       -0.634301         2    ;  uncertainty k = 0.177015
        26        23        24        40     9        0.000000        0.826060         3    ;  uncertainty k = 0.119469
        26        23        24        40     9      180.000000       -0.018310         4    ;  uncertainty k = 0.085528
        30        13        14        31     9        0.000000       -0.101338         1    ;  uncertainty k = 0.131609
        30        13        14        31     9      180.000000        7.997056         2    ;  uncertainty k = 0.394783
        30        13        14        31     9        0.000000       -0.404297         3    ;  uncertainty k = 0.200580
        30        13        14        31     9      180.000000        0.285366         4    ;  uncertainty k = 0.217525
        32        16        17        33     9        0.000000       -0.101338         1    ;  uncertainty k = 0.131609
        32        16        17        33     9      180.000000        7.997056         2    ;  uncertainty k = 0.394783
        32        16        17        33     9        0.000000       -0.404297         3    ;  uncertainty k = 0.200580
        32        16        17        33     9      180.000000        0.285366         4    ;  uncertainty k = 0.217525
        34        20        21        35     9        0.000000        1.392051         1    ;  uncertainty k = 0.377938
        34        20        21        35     9      180.000000       -0.128184         2    ;  uncertainty k = 0.183189
        34        20        21        35     9        0.000000        0.002928         3    ;  uncertainty k = 0.067875
        34        20        21        35     9      180.000000        0.125828         4    ;  uncertainty k = 0.074303
        34        20        21        36     9        0.000000        1.392051         1    ;  uncertainty k = 0.377936
        34        20        21        36     9      180.000000       -0.128185         2    ;  uncertainty k = 0.183190
        34        20        21        36     9        0.000000        0.002928         3    ;  uncertainty k = 0.067875
        34        20        21        36     9      180.000000        0.125828         4    ;  uncertainty k = 0.074302
        34        20        25        41     9        0.000000        1.392052         1    ;  uncertainty k = 0.377937
        34        20        25        41     9      180.000000       -0.128186         2    ;  uncertainty k = 0.183188
        34        20        25        41     9        0.000000        0.002928         3    ;  uncertainty k = 0.067874
        34        20        25        41     9      180.000000        0.125828         4    ;  uncertainty k = 0.074303
        34        20        25        42     9        0.000000        1.392052         1    ;  uncertainty k = 0.377937
        34        20        25        42     9      180.000000       -0.128186         2    ;  uncertainty k = 0.183188
        34        20        25        42     9        0.000000        0.002928         3    ;  uncertainty k = 0.067874
        34        20        25        42     9      180.000000        0.125828         4    ;  uncertainty k = 0.074303
        35        21        22        37     9        0.000000        0.383869         1    ;  uncertainty k = 0.296468
        35        21        22        37     9      180.000000        0.405715         2    ;  uncertainty k = 0.129121
        35        21        22        37     9        0.000000        0.251978         3    ;  uncertainty k = 0.049247
        35        21        22        37     9      180.000000       -0.051136         4    ;  uncertainty k = 0.032255
        35        21        22        38     9        0.000000        0.383869         1    ;  uncertainty k = 0.296468
        35        21        22        38     9      180.000000        0.405715         2    ;  uncertainty k = 0.129121
        35        21        22        38     9        0.000000        0.251978         3    ;  uncertainty k = 0.049247
        35        21        22        38     9      180.000000       -0.051136         4    ;  uncertainty k = 0.032255
        36        21        22        37     9        0.000000        0.383868         1    ;  uncertainty k = 0.296467
        36        21        22        37     9      180.000000        0.405715         2    ;  uncertainty k = 0.129123
        36        21        22        37     9        0.000000        0.251979         3    ;  uncertainty k = 0.049246
        36        21        22        37     9      180.000000       -0.051136         4    ;  uncertainty k = 0.032255
        36        21        22        38     9        0.000000        0.383868         1    ;  uncertainty k = 0.296467
        36        21        22        38     9      180.000000        0.405715         2    ;  uncertainty k = 0.129123
        36        21        22        38     9        0.000000        0.251979         3    ;  uncertainty k = 0.049246
        36        21        22        38     9      180.000000       -0.051136         4    ;  uncertainty k = 0.032255
        37        22        23        46     9        0.000000        0.588818         1    ;  uncertainty k = 0.594075
        37        22        23        46     9      180.000000       -0.437598         2    ;  uncertainty k = 0.275188
        37        22        23        46     9        0.000000        0.043453         3    ;  uncertainty k = 0.185064
        37        22        23        46     9      180.000000        0.027387         4    ;  uncertainty k = 0.094588
        38        22        23        46     9        0.000000        0.588818         1    ;  uncertainty k = 0.594075
        38        22        23        46     9      180.000000       -0.437598         2    ;  uncertainty k = 0.275188
        38        22        23        46     9        0.000000        0.043453         3    ;  uncertainty k = 0.185064
        38        22        23        46     9      180.000000        0.027387         4    ;  uncertainty k = 0.094588
        39        24        23        46     9        0.000000        0.588818         1    ;  uncertainty k = 0.594075
        39        24        23        46     9      180.000000       -0.437598         2    ;  uncertainty k = 0.275188
        39        24        23        46     9        0.000000        0.043453         3    ;  uncertainty k = 0.185064
        39        24        23        46     9      180.000000        0.027387         4    ;  uncertainty k = 0.094588
        39        24        25        41     9        0.000000        0.383868         1    ;  uncertainty k = 0.296468
        39        24        25        41     9      180.000000        0.405715         2    ;  uncertainty k = 0.129122
        39        24        25        41     9        0.000000        0.251979         3    ;  uncertainty k = 0.049246
        39        24        25        41     9      180.000000       -0.051136         4    ;  uncertainty k = 0.032254
        39        24        25        42     9        0.000000        0.383868         1    ;  uncertainty k = 0.296468
        39        24        25        42     9      180.000000        0.405715         2    ;  uncertainty k = 0.129122
        39        24        25        42     9        0.000000        0.251979         3    ;  uncertainty k = 0.049246
        39        24        25        42     9      180.000000       -0.051136         4    ;  uncertainty k = 0.032254
        40        24        23        46     9        0.000000        0.588818         1    ;  uncertainty k = 0.594075
        40        24        23        46     9      180.000000       -0.437598         2    ;  uncertainty k = 0.275188
        40        24        23        46     9        0.000000        0.043453         3    ;  uncertainty k = 0.185064
        40        24        23        46     9      180.000000        0.027387         4    ;  uncertainty k = 0.094588
        40        24        25        41     9        0.000000        0.383868         1    ;  uncertainty k = 0.296468
        40        24        25        41     9      180.000000        0.405715         2    ;  uncertainty k = 0.129122
        40        24        25        41     9        0.000000        0.251979         3    ;  uncertainty k = 0.049246
        40        24        25        41     9      180.000000       -0.051136         4    ;  uncertainty k = 0.032254
        40        24        25        42     9        0.000000        0.383868         1    ;  uncertainty k = 0.296468
        40        24        25        42     9      180.000000        0.405715         2    ;  uncertainty k = 0.129122
        40        24        25        42     9        0.000000        0.251979         3    ;  uncertainty k = 0.049246
        40        24        25        42     9      180.000000       -0.051136         4    ;  uncertainty k = 0.032254
        43        26        23        46     9        0.000000        0.398437         1    ;  uncertainty k = 0.533437
        43        26        23        46     9      180.000000       -0.565187         2    ;  uncertainty k = 0.521388
        43        26        23        46     9        0.000000        0.367291         3    ;  uncertainty k = 0.089026
        43        26        23        46     9      180.000000        0.078601         4    ;  uncertainty k = 0.062799
        44        26        23        46     9        0.000000        0.398437         1    ;  uncertainty k = 0.533437
        44        26        23        46     9      180.000000       -0.565187         2    ;  uncertainty k = 0.521388
        44        26        23        46     9        0.000000        0.367291         3    ;  uncertainty k = 0.089026
        44        26        23        46     9      180.000000        0.078601         4    ;  uncertainty k = 0.062799
        45        26        23        46     9        0.000000        0.398437         1    ;  uncertainty k = 0.533437
        45        26        23        46     9      180.000000       -0.565187         2    ;  uncertainty k = 0.521388
        45        26        23        46     9        0.000000        0.367291         3    ;  uncertainty k = 0.089026
        45        26        23        46     9      180.000000        0.078601         4    ;  uncertainty k = 0.062799

[ dihedrals ] ; impropers
;       ai        aj        ak        al funct           phase               k        pn
         1         2         3        18     4      180.000000       14.559520         2    ;  uncertainty k = 0.105545
         1         3        18         2     4      180.000000       14.559520         2    ;  uncertainty k = 0.105545
         1        18         2         3     4      180.000000       14.559520         2    ;  uncertainty k = 0.105545
         2         1         4         5     4      180.000000       18.200966         2    ;  uncertainty k = 0.098022
         2         4         5         1     4      180.000000       18.200966         2    ;  uncertainty k = 0.098022
         2         5         1         4     4      180.000000       18.200966         2    ;  uncertainty k = 0.098022
         3         1         6        27     4      180.000000        1.584692         2    ;  uncertainty k = 0.329078
         3         6        27         1     4      180.000000        1.584692         2    ;  uncertainty k = 0.329078
         3        27         1         6     4      180.000000        1.584692         2    ;  uncertainty k = 0.329078
         4         2         7         8     4      180.000000        6.105512         2    ;  uncertainty k = 0.266857
         4         7         8         2     4      180.000000        6.105512         2    ;  uncertainty k = 0.266857
         4         8         2         7     4      180.000000        6.105512         2    ;  uncertainty k = 0.266857
         6         3         7        19     4      180.000000       17.465623         2    ;  uncertainty k = 0.094175
         6         7        19         3     4      180.000000       17.465623         2    ;  uncertainty k = 0.094175
         6        19         3         7     4      180.000000       17.465623         2    ;  uncertainty k = 0.094175
         7         4         6        28     4      180.000000        3.006111         2    ;  uncertainty k = 0.132734
         7         6        28         4     4      180.000000        3.006111         2    ;  uncertainty k = 0.132734
         7        28         4         6     4      180.000000        3.006111         2    ;  uncertainty k = 0.132734
         8         4         9        10     4      180.000000       50.279711         2    ;  uncertainty k = 0.014480
         8         9        10         4     4      180.000000       50.279711         2    ;  uncertainty k = 0.014480
         8        10         4         9     4      180.000000       50.279711         2    ;  uncertainty k = 0.014480
         9         8        11        29     4      180.000000        0.757578         2    ;  uncertainty k = 0.563079
         9        11        29         8     4      180.000000        0.757578         2    ;  uncertainty k = 0.563079
         9        29         8        11     4      180.000000        0.757578         2    ;  uncertainty k = 0.563079
        11         5         9        12     4      180.000000       30.243258         2    ;  uncertainty k = 0.041061
        11         9        12         5     4      180.000000       30.243258         2    ;  uncertainty k = 0.041061
        11        12         5         9     4      180.000000       30.243258         2    ;  uncertainty k = 0.041061
        12        11        13        17     4      180.000000        8.474717         2    ;  uncertainty k = 0.220633
        12        13        17        11     4      180.000000        8.474717         2    ;  uncertainty k = 0.220633
        12        17        11        13     4      180.000000        8.474717         2    ;  uncertainty k = 0.220633
        13        12        14        30     4      180.000000        4.094936         2    ;  uncertainty k = 0.122584
        13        14        30        12     4      180.000000        4.094936         2    ;  uncertainty k = 0.122584
        13        30        12        14     4      180.000000        4.094936         2    ;  uncertainty k = 0.122584
        14        13        15        31     4      180.000000        3.345389         2    ;  uncertainty k = 0.166708
        14        15        31        13     4      180.000000        3.345389         2    ;  uncertainty k = 0.166708
        14        31        13        15     4      180.000000        3.345389         2    ;  uncertainty k = 0.166708
        15        14        16        20     4      180.000000       14.786329         2    ;  uncertainty k = 0.104216
        15        16        20        14     4      180.000000       14.786329         2    ;  uncertainty k = 0.104216
        15        20        14        16     4      180.000000       14.786329         2    ;  uncertainty k = 0.104216
        16        15        17        32     4      180.000000        3.345390         2    ;  uncertainty k = 0.166708
        16        17        32        15     4      180.000000        3.345390         2    ;  uncertainty k = 0.166708
        16        32        15        17     4      180.000000        3.345390         2    ;  uncertainty k = 0.166708
        17        12        16        33     4      180.000000        4.094936         2    ;  uncertainty k = 0.122584
        17        16        33        12     4      180.000000        4.094936         2    ;  uncertainty k = 0.122584
        17        33        12        16     4      180.000000        4.094936         2    ;  uncertainty k = 0.122584

[ pairs ]
;       ai        aj funct
         1         7     1
         1         8     1
         1        11     1
         1        19     1
         2         6     1
         2         9     1
         2        10     1
         2        12     1
         2        27     1
         2        28     1
         3         4     1
         3         5     1
         3        28     1
         4        11     1
         4        18     1
         4        19     1
         4        29     1
         5         7     1
         5         8     1
         5        13     1
         5        17     1
         5        18     1
         5        29     1
         6         8     1
         6        18     1
         7         9     1
         7        10     1
         7        27     1
         8        12     1
         8        28     1
         9        13     1
         9        17     1
        10        11     1
        10        29     1
        11        14     1
        11        16     1
        11        30     1
        11        33     1
        12        15     1
        12        29     1
        12        31     1
        12        32     1
        13        16     1
        13        20     1
        13        33     1
        14        17     1
        14        21     1
        14        25     1
        14        32     1
        14        34     1
        15        22     1
        15        24     1
        15        30     1
        15        33     1
        15        35     1
        15        36     1
        15        41     1
        15        42     1
        16        21     1
        16        25     1
        16        31     1
        16        34     1
        17        20     1
        17        30     1
        18        27     1
        19        27     1
        19        28     1
        20        23     1
        20        31     1
        20        32     1
        20        37     1
        20        38     1
        20        39     1
        20        40     1
        21        24     1
        21        26     1
        21        41     1
        21        42     1
        21        46     1
        22        25     1
        22        34     1
        22        39     1
        22        40     1
        22        43     1
        22        44     1
        22        45     1
        23        35     1
        23        36     1
        23        41     1
        23        42     1
        24        34     1
        24        37     1
        24        38     1
        24        43     1
        24        44     1
        24        45     1
        25        26     1
        25        35     1
        25        36     1
        25        46     1
        26        37     1
        26        38     1
        26        39     1
        26        40     1
        30        31     1
        32        33     1
        34        35     1
        34        36     1
        34        41     1
        34        42     1
        35        37     1
        35        38     1
        36        37     1
        36        38     1
        37        46     1
        38        46     1
        39        41     1
        39        42     1
        39        46     1
        40        41     1
        40        42     1
        40        46     1
        43        46     1
        44        46     1
        45        46     1
