; ITP file created by ByteFF-ML, 2026-02-21 07:35:34.643835

[ atomtypes ]
;name           bonded.type        at.num        mass        charge   ptype           sigma         epsilon
 c0bf                                   6      0.0000       0.00000       A     3.39692e-01     4.51314e-01
 c1bf                                   6      0.0000       0.00000       A     3.39871e-01     4.50522e-01
 c2bf                                   6      0.0000       0.00000       A     3.39802e-01     4.51780e-01
 o3bf                                   8      0.0000       0.00000       A     3.24591e-01     3.88759e-01
 c4bf                                   6      0.0000       0.00000       A     3.39651e-01     4.50818e-01
 n5bf                                   7      0.0000       0.00000       A     3.18304e-01     6.82888e-01
 c6bf                                   6      0.0000       0.00000       A     3.31388e-01     4.09829e-01
 c7bf                                   6      0.0000       0.00000       A     3.31311e-01     4.15067e-01
 c8bf                                   6      0.0000       0.00000       A     3.31342e-01     4.12895e-01
 c9bf                                   6      0.0000       0.00000       A     3.31385e-01     4.13270e-01
 o10bf                                  8      0.0000       0.00000       A     3.24354e-01     3.84999e-01
 c11bf                                  6      0.0000       0.00000       A     3.31336e-01     4.17851e-01
 o12bf                                  8      0.0000       0.00000       A     3.04501e-01     6.11922e-01
 c13bf                                  6      0.0000       0.00000       A     3.31507e-01     4.12614e-01
 c14bf                                  6      0.0000       0.00000       A     3.31549e-01     4.12043e-01
 n15bf                                  7      0.0000       0.00000       A     3.20470e-01     8.55865e-01
 n16bf                                  7      0.0000       0.00000       A     3.38151e-01     3.91342e-01
 c17bf                                  6      0.0000       0.00000       A     3.31450e-01     4.11740e-01
 c18bf                                  6      0.0000       0.00000       A     3.39888e-01     4.51416e-01
 c19bf                                  6      0.0000       0.00000       A     3.31537e-01     4.12684e-01
 c20bf                                  6      0.0000       0.00000       A     3.31478e-01     4.13010e-01
 c21bf                                  6      0.0000       0.00000       A     3.31505e-01     4.13203e-01
 c22bf                                  6      0.0000       0.00000       A     3.31509e-01     4.13170e-01
 c23bf                                  6      0.0000       0.00000       A     3.31504e-01     4.13503e-01
 c24bf                                  6      0.0000       0.00000       A     3.31460e-01     4.12803e-01
 c25bf                                  6      0.0000       0.00000       A     3.39809e-01     4.50666e-01
 h26bf                                  1      0.0000       0.00000       A     2.42197e-01     8.65293e-02
 h27bf                                  1      0.0000       0.00000       A     2.60209e-01     8.72427e-02
 h28bf                                  1      0.0000       0.00000       A     2.60209e-01     8.72427e-02
 h29bf                                  1      0.0000       0.00000       A     2.41949e-01     8.68996e-02
 h30bf                                  1      0.0000       0.00000       A     2.41949e-01     8.68996e-02
 h31bf                                  1      0.0000       0.00000       A     5.38282e-02     1.93476e-02
 h32bf                                  1      0.0000       0.00000       A     2.42114e-01     8.70432e-02
 h33bf                                  1      0.0000       0.00000       A     2.42114e-01     8.70432e-02
 h34bf                                  1      0.0000       0.00000       A     2.62178e-01     6.77627e-02
 h35bf                                  1      0.0000       0.00000       A     2.62323e-01     6.70956e-02
 h36bf                                  1      0.0000       0.00000       A     5.35627e-02     2.00817e-02
 h37bf                                  1      0.0000       0.00000       A     1.10602e-01     4.12983e-02
 h38bf                                  1      0.0000       0.00000       A     2.60090e-01     8.80823e-02
 h39bf                                  1      0.0000       0.00000       A     2.60090e-01     8.80823e-02
 h40bf                                  1      0.0000       0.00000       A     2.62500e-01     6.77228e-02
 h41bf                                  1      0.0000       0.00000       A     2.62498e-01     6.72903e-02
 h42bf                                  1      0.0000       0.00000       A     2.62480e-01     6.72983e-02
 h43bf                                  1      0.0000       0.00000       A     2.62417e-01     6.78393e-02
 h44bf                                  1      0.0000       0.00000       A     2.59993e-01     8.72348e-02
 h45bf                                  1      0.0000       0.00000       A     2.59993e-01     8.72348e-02
 h46bf                                  1      0.0000       0.00000       A     2.59993e-01     8.72348e-02

[ moleculetype ]
;name             nrexcl
 13                    3

[ atoms ]
;       nr            type      resi   res      atom      cgnr      charge          mass ; qtot
         1            c0bf         1   UNL        c0         1     0.14399       12.0110 ; qtot    0.144
         2            c1bf         1   UNL        c1         2    -0.11955       12.0110 ; qtot    0.024
         3            c2bf         1   UNL        c2         3     0.08023       12.0110 ; qtot    0.105
         4            o3bf         1   UNL        o3         4    -0.66581       15.9990 ; qtot   -0.561
         5            c4bf         1   UNL        c4         5     0.10445       12.0110 ; qtot   -0.457
         6            n5bf         1   UNL        n5         6    -0.40602       14.0070 ; qtot   -0.863
         7            c6bf         1   UNL        c6         7    -0.23343       12.0110 ; qtot   -1.096
         8            c7bf         1   UNL        c7         8     0.20786       12.0110 ; qtot   -0.888
         9            c8bf         1   UNL        c8         9    -0.22363       12.0110 ; qtot   -1.112
        10            c9bf         1   UNL        c9        10     0.03878       12.0110 ; qtot   -1.073
        11           o10bf         1   UNL       o10        11    -0.54097       15.9990 ; qtot   -1.614
        12           c11bf         1   UNL       c11        12     0.62506       12.0110 ; qtot   -0.989
        13           o12bf         1   UNL       o12        13    -0.62611       15.9990 ; qtot   -1.615
        14           c13bf         1   UNL       c13        14    -0.25303       12.0110 ; qtot   -1.868
        15           c14bf         1   UNL       c14        15     0.03479       12.0110 ; qtot   -1.833
        16           n15bf         1   UNL       n15        16    -0.08102       14.0070 ; qtot   -1.914
        17           n16bf         1   UNL       n16        17    -0.50781       14.0070 ; qtot   -2.422
        18           c17bf         1   UNL       c17        18     0.36104       12.0110 ; qtot   -2.061
        19           c18bf         1   UNL       c18        19    -0.04030       12.0110 ; qtot   -2.101
        20           c19bf         1   UNL       c19        20    -0.08899       12.0110 ; qtot   -2.190
        21           c20bf         1   UNL       c20        21    -0.10722       12.0110 ; qtot   -2.298
        22           c21bf         1   UNL       c21        22    -0.10440       12.0110 ; qtot   -2.402
        23           c22bf         1   UNL       c22        23    -0.08108       12.0110 ; qtot   -2.483
        24           c23bf         1   UNL       c23        24    -0.11166       12.0110 ; qtot   -2.595
        25           c24bf         1   UNL       c24        25    -0.10284       12.0110 ; qtot   -2.698
        26           c25bf         1   UNL       c25        26    -0.04814       12.0110 ; qtot   -2.746
        27           h26bf         1   UNL       h26        27     0.06110        1.0080 ; qtot   -2.685
        28           h27bf         1   UNL       h27        28     0.06386        1.0080 ; qtot   -2.621
        29           h28bf         1   UNL       h28        29     0.06386        1.0080 ; qtot   -2.557
        30           h29bf         1   UNL       h29        30     0.06560        1.0080 ; qtot   -2.491
        31           h30bf         1   UNL       h30        31     0.06560        1.0080 ; qtot   -2.426
        32           h31bf         1   UNL       h31        32     0.45546        1.0080 ; qtot   -1.970
        33           h32bf         1   UNL       h32        33     0.05752        1.0080 ; qtot   -1.913
        34           h33bf         1   UNL       h33        34     0.05752        1.0080 ; qtot   -1.855
        35           h34bf         1   UNL       h34        35     0.13879        1.0080 ; qtot   -1.716
        36           h35bf         1   UNL       h35        36     0.13636        1.0080 ; qtot   -1.580
        37           h36bf         1   UNL       h36        37     0.49133        1.0080 ; qtot   -1.089
        38           h37bf         1   UNL       h37        38     0.37507        1.0080 ; qtot   -0.714
        39           h38bf         1   UNL       h38        39     0.06256        1.0080 ; qtot   -0.651
        40           h39bf         1   UNL       h39        40     0.06256        1.0080 ; qtot   -0.589
        41           h40bf         1   UNL       h40        41     0.11785        1.0080 ; qtot   -0.471
        42           h41bf         1   UNL       h41        42     0.11206        1.0080 ; qtot   -0.359
        43           h42bf         1   UNL       h42        43     0.11442        1.0080 ; qtot   -0.244
        44           h43bf         1   UNL       h43        44     0.11542        1.0080 ; qtot   -0.129
        45           h44bf         1   UNL       h44        45     0.04296        1.0080 ; qtot   -0.086
        46           h45bf         1   UNL       h45        46     0.04296        1.0080 ; qtot   -0.043
        47           h46bf         1   UNL       h46        47     0.04295        1.0080 ; qtot    0.000

[ bonds ]
;       ai        aj funct               r               k
         1         2     1        0.153457   169501.771826
         1         3     1        0.153568   170148.013916
         1         4     1        0.142830   207724.082764
         1        27     1        0.109562   297110.120020
         2         5     1        0.153417   177702.427148
         2        28     1        0.109322   307202.896387
         2        29     1        0.109322   307202.896387
         3         6     1        0.146900   181050.750781
         3        30     1        0.109393   298648.781934
         3        31     1        0.109393   298648.781934
         4        32     1        0.097041   469807.426953
         5         6     1        0.147488   173935.128931
         5        33     1        0.109348   299672.360352
         5        34     1        0.109348   299672.360352
         6        12     1        0.136517   296311.676758
         7         8     1        0.143100   237216.711621
         7        10     1        0.139507   315313.763232
         7        12     1        0.149425   181572.320703
         8         9     1        0.139299   312590.485889
         8        11     1        0.136389   288571.327832
         9        15     1        0.140259   307699.644238
         9        35     1        0.108572   320704.570410
        10        14     1        0.139937   309695.369336
        10        36     1        0.108454   323429.686426
        11        37     1        0.098162   421521.656250
        12        13     1        0.124505   540460.232422
        14        15     1        0.141836   252596.665576
        14        18     1        0.143851   231968.605811
        15        16     1        0.136780   292466.247754
        16        17     1        0.136544   239687.784473
        16        38     1        0.100921   435085.640820
        17        18     1        0.132649   371345.935156
        18        19     1        0.150272   213688.874780
        19        20     1        0.151976   190714.886768
        19        39     1        0.109487   294981.218896
        19        40     1        0.109487   294981.218896
        20        21     1        0.140127   292931.431738
        20        25     1        0.140100   292208.118652
        21        24     1        0.139779   309667.227441
        21        41     1        0.108686   316467.300000
        22        23     1        0.140305   290280.577637
        22        24     1        0.139838   307722.934082
        22        42     1        0.108737   315158.906201
        23        25     1        0.140240   293172.502051
        23        26     1        0.151164   205697.534375
        24        43     1        0.108665   318356.484277
        25        44     1        0.108796   312332.995215
        26        45     1        0.109461   298772.790137
        26        46     1        0.109461   298772.790137
        26        47     1        0.109461   298772.790137

[ angles ]
;       ai        aj        ak funct           theta             cth
         1         2         5     1      103.463562      603.674027
         1         2        28     1      110.637794      492.324505
         1         2        29     1      110.637794      492.324505
         1         3         6     1      103.443336      538.887274
         1         3        30     1      111.348106      473.459859
         1         3        31     1      111.348106      473.459859
         1         4        32     1      108.188431      591.669159
         2         1         3     1      102.907066      503.377700
         2         1         4     1      112.261009      641.849835
         2         1        27     1      111.139671      440.437568
         2         5         6     1      103.403908      599.037956
         2         5        33     1      112.257568      455.040900
         2         5        34     1      112.257568      455.040836
         3         1         4     1      111.099403      606.839288
         3         1        27     1      110.509232      440.028208
         3         6         5     1      111.885170      405.816334
         3         6        12     1      122.364014      452.128999
         4         1        27     1      108.442184      465.030602
         5         2        28     1      111.568985      475.669426
         5         2        29     1      111.568985      475.669426
         5         6        12     1      123.119385      446.076289
         6         3        30     1      111.014259      450.304468
         6         3        31     1      111.014259      450.304468
         6         5        33     1      110.561607      436.319485
         6         5        34     1      110.561607      436.319485
         6        12         7     1      119.133163      430.101040
         6        12        13     1      120.146484      639.763198
         7         8         9     1      121.411804      570.588084
         7         8        11     1      120.284714      617.762722
         7        10        14     1      119.682541      624.514479
         7        10        36     1      119.239525      388.692489
         7        12        13     1      120.195984      584.633622
         8         7        10     1      119.265526      709.655968
         8         7        12     1      120.460373      665.117397
         8         9        15     1      117.276917      751.845954
         8         9        35     1      119.841331      426.367578
         8        11        37     1      107.881241      543.791421
         9         8        11     1      118.641357      507.813751
         9        15        14     1      122.238541      623.730234
         9        15        16     1      132.125397      460.202812
        10         7        12     1      120.240234      488.528031
        10        14        15     1      119.296288      739.086975
        10        14        18     1      135.900269      434.408767
        14        10        36     1      120.875511      398.709293
        14        15        16     1      105.733543      167.360000
        14        18        17     1      110.775124      346.517155
        14        18        19     1      127.888290      447.259934
        15         9        35     1      122.811569      414.982560
        15        14        18     1      104.888145      523.051393
        15        16        17     1      112.403175      415.616519
        15        16        38     1      128.766632      381.189782
        16        17        18     1      106.464699      543.087490
        17        16        38     1      118.778221      481.513178
        17        18        19     1      121.626099      449.516904
        18        19        20     1      113.242409      518.675131
        18        19        39     1      108.505295      513.969631
        18        19        40     1      108.505295      513.969631
        19        20        21     1      120.663452      494.208186
        19        20        25     1      120.480385      470.178628
        20        19        39     1      109.708969      491.678640
        20        19        40     1      109.708969      491.678640
        20        21        24     1      120.141457      702.731708
        20        21        41     1      119.666458      390.469202
        20        25        23     1      121.683884      698.516936
        20        25        44     1      119.097740      392.966029
        21        20        25     1      118.936722      718.279147
        21        24        22     1      120.290588      704.723347
        21        24        43     1      119.873840      429.183491
        22        23        25     1      118.358719      719.361601
        22        23        26     1      120.957298      452.835515
        22        24        43     1      119.866966      422.410220
        23        22        24     1      120.602089      700.655222
        23        22        42     1      119.620178      402.538901
        23        25        44     1      119.327309      397.556164
        23        26        45     1      111.249207      480.527701
        23        26        46     1      111.249207      480.527701
        23        26        47     1      111.249207      480.527701
        24        21        41     1      120.192947      432.081953
        24        22        42     1      119.821182      433.551518
        25        23        26     1      120.699196      470.163210
        28         2        29     1      108.426804      353.081501
        30         3        31     1      108.355370      346.396428
        33         5        34     1      107.852066      342.609530
        39        19        40     1      106.972717      364.166330
        45        26        46     1      107.629349      360.727439
        45        26        47     1      107.629349      360.727439
        46        26        47     1      107.629349      360.727439

[ dihedrals ] ; propers for gromacs 4.5 or higher, use funct 9
;       ai        aj        ak        al funct           phase               k        pn
         1         2         5         6     9        0.000000       -0.408353         1
         1         2         5         6     9      180.000000        0.321338         2
         1         2         5         6     9        0.000000       -0.022173         3
         1         2         5         6     9      180.000000       -0.601916         4
         1         2         5        33     9        0.000000        0.034317         1
         1         2         5        33     9      180.000000        0.035144         2
         1         2         5        33     9        0.000000       -0.001873         3
         1         2         5        33     9      180.000000        0.082590         4
         1         2         5        34     9        0.000000        0.034317         1
         1         2         5        34     9      180.000000        0.035144         2
         1         2         5        34     9        0.000000       -0.001873         3
         1         2         5        34     9      180.000000        0.082590         4
         1         3         6         5     9        0.000000       -0.380220         1
         1         3         6         5     9      180.000000        2.130808         2
         1         3         6         5     9        0.000000       -0.157647         3
         1         3         6         5     9      180.000000       -0.340547         4
         1         3         6        12     9        0.000000        0.796551         1
         1         3         6        12     9      180.000000       -0.686801         2
         1         3         6        12     9        0.000000        0.020049         3
         1         3         6        12     9      180.000000       -0.166520         4
         2         1         3         6     9        0.000000       -0.433997         1
         2         1         3         6     9      180.000000        2.340645         2
         2         1         3         6     9        0.000000       -0.008701         3
         2         1         3         6     9      180.000000       -1.716073         4
         2         1         3        30     9        0.000000        0.014718         1
         2         1         3        30     9      180.000000       -0.007680         2
         2         1         3        30     9        0.000000        0.088919         3
         2         1         3        30     9      180.000000        0.128224         4
         2         1         3        31     9        0.000000        0.014718         1
         2         1         3        31     9      180.000000       -0.007680         2
         2         1         3        31     9        0.000000        0.088919         3
         2         1         3        31     9      180.000000        0.128224         4
         2         1         4        32     9        0.000000        2.989805         1
         2         1         4        32     9      180.000000       -1.381773         2
         2         1         4        32     9        0.000000        0.746734         3
         2         1         4        32     9      180.000000        0.178407         4
         2         5         6         3     9        0.000000        0.455818         1
         2         5         6         3     9      180.000000       -0.406606         2
         2         5         6         3     9        0.000000        0.581985         3
         2         5         6         3     9      180.000000       -0.094109         4
         2         5         6        12     9        0.000000       -0.300716         1
         2         5         6        12     9      180.000000       -0.442764         2
         2         5         6        12     9        0.000000        0.217891         3
         2         5         6        12     9      180.000000       -0.072039         4
         3         1         2         5     9        0.000000       -0.931483         1
         3         1         2         5     9      180.000000        3.285530         2
         3         1         2         5     9        0.000000       -0.252257         3
         3         1         2         5     9      180.000000       -0.877164         4
         3         1         2        28     9        0.000000        0.004038         1
         3         1         2        28     9      180.000000       -0.021107         2
         3         1         2        28     9        0.000000       -0.001258         3
         3         1         2        28     9      180.000000        0.129324         4
         3         1         2        29     9        0.000000        0.004038         1
         3         1         2        29     9      180.000000       -0.021107         2
         3         1         2        29     9        0.000000       -0.001258         3
         3         1         2        29     9      180.000000        0.129324         4
         3         1         4        32     9        0.000000        2.934115         1
         3         1         4        32     9      180.000000       -2.107311         2
         3         1         4        32     9        0.000000        0.850827         3
         3         1         4        32     9      180.000000        0.224980         4
         3         6         5        33     9        0.000000       -0.003407         1
         3         6         5        33     9      180.000000        0.064440         2
         3         6         5        33     9        0.000000        0.337209         3
         3         6         5        33     9      180.000000        0.033636         4
         3         6         5        34     9        0.000000       -0.003407         1
         3         6         5        34     9      180.000000        0.064440         2
         3         6         5        34     9        0.000000        0.337209         3
         3         6         5        34     9      180.000000        0.033636         4
         3         6        12         7     9        0.000000        8.193313         1
         3         6        12         7     9      180.000000        7.644250         2
         3         6        12         7     9        0.000000        1.069772         3
         3         6        12         7     9      180.000000       -0.055360         4
         3         6        12        13     9        0.000000       -1.336541         1
         3         6        12        13     9      180.000000       13.540829         2
         3         6        12        13     9        0.000000       -1.732699         3
         3         6        12        13     9      180.000000       -0.589190         4
         4         1         2         5     9        0.000000       -0.996622         1
         4         1         2         5     9      180.000000       -0.189700         2
         4         1         2         5     9        0.000000        0.266558         3
         4         1         2         5     9      180.000000        0.155299         4
         4         1         2        28     9        0.000000        0.152324         1
         4         1         2        28     9      180.000000        0.034038         2
         4         1         2        28     9        0.000000        0.490083         3
         4         1         2        28     9      180.000000       -0.080955         4
         4         1         2        29     9        0.000000        0.152324         1
         4         1         2        29     9      180.000000        0.034038         2
         4         1         2        29     9        0.000000        0.490083         3
         4         1         2        29     9      180.000000       -0.080955         4
         4         1         3         6     9        0.000000        0.971698         1
         4         1         3         6     9      180.000000       -1.675876         2
         4         1         3         6     9        0.000000        0.467179         3
         4         1         3         6     9      180.000000        0.267573         4
         4         1         3        30     9        0.000000        0.100033         1
         4         1         3        30     9      180.000000        0.137586         2
         4         1         3        30     9        0.000000        0.543435         3
         4         1         3        30     9      180.000000       -0.078347         4
         4         1         3        31     9        0.000000        0.100033         1
         4         1         3        31     9      180.000000        0.137586         2
         4         1         3        31     9        0.000000        0.543435         3
         4         1         3        31     9      180.000000       -0.078347         4
         5         2         1        27     9        0.000000        0.002645         1
         5         2         1        27     9      180.000000        0.055621         2
         5         2         1        27     9        0.000000        0.143629         3
         5         2         1        27     9      180.000000        0.052641         4
         5         6         3        30     9        0.000000       -0.022153         1
         5         6         3        30     9      180.000000        0.034358         2
         5         6         3        30     9        0.000000        0.029163         3
         5         6         3        30     9      180.000000        0.083095         4
         5         6         3        31     9        0.000000       -0.022153         1
         5         6         3        31     9      180.000000        0.034358         2
         5         6         3        31     9        0.000000        0.029163         3
         5         6         3        31     9      180.000000        0.083095         4
         5         6        12         7     9        0.000000        8.397564         1
         5         6        12         7     9      180.000000        7.595849         2
         5         6        12         7     9        0.000000        1.091385         3
         5         6        12         7     9      180.000000       -0.028096         4
         5         6        12        13     9        0.000000       -1.529914         1
         5         6        12        13     9      180.000000       13.490223         2
         5         6        12        13     9        0.000000       -1.747322         3
         5         6        12        13     9      180.000000       -0.588536         4
         6         3         1        27     9        0.000000        0.063768         1
         6         3         1        27     9      180.000000       -0.001985         2
         6         3         1        27     9        0.000000        0.371431         3
         6         3         1        27     9      180.000000       -0.031477         4
         6         5         2        28     9        0.000000       -0.013252         1
         6         5         2        28     9      180.000000        0.005739         2
         6         5         2        28     9        0.000000        0.086828         3
         6         5         2        28     9      180.000000        0.075275         4
         6         5         2        29     9        0.000000       -0.013252         1
         6         5         2        29     9      180.000000        0.005739         2
         6         5         2        29     9        0.000000        0.086828         3
         6         5         2        29     9      180.000000        0.075275         4
         6        12         7         8     9        0.000000        1.043364         1
         6        12         7         8     9      180.000000        9.357874         2
         6        12         7         8     9        0.000000       -0.608203         3
         6        12         7         8     9      180.000000        0.181784         4
         6        12         7        10     9        0.000000        1.272201         1
         6        12         7        10     9      180.000000        4.321159         2
         6        12         7        10     9        0.000000        0.514886         3
         6        12         7        10     9      180.000000       -0.018869         4
         7         8         9        15     9        0.000000       -0.217814         1
         7         8         9        15     9      180.000000       18.751257         2
         7         8         9        15     9        0.000000       -1.318418         3
         7         8         9        15     9      180.000000       -0.733926         4
         7         8         9        35     9        0.000000        0.222448         1
         7         8         9        35     9      180.000000       12.879280         2
         7         8         9        35     9        0.000000       -0.430172         3
         7         8         9        35     9      180.000000        0.052340         4
         7         8        11        37     9        0.000000       17.880930         1
         7         8        11        37     9      180.000000        2.112556         2
         7         8        11        37     9        0.000000       -0.982833         3
         7         8        11        37     9      180.000000        0.395432         4
         7        10        14        15     9        0.000000       -0.225109         1
         7        10        14        15     9      180.000000       20.508541         2
         7        10        14        15     9        0.000000       -2.435835         3
         7        10        14        15     9      180.000000       -0.671548         4
         7        10        14        18     9        0.000000       -0.388893         1
         7        10        14        18     9      180.000000       14.907070         2
         7        10        14        18     9        0.000000       -0.949786         3
         7        10        14        18     9      180.000000       -0.362345         4
         8         7        10        14     9        0.000000        0.624604         1
         8         7        10        14     9      180.000000       21.111532         2
         8         7        10        14     9        0.000000       -1.449734         3
         8         7        10        14     9      180.000000       -0.827506         4
         8         7        10        36     9        0.000000        0.589400         1
         8         7        10        36     9      180.000000       14.309185         2
         8         7        10        36     9        0.000000       -0.527198         3
         8         7        10        36     9      180.000000       -0.036435         4
         8         7        12        13     9        0.000000       -1.235686         1
         8         7        12        13     9      180.000000        0.464127         2
         8         7        12        13     9        0.000000       -0.928760         3
         8         7        12        13     9      180.000000        0.302897         4
         8         9        15        14     9        0.000000       -0.109175         1
         8         9        15        14     9      180.000000       16.421673         2
         8         9        15        14     9        0.000000       -1.528452         3
         8         9        15        14     9      180.000000       -0.360215         4
         8         9        15        16     9        0.000000        0.306548         1
         8         9        15        16     9      180.000000       14.057598         2
         8         9        15        16     9        0.000000       -0.145116         3
         8         9        15        16     9      180.000000       -0.489434         4
         9         8         7        10     9        0.000000       -0.145685         1
         9         8         7        10     9      180.000000       11.538419         2
         9         8         7        10     9        0.000000       -0.645585         3
         9         8         7        10     9      180.000000       -0.109432         4
         9         8         7        12     9        0.000000       -0.994209         1
         9         8         7        12     9      180.000000       10.162347         2
         9         8         7        12     9        0.000000       -0.369337         3
         9         8         7        12     9      180.000000       -0.325111         4
         9         8        11        37     9        0.000000        1.610386         1
         9         8        11        37     9      180.000000        1.769978         2
         9         8        11        37     9        0.000000        2.225804         3
         9         8        11        37     9      180.000000       -0.788693         4
         9        15        14        10     9        0.000000       -0.149090         1
         9        15        14        10     9      180.000000       10.400215         2
         9        15        14        10     9        0.000000       -1.908302         3
         9        15        14        10     9      180.000000       -0.020367         4
         9        15        14        18     9        0.000000       -0.029971         1
         9        15        14        18     9      180.000000       10.813709         2
         9        15        14        18     9        0.000000       -2.467005         3
         9        15        14        18     9      180.000000        0.060905         4
         9        15        16        17     9        0.000000        1.506790         1
         9        15        16        17     9      180.000000        5.861879         2
         9        15        16        17     9        0.000000        0.321795         3
         9        15        16        17     9      180.000000       -0.038403         4
         9        15        16        38     9        0.000000        0.197913         1
         9        15        16        38     9      180.000000        1.529543         2
         9        15        16        38     9        0.000000        0.128802         3
         9        15        16        38     9      180.000000       -0.086789         4
        10         7         8        11     9        0.000000        0.186934         1
        10         7         8        11     9      180.000000       16.749768         2
        10         7         8        11     9        0.000000        0.193327         3
        10         7         8        11     9      180.000000       -0.460109         4
        10         7        12        13     9        0.000000       -5.453971         1
        10         7        12        13     9      180.000000        0.675129         2
        10         7        12        13     9        0.000000        0.532985         3
        10         7        12        13     9      180.000000       -0.132062         4
        10        14        15        16     9        0.000000        0.190160         1
        10        14        15        16     9      180.000000        9.243274         2
        10        14        15        16     9        0.000000       -2.400628         3
        10        14        15        16     9      180.000000        0.176517         4
        10        14        18        17     9        0.000000       -0.250268         1
        10        14        18        17     9      180.000000        4.386636         2
        10        14        18        17     9        0.000000       -1.091178         3
        10        14        18        17     9      180.000000        0.141468         4
        10        14        18        19     9        0.000000       -0.677677         1
        10        14        18        19     9      180.000000        4.541444         2
        10        14        18        19     9        0.000000        0.150102         3
        10        14        18        19     9      180.000000        0.057301         4
        11         8         7        12     9        0.000000       -0.590239         1
        11         8         7        12     9      180.000000       15.166939         2
        11         8         7        12     9        0.000000        0.229029         3
        11         8         7        12     9      180.000000       -0.619198         4
        11         8         9        15     9        0.000000        0.306203         1
        11         8         9        15     9      180.000000       25.685245         2
        11         8         9        15     9        0.000000        0.163651         3
        11         8         9        15     9      180.000000       -1.128161         4
        11         8         9        35     9        0.000000        0.295744         1
        11         8         9        35     9      180.000000       17.006364         2
        11         8         9        35     9        0.000000        0.196902         3
        11         8         9        35     9      180.000000        0.186246         4
        12         6         3        30     9        0.000000        0.139566         1
        12         6         3        30     9      180.000000        0.144151         2
        12         6         3        30     9        0.000000        0.053226         3
        12         6         3        30     9      180.000000       -0.044392         4
        12         6         3        31     9        0.000000        0.139566         1
        12         6         3        31     9      180.000000        0.144151         2
        12         6         3        31     9        0.000000        0.053226         3
        12         6         3        31     9      180.000000       -0.044392         4
        12         6         5        33     9        0.000000        0.193638         1
        12         6         5        33     9      180.000000        0.156814         2
        12         6         5        33     9        0.000000        0.178773         3
        12         6         5        33     9      180.000000        0.003612         4
        12         6         5        34     9        0.000000        0.193638         1
        12         6         5        34     9      180.000000        0.156814         2
        12         6         5        34     9        0.000000        0.178773         3
        12         6         5        34     9      180.000000        0.003612         4
        12         7        10        14     9        0.000000       -0.328214         1
        12         7        10        14     9      180.000000       16.606495         2
        12         7        10        14     9        0.000000        0.009038         3
        12         7        10        14     9      180.000000       -0.790480         4
        12         7        10        36     9        0.000000        0.123400         1
        12         7        10        36     9      180.000000       11.495599         2
        12         7        10        36     9        0.000000       -0.007797         3
        12         7        10        36     9      180.000000       -0.149014         4
        14        15         9        35     9        0.000000        0.264446         1
        14        15         9        35     9      180.000000       11.317117         2
        14        15         9        35     9        0.000000       -0.115984         3
        14        15         9        35     9      180.000000        0.023044         4
        14        15        16        17     9        0.000000        0.358583         1
        14        15        16        17     9      180.000000       23.681358         2
        14        15        16        17     9        0.000000       -4.945294         3
        14        15        16        17     9      180.000000       -1.020022         4
        14        15        16        38     9        0.000000        0.194587         1
        14        15        16        38     9      180.000000        1.571840         2
        14        15        16        38     9        0.000000        0.559073         3
        14        15        16        38     9      180.000000        0.013949         4
        14        18        17        16     9        0.000000       -0.298909         1
        14        18        17        16     9      180.000000       41.240624         2
        14        18        17        16     9        0.000000       -4.648545         3
        14        18        17        16     9      180.000000       -0.184767         4
        14        18        19        20     9        0.000000        0.262882         1
        14        18        19        20     9      180.000000       -0.334028         2
        14        18        19        20     9        0.000000        0.527221         3
        14        18        19        20     9      180.000000        0.016273         4
        14        18        19        39     9        0.000000       -0.103168         1
        14        18        19        39     9      180.000000        0.156495         2
        14        18        19        39     9        0.000000        0.503620         3
        14        18        19        39     9      180.000000        0.016699         4
        14        18        19        40     9        0.000000       -0.103168         1
        14        18        19        40     9      180.000000        0.156495         2
        14        18        19        40     9        0.000000        0.503620         3
        14        18        19        40     9      180.000000        0.016699         4
        15        14        10        36     9        0.000000        0.401772         1
        15        14        10        36     9      180.000000       14.023897         2
        15        14        10        36     9        0.000000       -0.223974         3
        15        14        10        36     9      180.000000       -0.159976         4
        15        14        18        17     9        0.000000       -0.114382         1
        15        14        18        17     9      180.000000       31.359778         2
        15        14        18        17     9        0.000000       -9.640828         3
        15        14        18        17     9      180.000000       -0.285592         4
        15        14        18        19     9        0.000000        0.753685         1
        15        14        18        19     9      180.000000       15.193237         2
        15        14        18        19     9        0.000000       -0.046552         3
        15        14        18        19     9      180.000000       -0.698471         4
        15        16        17        18     9        0.000000       -0.273306         1
        15        16        17        18     9      180.000000       16.827517         2
        15        16        17        18     9        0.000000       -2.238173         3
        15        16        17        18     9      180.000000       -1.056610         4
        16        15         9        35     9        0.000000       -0.048754         1
        16        15         9        35     9      180.000000        9.180324         2
        16        15         9        35     9        0.000000        0.107306         3
        16        15         9        35     9      180.000000        0.105155         4
        16        15        14        18     9        0.000000        0.149479         1
        16        15        14        18     9      180.000000       17.136540         2
        16        15        14        18     9        0.000000       -6.076275         3
        16        15        14        18     9      180.000000       -0.255288         4
        16        17        18        19     9        0.000000        0.502865         1
        16        17        18        19     9      180.000000       32.346835         2
        16        17        18        19     9        0.000000        0.836880         3
        16        17        18        19     9      180.000000       -0.882570         4
        17        18        19        20     9        0.000000       -1.256891         1
        17        18        19        20     9      180.000000       -0.209273         2
        17        18        19        20     9        0.000000        0.050292         3
        17        18        19        20     9      180.000000        0.010328         4
        17        18        19        39     9        0.000000        0.221262         1
        17        18        19        39     9      180.000000        0.090777         2
        17        18        19        39     9        0.000000       -0.191475         3
        17        18        19        39     9      180.000000        0.040068         4
        17        18        19        40     9        0.000000        0.221262         1
        17        18        19        40     9      180.000000        0.090777         2
        17        18        19        40     9        0.000000       -0.191475         3
        17        18        19        40     9      180.000000        0.040068         4
        18        14        10        36     9        0.000000        0.030969         1
        18        14        10        36     9      180.000000        9.767157         2
        18        14        10        36     9        0.000000        0.023171         3
        18        14        10        36     9      180.000000        0.184553         4
        18        17        16        38     9        0.000000        2.418378         1
        18        17        16        38     9      180.000000        2.925996         2
        18        17        16        38     9        0.000000        0.450147         3
        18        17        16        38     9      180.000000        0.021436         4
        18        19        20        21     9        0.000000       -0.019314         1
        18        19        20        21     9      180.000000        0.135291         2
        18        19        20        21     9        0.000000        0.066587         3
        18        19        20        21     9      180.000000        0.034741         4
        18        19        20        25     9        0.000000       -0.200091         1
        18        19        20        25     9      180.000000        0.162840         2
        18        19        20        25     9        0.000000        0.083858         3
        18        19        20        25     9      180.000000        0.033752         4
        19        20        21        24     9        0.000000        0.051523         1
        19        20        21        24     9      180.000000       15.549923         2
        19        20        21        24     9        0.000000       -0.172588         3
        19        20        21        24     9      180.000000       -0.246205         4
        19        20        21        41     9        0.000000       -0.109607         1
        19        20        21        41     9      180.000000       12.795334         2
        19        20        21        41     9        0.000000       -0.315184         3
        19        20        21        41     9      180.000000        0.124430         4
        19        20        25        23     9        0.000000        0.005205         1
        19        20        25        23     9      180.000000       15.127308         2
        19        20        25        23     9        0.000000       -0.183701         3
        19        20        25        23     9      180.000000       -0.236482         4
        19        20        25        44     9        0.000000       -0.173959         1
        19        20        25        44     9      180.000000       12.765157         2
        19        20        25        44     9        0.000000       -0.366088         3
        19        20        25        44     9      180.000000        0.137083         4
        20        21        24        22     9        0.000000        0.120778         1
        20        21        24        22     9      180.000000       18.170318         2
        20        21        24        22     9        0.000000       -1.465077         3
        20        21        24        22     9      180.000000       -0.405247         4
        20        21        24        43     9        0.000000        0.093196         1
        20        21        24        43     9      180.000000       14.421657         2
        20        21        24        43     9        0.000000       -0.700332         3
        20        21        24        43     9      180.000000        0.083795         4
        20        25        23        22     9        0.000000        0.011746         1
        20        25        23        22     9      180.000000       18.527574         2
        20        25        23        22     9        0.000000       -1.306903         3
        20        25        23        22     9      180.000000       -0.464395         4
        20        25        23        26     9        0.000000        0.067415         1
        20        25        23        26     9      180.000000       15.253781         2
        20        25        23        26     9        0.000000       -0.113296         3
        20        25        23        26     9      180.000000       -0.097650         4
        21        20        19        39     9        0.000000        0.004848         1
        21        20        19        39     9      180.000000        0.009985         2
        21        20        19        39     9        0.000000       -0.034862         3
        21        20        19        39     9      180.000000        0.010073         4
        21        20        19        40     9        0.000000        0.004848         1
        21        20        19        40     9      180.000000        0.009985         2
        21        20        19        40     9        0.000000       -0.034862         3
        21        20        19        40     9      180.000000        0.010073         4
        21        20        25        23     9        0.000000       -0.003596         1
        21        20        25        23     9      180.000000       18.714809         2
        21        20        25        23     9        0.000000       -1.415420         3
        21        20        25        23     9      180.000000       -0.479172         4
        21        20        25        44     9        0.000000       -0.037887         1
        21        20        25        44     9      180.000000       14.264630         2
        21        20        25        44     9        0.000000       -0.522135         3
        21        20        25        44     9      180.000000        0.031805         4
        21        24        22        23     9        0.000000        0.030679         1
        21        24        22        23     9      180.000000       18.128836         2
        21        24        22        23     9        0.000000       -1.600456         3
        21        24        22        23     9      180.000000       -0.379736         4
        21        24        22        42     9        0.000000        0.052581         1
        21        24        22        42     9      180.000000       14.392507         2
        21        24        22        42     9        0.000000       -0.725326         3
        21        24        22        42     9      180.000000        0.129767         4
        22        23        25        44     9        0.000000        0.000307         1
        22        23        25        44     9      180.000000       14.494901         2
        22        23        25        44     9        0.000000       -0.431473         3
        22        23        25        44     9      180.000000        0.037930         4
        22        23        26        45     9        0.000000       -0.019412         1
        22        23        26        45     9      180.000000        0.009088         2
        22        23        26        45     9        0.000000       -0.021937         3
        22        23        26        45     9      180.000000        0.001297         4
        22        23        26        46     9        0.000000       -0.019412         1
        22        23        26        46     9      180.000000        0.009088         2
        22        23        26        46     9        0.000000       -0.021937         3
        22        23        26        46     9      180.000000        0.001297         4
        22        23        26        47     9        0.000000       -0.019412         1
        22        23        26        47     9      180.000000        0.009088         2
        22        23        26        47     9        0.000000       -0.021937         3
        22        23        26        47     9      180.000000        0.001297         4
        22        24        21        41     9        0.000000        0.128074         1
        22        24        21        41     9      180.000000       14.455833         2
        22        24        21        41     9        0.000000       -0.644537         3
        22        24        21        41     9      180.000000        0.078602         4
        23        22        24        43     9        0.000000        0.069821         1
        23        22        24        43     9      180.000000       13.971634         2
        23        22        24        43     9        0.000000       -0.762671         3
        23        22        24        43     9      180.000000        0.146827         4
        24        21        20        25     9        0.000000       -0.089016         1
        24        21        20        25     9      180.000000       19.132299         2
        24        21        20        25     9        0.000000       -1.412374         3
        24        21        20        25     9      180.000000       -0.510727         4
        24        22        23        25     9        0.000000       -0.029249         1
        24        22        23        25     9      180.000000       18.995282         2
        24        22        23        25     9        0.000000       -1.432075         3
        24        22        23        25     9      180.000000       -0.454277         4
        24        22        23        26     9        0.000000        0.077304         1
        24        22        23        26     9      180.000000       15.650399         2
        24        22        23        26     9        0.000000       -0.197744         3
        24        22        23        26     9      180.000000       -0.114687         4
        25        20        19        39     9        0.000000        0.042838         1
        25        20        19        39     9      180.000000        0.029506         2
        25        20        19        39     9        0.000000       -0.001191         3
        25        20        19        39     9      180.000000        0.010695         4
        25        20        19        40     9        0.000000        0.042838         1
        25        20        19        40     9      180.000000        0.029506         2
        25        20        19        40     9        0.000000       -0.001191         3
        25        20        19        40     9      180.000000        0.010695         4
        25        20        21        41     9        0.000000       -0.002258         1
        25        20        21        41     9      180.000000       14.343765         2
        25        20        21        41     9        0.000000       -0.508483         3
        25        20        21        41     9      180.000000       -0.013634         4
        25        23        22        42     9        0.000000       -0.075241         1
        25        23        22        42     9      180.000000       14.593856         2
        25        23        22        42     9        0.000000       -0.542758         3
        25        23        22        42     9      180.000000        0.091031         4
        25        23        26        45     9        0.000000       -0.028508         1
        25        23        26        45     9      180.000000        0.011428         2
        25        23        26        45     9        0.000000        0.023627         3
        25        23        26        45     9      180.000000        0.007097         4
        25        23        26        46     9        0.000000       -0.028508         1
        25        23        26        46     9      180.000000        0.011428         2
        25        23        26        46     9        0.000000        0.023627         3
        25        23        26        46     9      180.000000        0.007097         4
        25        23        26        47     9        0.000000       -0.028508         1
        25        23        26        47     9      180.000000        0.011428         2
        25        23        26        47     9        0.000000        0.023627         3
        25        23        26        47     9      180.000000        0.007097         4
        26        23        22        42     9        0.000000       -0.201708         1
        26        23        22        42     9      180.000000       12.855735         2
        26        23        22        42     9        0.000000       -0.441457         3
        26        23        22        42     9      180.000000        0.258545         4
        26        23        25        44     9        0.000000       -0.158925         1
        26        23        25        44     9      180.000000       13.006735         2
        26        23        25        44     9        0.000000       -0.388108         3
        26        23        25        44     9      180.000000        0.254309         4
        27         1         2        28     9        0.000000       -0.000377         1
        27         1         2        28     9      180.000000        0.001484         2
        27         1         2        28     9        0.000000        0.332390         3
        27         1         2        28     9      180.000000       -0.036172         4
        27         1         2        29     9        0.000000       -0.000377         1
        27         1         2        29     9      180.000000        0.001484         2
        27         1         2        29     9        0.000000        0.332390         3
        27         1         2        29     9      180.000000       -0.036172         4
        27         1         3        30     9        0.000000       -0.060081         1
        27         1         3        30     9      180.000000       -0.001547         2
        27         1         3        30     9        0.000000        0.391228         3
        27         1         3        30     9      180.000000        0.044029         4
        27         1         3        31     9        0.000000       -0.060081         1
        27         1         3        31     9      180.000000       -0.001547         2
        27         1         3        31     9        0.000000        0.391228         3
        27         1         3        31     9      180.000000        0.044029         4
        27         1         4        32     9        0.000000        1.341127         1
        27         1         4        32     9      180.000000       -2.030948         2
        27         1         4        32     9        0.000000        0.819594         3
        27         1         4        32     9      180.000000        0.277401         4
        28         2         5        33     9        0.000000       -0.023669         1
        28         2         5        33     9      180.000000        0.008605         2
        28         2         5        33     9        0.000000        0.235196         3
        28         2         5        33     9      180.000000       -0.017680         4
        28         2         5        34     9        0.000000       -0.023669         1
        28         2         5        34     9      180.000000        0.008605         2
        28         2         5        34     9        0.000000        0.235196         3
        28         2         5        34     9      180.000000       -0.017680         4
        29         2         5        33     9        0.000000       -0.023669         1
        29         2         5        33     9      180.000000        0.008605         2
        29         2         5        33     9        0.000000        0.235196         3
        29         2         5        33     9      180.000000       -0.017680         4
        29         2         5        34     9        0.000000       -0.023669         1
        29         2         5        34     9      180.000000        0.008605         2
        29         2         5        34     9        0.000000        0.235196         3
        29         2         5        34     9      180.000000       -0.017680         4
        41        21        24        43     9        0.000000       -0.069966         1
        41        21        24        43     9      180.000000       11.863959         2
        41        21        24        43     9        0.000000       -0.623793         3
        41        21        24        43     9      180.000000        0.238938         4
        42        22        24        43     9        0.000000       -0.131992         1
        42        22        24        43     9      180.000000       11.354252         2
        42        22        24        43     9        0.000000       -0.576352         3
        42        22        24        43     9      180.000000        0.238264         4

[ dihedrals ] ; impropers
;       ai        aj        ak        al funct           phase               k        pn
        10         7        14        36     4      180.000000        1.187691         2
        10        14        36         7     4      180.000000        1.187691         2
        10        36         7        14     4      180.000000        1.187691         2
        12         6         7        13     4      180.000000       23.066309         2
        12         7        13         6     4      180.000000       23.066309         2
        12        13         6         7     4      180.000000       23.066309         2
        21        20        24        41     4      180.000000        3.243922         2
        21        24        41        20     4      180.000000        3.243922         2
        21        41        20        24     4      180.000000        3.243922         2
        22        23        24        42     4      180.000000        4.202663         2
        22        24        42        23     4      180.000000        4.202663         2
        22        42        23        24     4      180.000000        4.202663         2
        24        21        22        43     4      180.000000        3.461857         2
        24        22        43        21     4      180.000000        3.461857         2
        24        43        21        22     4      180.000000        3.461857         2
        25        20        23        44     4      180.000000        6.089445         2
        25        23        44        20     4      180.000000        6.089445         2
        25        44        20        23     4      180.000000        6.089445         2

[ pairs ]
;       ai        aj funct
         1        12     1
         1        33     1
         1        34     1
         2        12     1
         2        30     1
         2        31     1
         2        32     1
         3         7     1
         3        13     1
         3        28     1
         3        29     1
         3        32     1
         3        33     1
         3        34     1
         4         5     1
         4         6     1
         4        28     1
         4        29     1
         4        30     1
         4        31     1
         5         7     1
         5        13     1
         5        27     1
         5        30     1
         5        31     1
         6         8     1
         6        10     1
         6        27     1
         6        28     1
         6        29     1
         7        15     1
         7        18     1
         7        35     1
         7        37     1
         8        13     1
         8        14     1
         8        16     1
         8        36     1
         9        10     1
         9        12     1
         9        17     1
         9        18     1
         9        37     1
         9        38     1
        10        11     1
        10        13     1
        10        16     1
        10        17     1
        10        19     1
        11        12     1
        11        15     1
        11        35     1
        12        14     1
        12        30     1
        12        31     1
        12        33     1
        12        34     1
        12        36     1
        14        20     1
        14        35     1
        14        38     1
        14        39     1
        14        40     1
        15        19     1
        15        36     1
        16        19     1
        16        35     1
        17        20     1
        17        39     1
        17        40     1
        18        21     1
        18        25     1
        18        36     1
        18        38     1
        19        23     1
        19        24     1
        19        41     1
        19        44     1
        20        22     1
        20        26     1
        20        43     1
        21        23     1
        21        39     1
        21        40     1
        21        42     1
        21        44     1
        22        41     1
        22        44     1
        22        45     1
        22        46     1
        22        47     1
        23        43     1
        24        25     1
        24        26     1
        25        39     1
        25        40     1
        25        41     1
        25        42     1
        25        45     1
        25        46     1
        25        47     1
        26        42     1
        26        44     1
        27        28     1
        27        29     1
        27        30     1
        27        31     1
        27        32     1
        28        33     1
        28        34     1
        29        33     1
        29        34     1
        41        43     1
        42        43     1
