; ITP file created by ByteFF-ML, 2026-02-21 07:34:52.150616

[ atomtypes ]
;name           bonded.type        at.num        mass        charge   ptype           sigma         epsilon
 c0bf                                   6      0.0000       0.00000       A     3.31378e-01     4.12993e-01
 c1bf                                   6      0.0000       0.00000       A     3.31427e-01     4.13936e-01
 c2bf                                   6      0.0000       0.00000       A     3.31517e-01     4.12482e-01
 c3bf                                   6      0.0000       0.00000       A     3.31519e-01     4.12686e-01
 c4bf                                   6      0.0000       0.00000       A     3.31525e-01     4.12635e-01
 c5bf                                   6      0.0000       0.00000       A     3.31524e-01     4.11665e-01
 c6bf                                   6      0.0000       0.00000       A     3.31443e-01     4.10788e-01
 n7bf                                   7      0.0000       0.00000       A     3.38207e-01     3.91626e-01
 n8bf                                   7      0.0000       0.00000       A     3.20445e-01     8.58130e-01
 c9bf                                   6      0.0000       0.00000       A     3.39772e-01     4.51258e-01
 n10bf                                  7      0.0000       0.00000       A     3.27127e-01     4.92119e-01
 c11bf                                  6      0.0000       0.00000       A     3.39836e-01     4.51204e-01
 c12bf                                  6      0.0000       0.00000       A     3.31522e-01     4.13463e-01
 o13bf                                  8      0.0000       0.00000       A     3.04756e-01     6.10859e-01
 c14bf                                  6      0.0000       0.00000       A     3.39888e-01     4.51175e-01
 c15bf                                  6      0.0000       0.00000       A     3.39749e-01     4.49721e-01
 c16bf                                  6      0.0000       0.00000       A     3.39749e-01     4.49721e-01
 h17bf                                  1      0.0000       0.00000       A     2.62417e-01     6.67524e-02
 h18bf                                  1      0.0000       0.00000       A     2.62471e-01     6.70892e-02
 h19bf                                  1      0.0000       0.00000       A     2.62589e-01     6.73302e-02
 h20bf                                  1      0.0000       0.00000       A     1.10602e-01     4.12983e-02
 h21bf                                  1      0.0000       0.00000       A     2.60021e-01     8.78014e-02
 h22bf                                  1      0.0000       0.00000       A     2.60021e-01     8.78014e-02
 h23bf                                  1      0.0000       0.00000       A     1.10511e-01     4.11227e-02
 h24bf                                  1      0.0000       0.00000       A     2.41960e-01     8.71613e-02
 h25bf                                  1      0.0000       0.00000       A     2.41960e-01     8.71613e-02
 h26bf                                  1      0.0000       0.00000       A     2.41960e-01     8.71613e-02
 h27bf                                  1      0.0000       0.00000       A     2.59887e-01     8.80089e-02
 h28bf                                  1      0.0000       0.00000       A     2.59957e-01     8.76833e-02
 h29bf                                  1      0.0000       0.00000       A     2.59957e-01     8.76833e-02
 h30bf                                  1      0.0000       0.00000       A     2.59957e-01     8.76833e-02
 h31bf                                  1      0.0000       0.00000       A     2.59957e-01     8.76833e-02
 h32bf                                  1      0.0000       0.00000       A     2.59957e-01     8.76833e-02
 h33bf                                  1      0.0000       0.00000       A     2.59957e-01     8.76833e-02

[ moleculetype ]
;name             nrexcl
 14                    3

[ atoms ]
;       nr            type      resi   res      atom      cgnr      charge          mass ; qtot
         1            c0bf         1   UNL        c0         1    -0.19674       12.0110 ; qtot   -0.197
         2            c1bf         1   UNL        c1         2     0.01810       12.0110 ; qtot   -0.179
         3            c2bf         1   UNL        c2         3    -0.15154       12.0110 ; qtot   -0.330
         4            c3bf         1   UNL        c3         4    -0.03870       12.0110 ; qtot   -0.369
         5            c4bf         1   UNL        c4         5     0.00104       12.0110 ; qtot   -0.368
         6            c5bf         1   UNL        c5         6    -0.24200       12.0110 ; qtot   -0.610
         7            c6bf         1   UNL        c6         7     0.36890       12.0110 ; qtot   -0.241
         8            n7bf         1   UNL        n7         8    -0.51399       14.0070 ; qtot   -0.755
         9            n8bf         1   UNL        n8         9    -0.08088       14.0070 ; qtot   -0.836
        10            c9bf         1   UNL        c9        10    -0.08663       12.0110 ; qtot   -0.922
        11           n10bf         1   UNL       n10        11    -0.50498       14.0070 ; qtot   -1.427
        12           c11bf         1   UNL       c11        12     0.08379       12.0110 ; qtot   -1.344
        13           c12bf         1   UNL       c12        13     0.60434       12.0110 ; qtot   -0.739
        14           o13bf         1   UNL       o13        14    -0.60022       15.9990 ; qtot   -1.340
        15           c14bf         1   UNL       c14        15    -0.06117       12.0110 ; qtot   -1.401
        16           c15bf         1   UNL       c15        16    -0.09173       12.0110 ; qtot   -1.492
        17           c16bf         1   UNL       c16        17    -0.09173       12.0110 ; qtot   -1.584
        18           h17bf         1   UNL       h17        18     0.13618        1.0080 ; qtot   -1.448
        19           h18bf         1   UNL       h18        19     0.12872        1.0080 ; qtot   -1.319
        20           h19bf         1   UNL       h19        20     0.12755        1.0080 ; qtot   -1.192
        21           h20bf         1   UNL       h20        21     0.37536        1.0080 ; qtot   -0.816
        22           h21bf         1   UNL       h21        22     0.05383        1.0080 ; qtot   -0.762
        23           h22bf         1   UNL       h22        23     0.05383        1.0080 ; qtot   -0.709
        24           h23bf         1   UNL       h23        24     0.31254        1.0080 ; qtot   -0.396
        25           h24bf         1   UNL       h24        25     0.04497        1.0080 ; qtot   -0.351
        26           h25bf         1   UNL       h25        26     0.04497        1.0080 ; qtot   -0.306
        27           h26bf         1   UNL       h26        27     0.04497        1.0080 ; qtot   -0.261
        28           h27bf         1   UNL       h27        28     0.04881        1.0080 ; qtot   -0.212
        29           h28bf         1   UNL       h28        29     0.03540        1.0080 ; qtot   -0.177
        30           h29bf         1   UNL       h29        30     0.03540        1.0080 ; qtot   -0.142
        31           h30bf         1   UNL       h30        31     0.03540        1.0080 ; qtot   -0.106
        32           h31bf         1   UNL       h31        32     0.03540        1.0080 ; qtot   -0.071
        33           h32bf         1   UNL       h32        33     0.03540        1.0080 ; qtot   -0.035
        34           h33bf         1   UNL       h33        34     0.03541        1.0080 ; qtot    0.000

[ bonds ]
;       ai        aj funct               r               k
         1         2     1        0.139349   312185.569482
         1         4     1        0.142259   260495.523340
         1        13     1        0.150119   175785.266968
         2         6     1        0.140368   306114.274951
         2        18     1        0.108538   321487.104053
         3         4     1        0.138622   347050.005908
         3         5     1        0.140662   300106.465674
         3        19     1        0.108557   321190.184082
         4        20     1        0.108489   322025.043262
         5         6     1        0.141926   252380.800391
         5         9     1        0.136826   291093.704736
         6         7     1        0.143922   231180.734912
         7         8     1        0.132713   372429.117187
         7        10     1        0.149927   216691.643018
         8         9     1        0.136536   240424.683301
         9        21     1        0.100918   435224.818066
        10        15     1        0.154805   161936.301025
        10        22     1        0.109525   294697.961279
        10        23     1        0.109525   294697.961279
        11        12     1        0.145884   219533.361475
        11        13     1        0.137271   291155.172559
        11        24     1        0.101035   426422.585059
        12        25     1        0.109290   302707.599023
        12        26     1        0.109290   302707.599023
        12        27     1        0.109290   302707.599023
        13        14     1        0.123395   590117.754492
        15        16     1        0.153531   185102.736694
        15        17     1        0.153531   185102.736694
        15        28     1        0.109717   298456.461963
        16        29     1        0.109464   297766.985547
        16        30     1        0.109464   297766.985547
        16        31     1        0.109464   297766.985547
        17        32     1        0.109464   297766.960010
        17        33     1        0.109464   297766.960010
        17        34     1        0.109464   297766.960010

[ angles ]
;       ai        aj        ak funct           theta             cth
         1         2         6     1      118.837852      668.075105
         1         2        18     1      120.110962      403.804840
         1         4         3     1      122.084206      616.058886
         1         4        20     1      118.782700      417.101278
         1        13        11     1      116.330872      512.105773
         1        13        14     1      121.916847      607.137497
         2         1         4     1      120.154831      603.339108
         2         1        13     1      119.707260      509.798751
         2         6         5     1      119.695457      749.820733
         2         6         7     1      135.534332      419.434444
         3         4        20     1      119.275345      407.140114
         3         5         6     1      121.822495      604.943604
         3         5         9     1      132.585724      473.613369
         4         1        13     1      120.242409      578.872386
         4         3         5     1      117.071243      764.769519
         4         3        19     1      121.191063      439.898990
         5         3        19     1      121.901955      443.470706
         5         6         7     1      104.955177      481.953598
         5         9         8     1      112.374962      431.592886
         5         9        21     1      128.716812      383.056704
         6         2        18     1      121.179565      415.926316
         6         5         9     1      105.737099      167.360000
         6         7         8     1      110.495995      367.972317
         6         7        10     1      128.076218      444.009635
         7         8         9     1      106.547562      546.795606
         7        10        15     1      114.135521      560.029639
         7        10        22     1      108.747910      519.066711
         7        10        23     1      108.747910      519.066711
         8         7        10     1      121.398155      470.087716
         8         9        21     1      118.775635      479.619538
        10        15        16     1      111.108139      607.836256
        10        15        17     1      111.108139      607.836256
        10        15        28     1      106.915176      485.934099
        11        12        25     1      110.029335      493.640241
        11        12        26     1      110.029335      493.640241
        11        12        27     1      110.029335      493.640241
        11        13        14     1      121.648361      574.362405
        12        11        13     1      120.285622      524.469820
        12        11        24     1      117.871605      428.240885
        13        11        24     1      117.856796      419.313590
        15        10        22     1      109.044418      483.317822
        15        10        23     1      109.044418      483.317822
        15        16        29     1      111.083694      510.982939
        15        16        30     1      111.083694      510.982939
        15        16        31     1      111.083694      510.982939
        15        17        32     1      111.083694      510.982939
        15        17        33     1      111.083694      510.982939
        15        17        34     1      111.083694      510.982939
        16        15        17     1      110.927597      641.360927
        16        15        28     1      108.087440      506.181579
        17        15        28     1      108.087440      506.181579
        22        10        23     1      106.927231      359.862816
        25        12        26     1      108.965477      342.583387
        25        12        27     1      108.965477      342.583387
        26        12        27     1      108.965477      342.583387
        29        16        30     1      107.843506      361.847752
        29        16        31     1      107.843506      361.847752
        30        16        31     1      107.843506      361.847752
        32        17        33     1      107.843506      361.847752
        32        17        34     1      107.843506      361.847752
        33        17        34     1      107.843506      361.847720

[ dihedrals ] ; propers for gromacs 4.5 or higher, use funct 9
;       ai        aj        ak        al funct           phase               k        pn
         1         2         6         5     9        0.000000       -0.066192         1
         1         2         6         5     9      180.000000       19.658918         2
         1         2         6         5     9        0.000000       -2.259242         3
         1         2         6         5     9      180.000000       -0.496178         4
         1         2         6         7     9        0.000000       -0.334528         1
         1         2         6         7     9      180.000000       13.702051         2
         1         2         6         7     9        0.000000       -0.964261         3
         1         2         6         7     9      180.000000       -0.188927         4
         1         4         3         5     9        0.000000       -0.109570         1
         1         4         3         5     9      180.000000       22.103106         2
         1         4         3         5     9        0.000000       -1.536000         3
         1         4         3         5     9      180.000000       -0.679546         4
         1         4         3        19     9        0.000000        0.027742         1
         1         4         3        19     9      180.000000       14.732066         2
         1         4         3        19     9        0.000000       -0.475106         3
         1         4         3        19     9      180.000000        0.121735         4
         1        13        11        12     9        0.000000        2.438957         1
         1        13        11        12     9      180.000000       10.071367         2
         1        13        11        12     9        0.000000        1.322512         3
         1        13        11        12     9      180.000000       -0.187267         4
         1        13        11        24     9        0.000000       -0.318162         1
         1        13        11        24     9      180.000000        9.608922         2
         1        13        11        24     9        0.000000        0.517511         3
         1        13        11        24     9      180.000000        0.452021         4
         2         1         4         3     9        0.000000        0.070058         1
         2         1         4         3     9      180.000000       16.856733         2
         2         1         4         3     9        0.000000       -1.259690         3
         2         1         4         3     9      180.000000       -0.330278         4
         2         1         4        20     9        0.000000        0.042492         1
         2         1         4        20     9      180.000000       12.782359         2
         2         1         4        20     9        0.000000       -0.657883         3
         2         1         4        20     9      180.000000        0.085905         4
         2         1        13        11     9        0.000000       -0.467051         1
         2         1        13        11     9      180.000000        2.847687         2
         2         1        13        11     9        0.000000        0.271076         3
         2         1        13        11     9      180.000000       -0.445504         4
         2         1        13        14     9        0.000000        0.349231         1
         2         1        13        14     9      180.000000        3.602767         2
         2         1        13        14     9        0.000000        0.032834         3
         2         1        13        14     9      180.000000        0.005558         4
         2         6         5         3     9        0.000000       -0.301816         1
         2         6         5         3     9      180.000000       10.334216         2
         2         6         5         3     9        0.000000       -1.424704         3
         2         6         5         3     9      180.000000       -0.062158         4
         2         6         5         9     9        0.000000        0.475609         1
         2         6         5         9     9      180.000000        8.694079         2
         2         6         5         9     9        0.000000       -1.753250         3
         2         6         5         9     9      180.000000        0.131773         4
         2         6         7         8     9        0.000000       -0.443040         1
         2         6         7         8     9      180.000000        3.997356         2
         2         6         7         8     9        0.000000       -0.830477         3
         2         6         7         8     9      180.000000        0.002313         4
         2         6         7        10     9        0.000000       -0.359932         1
         2         6         7        10     9      180.000000        4.741055         2
         2         6         7        10     9        0.000000        0.144399         3
         2         6         7        10     9      180.000000        0.071000         4
         3         4         1        13     9        0.000000        0.172686         1
         3         4         1        13     9      180.000000       13.233951         2
         3         4         1        13     9        0.000000       -0.069259         3
         3         4         1        13     9      180.000000       -0.292980         4
         3         5         6         7     9        0.000000       -0.105859         1
         3         5         6         7     9      180.000000       10.942843         2
         3         5         6         7     9        0.000000       -2.366489         3
         3         5         6         7     9      180.000000        0.007153         4
         3         5         9         8     9        0.000000        1.440462         1
         3         5         9         8     9      180.000000        5.477587         2
         3         5         9         8     9        0.000000        0.450503         3
         3         5         9         8     9      180.000000       -0.051990         4
         3         5         9        21     9        0.000000       -0.305954         1
         3         5         9        21     9      180.000000        1.491037         2
         3         5         9        21     9        0.000000        0.063855         3
         3         5         9        21     9      180.000000       -0.117474         4
         4         1         2         6     9        0.000000       -0.095599         1
         4         1         2         6     9      180.000000       20.705404         2
         4         1         2         6     9        0.000000       -1.602794         3
         4         1         2         6     9      180.000000       -0.611475         4
         4         1         2        18     9        0.000000        0.087997         1
         4         1         2        18     9      180.000000       14.761503         2
         4         1         2        18     9        0.000000       -0.472657         3
         4         1         2        18     9      180.000000       -0.010624         4
         4         1        13        11     9        0.000000        0.172034         1
         4         1        13        11     9      180.000000        3.050326         2
         4         1        13        11     9        0.000000        0.236605         3
         4         1        13        11     9      180.000000       -0.405162         4
         4         1        13        14     9        0.000000       -0.616433         1
         4         1        13        14     9      180.000000        3.769198         2
         4         1        13        14     9        0.000000        0.065461         3
         4         1        13        14     9      180.000000        0.014325         4
         4         3         5         6     9        0.000000       -0.097963         1
         4         3         5         6     9      180.000000       16.720536         2
         4         3         5         6     9        0.000000       -1.862091         3
         4         3         5         6     9      180.000000       -0.310738         4
         4         3         5         9     9        0.000000        0.265374         1
         4         3         5         9     9      180.000000       13.384463         2
         4         3         5         9     9        0.000000       -0.021915         3
         4         3         5         9     9      180.000000       -0.096727         4
         5         3         4        20     9        0.000000        0.111100         1
         5         3         4        20     9      180.000000       17.262318         2
         5         3         4        20     9        0.000000       -0.516722         3
         5         3         4        20     9      180.000000       -0.141554         4
         5         6         2        18     9        0.000000        0.279466         1
         5         6         2        18     9      180.000000       14.372564         2
         5         6         2        18     9        0.000000       -0.296905         3
         5         6         2        18     9      180.000000       -0.227561         4
         5         6         7         8     9        0.000000       -0.294513         1
         5         6         7         8     9      180.000000       30.710816         2
         5         6         7         8     9        0.000000       -9.531040         3
         5         6         7         8     9      180.000000       -0.179935         4
         5         6         7        10     9        0.000000        1.138702         1
         5         6         7        10     9      180.000000       14.569892         2
         5         6         7        10     9        0.000000        0.290833         3
         5         6         7        10     9      180.000000       -0.566133         4
         5         9         8         7     9        0.000000       -0.630923         1
         5         9         8         7     9      180.000000       16.507326         2
         5         9         8         7     9        0.000000       -2.293648         3
         5         9         8         7     9      180.000000       -1.136092         4
         6         2         1        13     9        0.000000        0.101910         1
         6         2         1        13     9      180.000000       17.067442         2
         6         2         1        13     9        0.000000       -0.161262         3
         6         2         1        13     9      180.000000       -0.665792         4
         6         5         3        19     9        0.000000        0.153077         1
         6         5         3        19     9      180.000000       11.296366         2
         6         5         3        19     9        0.000000       -0.257830         3
         6         5         3        19     9      180.000000       -0.010936         4
         6         5         9         8     9        0.000000        0.380268         1
         6         5         9         8     9      180.000000       23.986436         2
         6         5         9         8     9        0.000000       -4.895770         3
         6         5         9         8     9      180.000000       -1.015175         4
         6         5         9        21     9        0.000000        0.242703         1
         6         5         9        21     9      180.000000        1.508524         2
         6         5         9        21     9        0.000000        0.485288         3
         6         5         9        21     9      180.000000        0.049851         4
         6         7         8         9     9        0.000000       -0.235708         1
         6         7         8         9     9      180.000000       41.516170         2
         6         7         8         9     9        0.000000       -4.557057         3
         6         7         8         9     9      180.000000       -0.103579         4
         6         7        10        15     9        0.000000        0.215755         1
         6         7        10        15     9      180.000000       -0.027945         2
         6         7        10        15     9        0.000000        0.396810         3
         6         7        10        15     9      180.000000       -0.006067         4
         6         7        10        22     9        0.000000       -0.017736         1
         6         7        10        22     9      180.000000        0.028416         2
         6         7        10        22     9        0.000000        0.506413         3
         6         7        10        22     9      180.000000        0.029300         4
         6         7        10        23     9        0.000000       -0.017736         1
         6         7        10        23     9      180.000000        0.028416         2
         6         7        10        23     9        0.000000        0.506413         3
         6         7        10        23     9      180.000000        0.029300         4
         7         6         2        18     9        0.000000       -0.178656         1
         7         6         2        18     9      180.000000        9.630247         2
         7         6         2        18     9        0.000000       -0.069813         3
         7         6         2        18     9      180.000000        0.051757         4
         7         6         5         9     9        0.000000        0.256059         1
         7         6         5         9     9      180.000000       16.882705         2
         7         6         5         9     9        0.000000       -6.144597         3
         7         6         5         9     9      180.000000       -0.197156         4
         7         8         9        21     9        0.000000        1.849666         1
         7         8         9        21     9      180.000000        2.676427         2
         7         8         9        21     9        0.000000        0.368439         3
         7         8         9        21     9      180.000000        0.064719         4
         7        10        15        16     9        0.000000       -0.047907         1
         7        10        15        16     9      180.000000       -0.051701         2
         7        10        15        16     9        0.000000        0.640897         3
         7        10        15        16     9      180.000000        0.040908         4
         7        10        15        17     9        0.000000       -0.047907         1
         7        10        15        17     9      180.000000       -0.051701         2
         7        10        15        17     9        0.000000        0.640897         3
         7        10        15        17     9      180.000000        0.040908         4
         7        10        15        28     9        0.000000       -0.060018         1
         7        10        15        28     9      180.000000       -0.034988         2
         7        10        15        28     9        0.000000        0.614585         3
         7        10        15        28     9      180.000000       -0.003034         4
         8         7        10        15     9        0.000000       -1.214225         1
         8         7        10        15     9      180.000000        0.440837         2
         8         7        10        15     9        0.000000       -0.074210         3
         8         7        10        15     9      180.000000        0.033069         4
         8         7        10        22     9        0.000000        0.316111         1
         8         7        10        22     9      180.000000        0.053550         2
         8         7        10        22     9        0.000000       -0.194346         3
         8         7        10        22     9      180.000000        0.047975         4
         8         7        10        23     9        0.000000        0.316111         1
         8         7        10        23     9      180.000000        0.053550         2
         8         7        10        23     9        0.000000       -0.194346         3
         8         7        10        23     9      180.000000        0.047975         4
         9         5         3        19     9        0.000000       -0.147837         1
         9         5         3        19     9      180.000000        9.663819         2
         9         5         3        19     9        0.000000       -0.092083         3
         9         5         3        19     9      180.000000        0.053965         4
         9         8         7        10     9        0.000000        0.415660         1
         9         8         7        10     9      180.000000       32.242781         2
         9         8         7        10     9        0.000000        0.991103         3
         9         8         7        10     9      180.000000       -0.714303         4
        10        15        16        29     9        0.000000       -0.052436         1
        10        15        16        29     9      180.000000        0.021461         2
        10        15        16        29     9        0.000000        0.465523         3
        10        15        16        29     9      180.000000        0.019773         4
        10        15        16        30     9        0.000000       -0.052436         1
        10        15        16        30     9      180.000000        0.021461         2
        10        15        16        30     9        0.000000        0.465523         3
        10        15        16        30     9      180.000000        0.019773         4
        10        15        16        31     9        0.000000       -0.052436         1
        10        15        16        31     9      180.000000        0.021461         2
        10        15        16        31     9        0.000000        0.465523         3
        10        15        16        31     9      180.000000        0.019773         4
        10        15        17        32     9        0.000000       -0.052436         1
        10        15        17        32     9      180.000000        0.021461         2
        10        15        17        32     9        0.000000        0.465523         3
        10        15        17        32     9      180.000000        0.019773         4
        10        15        17        33     9        0.000000       -0.052436         1
        10        15        17        33     9      180.000000        0.021461         2
        10        15        17        33     9        0.000000        0.465523         3
        10        15        17        33     9      180.000000        0.019773         4
        10        15        17        34     9        0.000000       -0.052436         1
        10        15        17        34     9      180.000000        0.021461         2
        10        15        17        34     9        0.000000        0.465523         3
        10        15        17        34     9      180.000000        0.019773         4
        12        11        13        14     9        0.000000       -3.020102         1
        12        11        13        14     9      180.000000        8.882419         2
        12        11        13        14     9        0.000000       -0.102929         3
        12        11        13        14     9      180.000000       -0.352841         4
        13         1         2        18     9        0.000000        0.138982         1
        13         1         2        18     9      180.000000       13.116614         2
        13         1         2        18     9        0.000000       -0.169213         3
        13         1         2        18     9      180.000000        0.052623         4
        13         1         4        20     9        0.000000        0.154988         1
        13         1         4        20     9      180.000000       12.143465         2
        13         1         4        20     9        0.000000       -0.227162         3
        13         1         4        20     9      180.000000        0.016836         4
        13        11        12        25     9        0.000000       -0.014510         1
        13        11        12        25     9      180.000000        0.029106         2
        13        11        12        25     9        0.000000        0.106987         3
        13        11        12        25     9      180.000000        0.015127         4
        13        11        12        26     9        0.000000       -0.014510         1
        13        11        12        26     9      180.000000        0.029106         2
        13        11        12        26     9        0.000000        0.106987         3
        13        11        12        26     9      180.000000        0.015127         4
        13        11        12        27     9        0.000000       -0.014512         1
        13        11        12        27     9      180.000000        0.029105         2
        13        11        12        27     9        0.000000        0.106987         3
        13        11        12        27     9      180.000000        0.015127         4
        14        13        11        24     9        0.000000        0.063890         1
        14        13        11        24     9      180.000000        9.973476         2
        14        13        11        24     9        0.000000        0.345190         3
        14        13        11        24     9      180.000000        0.057674         4
        16        15        10        22     9        0.000000       -0.126617         1
        16        15        10        22     9      180.000000        0.011974         2
        16        15        10        22     9        0.000000        0.628499         3
        16        15        10        22     9      180.000000        0.048746         4
        16        15        10        23     9        0.000000       -0.126617         1
        16        15        10        23     9      180.000000        0.011974         2
        16        15        10        23     9        0.000000        0.628499         3
        16        15        10        23     9      180.000000        0.048746         4
        16        15        17        32     9        0.000000       -0.073709         1
        16        15        17        32     9      180.000000        0.009451         2
        16        15        17        32     9        0.000000        0.543256         3
        16        15        17        32     9      180.000000        0.038999         4
        16        15        17        33     9        0.000000       -0.073709         1
        16        15        17        33     9      180.000000        0.009451         2
        16        15        17        33     9        0.000000        0.543256         3
        16        15        17        33     9      180.000000        0.038999         4
        16        15        17        34     9        0.000000       -0.073709         1
        16        15        17        34     9      180.000000        0.009451         2
        16        15        17        34     9        0.000000        0.543256         3
        16        15        17        34     9      180.000000        0.038999         4
        17        15        10        22     9        0.000000       -0.126617         1
        17        15        10        22     9      180.000000        0.011974         2
        17        15        10        22     9        0.000000        0.628499         3
        17        15        10        22     9      180.000000        0.048746         4
        17        15        10        23     9        0.000000       -0.126617         1
        17        15        10        23     9      180.000000        0.011974         2
        17        15        10        23     9        0.000000        0.628499         3
        17        15        10        23     9      180.000000        0.048746         4
        17        15        16        29     9        0.000000       -0.073709         1
        17        15        16        29     9      180.000000        0.009451         2
        17        15        16        29     9        0.000000        0.543256         3
        17        15        16        29     9      180.000000        0.038999         4
        17        15        16        30     9        0.000000       -0.073709         1
        17        15        16        30     9      180.000000        0.009451         2
        17        15        16        30     9        0.000000        0.543256         3
        17        15        16        30     9      180.000000        0.038999         4
        17        15        16        31     9        0.000000       -0.073709         1
        17        15        16        31     9      180.000000        0.009451         2
        17        15        16        31     9        0.000000        0.543256         3
        17        15        16        31     9      180.000000        0.038999         4
        19         3         4        20     9        0.000000       -0.052824         1
        19         3         4        20     9      180.000000       12.555027         2
        19         3         4        20     9        0.000000       -0.658769         3
        19         3         4        20     9      180.000000        0.295185         4
        22        10        15        28     9        0.000000        0.272315         1
        22        10        15        28     9      180.000000        0.060695         2
        22        10        15        28     9        0.000000        0.639962         3
        22        10        15        28     9      180.000000       -0.077628         4
        23        10        15        28     9        0.000000        0.272315         1
        23        10        15        28     9      180.000000        0.060695         2
        23        10        15        28     9        0.000000        0.639962         3
        23        10        15        28     9      180.000000       -0.077628         4
        24        11        12        25     9        0.000000       -0.030955         1
        24        11        12        25     9      180.000000        0.024930         2
        24        11        12        25     9        0.000000        0.474233         3
        24        11        12        25     9      180.000000       -0.000107         4
        24        11        12        26     9        0.000000       -0.030955         1
        24        11        12        26     9      180.000000        0.024930         2
        24        11        12        26     9        0.000000        0.474233         3
        24        11        12        26     9      180.000000       -0.000107         4
        24        11        12        27     9        0.000000       -0.030955         1
        24        11        12        27     9      180.000000        0.024929         2
        24        11        12        27     9        0.000000        0.474233         3
        24        11        12        27     9      180.000000       -0.000106         4
        28        15        16        29     9        0.000000        0.065753         1
        28        15        16        29     9      180.000000        0.036616         2
        28        15        16        29     9        0.000000        0.577830         3
        28        15        16        29     9      180.000000       -0.026935         4
        28        15        16        30     9        0.000000        0.065753         1
        28        15        16        30     9      180.000000        0.036616         2
        28        15        16        30     9        0.000000        0.577830         3
        28        15        16        30     9      180.000000       -0.026935         4
        28        15        16        31     9        0.000000        0.065753         1
        28        15        16        31     9      180.000000        0.036616         2
        28        15        16        31     9        0.000000        0.577830         3
        28        15        16        31     9      180.000000       -0.026935         4
        28        15        17        32     9        0.000000        0.065753         1
        28        15        17        32     9      180.000000        0.036616         2
        28        15        17        32     9        0.000000        0.577830         3
        28        15        17        32     9      180.000000       -0.026935         4
        28        15        17        33     9        0.000000        0.065753         1
        28        15        17        33     9      180.000000        0.036616         2
        28        15        17        33     9        0.000000        0.577830         3
        28        15        17        33     9      180.000000       -0.026935         4
        28        15        17        34     9        0.000000        0.065753         1
        28        15        17        34     9      180.000000        0.036616         2
        28        15        17        34     9        0.000000        0.577830         3
        28        15        17        34     9      180.000000       -0.026935         4

[ dihedrals ] ; impropers
;       ai        aj        ak        al funct           phase               k        pn
        13         1        11        14     4      180.000000       27.893333         2
        13        11        14         1     4      180.000000       27.893333         2
        13        14         1        11     4      180.000000       27.893333         2

[ pairs ]
;       ai        aj funct
         1         5     1
         1         7     1
         1        12     1
         1        19     1
         1        24     1
         2         3     1
         2         8     1
         2         9     1
         2        10     1
         2        11     1
         2        14     1
         2        20     1
         3         7     1
         3         8     1
         3        13     1
         3        21     1
         4         6     1
         4         9     1
         4        11     1
         4        14     1
         4        18     1
         5        10     1
         5        18     1
         5        20     1
         6        13     1
         6        15     1
         6        19     1
         6        21     1
         6        22     1
         6        23     1
         7        16     1
         7        17     1
         7        18     1
         7        21     1
         7        28     1
         8        15     1
         8        22     1
         8        23     1
         9        10     1
         9        19     1
        10        29     1
        10        30     1
        10        31     1
        10        32     1
        10        33     1
        10        34     1
        12        14     1
        13        18     1
        13        20     1
        13        25     1
        13        26     1
        13        27     1
        14        24     1
        16        22     1
        16        23     1
        16        32     1
        16        33     1
        16        34     1
        17        22     1
        17        23     1
        17        29     1
        17        30     1
        17        31     1
        19        20     1
        22        28     1
        23        28     1
        24        25     1
        24        26     1
        24        27     1
        28        29     1
        28        30     1
        28        31     1
        28        32     1
        28        33     1
        28        34     1
