; ITP file created by ByteFF-ML, 2026-02-21 07:34:15.152556

[ atomtypes ]
;name           bonded.type        at.num        mass        charge   ptype           sigma         epsilon
 c0bf                                   6      0.0000       0.00000       A     3.31378e-01     4.12993e-01
 c1bf                                   6      0.0000       0.00000       A     3.31393e-01     4.13866e-01
 c2bf                                   6      0.0000       0.00000       A     3.31517e-01     4.12482e-01
 c3bf                                   6      0.0000       0.00000       A     3.31519e-01     4.12686e-01
 c4bf                                   6      0.0000       0.00000       A     3.31529e-01     4.12453e-01
 c5bf                                   6      0.0000       0.00000       A     3.31500e-01     4.11950e-01
 c6bf                                   6      0.0000       0.00000       A     3.31450e-01     4.11740e-01
 n7bf                                   7      0.0000       0.00000       A     3.38151e-01     3.91342e-01
 n8bf                                   7      0.0000       0.00000       A     3.20440e-01     8.58154e-01
 c9bf                                   6      0.0000       0.00000       A     3.39888e-01     4.51416e-01
 n10bf                                  7      0.0000       0.00000       A     3.27127e-01     4.92119e-01
 c11bf                                  6      0.0000       0.00000       A     3.39836e-01     4.51204e-01
 c12bf                                  6      0.0000       0.00000       A     3.31522e-01     4.13463e-01
 o13bf                                  8      0.0000       0.00000       A     3.04756e-01     6.10859e-01
 c14bf                                  6      0.0000       0.00000       A     3.31537e-01     4.12684e-01
 c15bf                                  6      0.0000       0.00000       A     3.31460e-01     4.12803e-01
 c16bf                                  6      0.0000       0.00000       A     3.31509e-01     4.13170e-01
 c17bf                                  6      0.0000       0.00000       A     3.31505e-01     4.13203e-01
 c18bf                                  6      0.0000       0.00000       A     3.31504e-01     4.13503e-01
 c19bf                                  6      0.0000       0.00000       A     3.31478e-01     4.13010e-01
 c20bf                                  6      0.0000       0.00000       A     3.39809e-01     4.50666e-01
 h21bf                                  1      0.0000       0.00000       A     2.62417e-01     6.67524e-02
 h22bf                                  1      0.0000       0.00000       A     2.62471e-01     6.70892e-02
 h23bf                                  1      0.0000       0.00000       A     2.62589e-01     6.73302e-02
 h24bf                                  1      0.0000       0.00000       A     1.10602e-01     4.12983e-02
 h25bf                                  1      0.0000       0.00000       A     2.60090e-01     8.80823e-02
 h26bf                                  1      0.0000       0.00000       A     2.60090e-01     8.80823e-02
 h27bf                                  1      0.0000       0.00000       A     1.10511e-01     4.11227e-02
 h28bf                                  1      0.0000       0.00000       A     2.41960e-01     8.71613e-02
 h29bf                                  1      0.0000       0.00000       A     2.41960e-01     8.71613e-02
 h30bf                                  1      0.0000       0.00000       A     2.41960e-01     8.71613e-02
 h31bf                                  1      0.0000       0.00000       A     2.62417e-01     6.78393e-02
 h32bf                                  1      0.0000       0.00000       A     2.62498e-01     6.72903e-02
 h33bf                                  1      0.0000       0.00000       A     2.62480e-01     6.72983e-02
 h34bf                                  1      0.0000       0.00000       A     2.62500e-01     6.77228e-02
 h35bf                                  1      0.0000       0.00000       A     2.59993e-01     8.72348e-02
 h36bf                                  1      0.0000       0.00000       A     2.59993e-01     8.72348e-02
 h37bf                                  1      0.0000       0.00000       A     2.59993e-01     8.72348e-02

[ moleculetype ]
;name             nrexcl
 16_flipped            3

[ atoms ]
;       nr            type      resi   res      atom      cgnr      charge          mass ; qtot
         1            c0bf         1   UNL        c0         1    -0.19580       12.0110 ; qtot   -0.196
         2            c1bf         1   UNL        c1         2     0.01759       12.0110 ; qtot   -0.178
         3            c2bf         1   UNL        c2         3    -0.14960       12.0110 ; qtot   -0.328
         4            c3bf         1   UNL        c3         4    -0.03870       12.0110 ; qtot   -0.367
         5            c4bf         1   UNL        c4         5    -0.00053       12.0110 ; qtot   -0.367
         6            c5bf         1   UNL        c5         6    -0.23501       12.0110 ; qtot   -0.602
         7            c6bf         1   UNL        c6         7     0.35944       12.0110 ; qtot   -0.243
         8            n7bf         1   UNL        n7         8    -0.50659       14.0070 ; qtot   -0.749
         9            n8bf         1   UNL        n8         9    -0.08032       14.0070 ; qtot   -0.830
        10            c9bf         1   UNL        c9        10    -0.04030       12.0110 ; qtot   -0.870
        11           n10bf         1   UNL       n10        11    -0.50498       14.0070 ; qtot   -1.375
        12           c11bf         1   UNL       c11        12     0.08379       12.0110 ; qtot   -1.291
        13           c12bf         1   UNL       c12        13     0.60434       12.0110 ; qtot   -0.687
        14           o13bf         1   UNL       o13        14    -0.60022       15.9990 ; qtot   -1.287
        15           c14bf         1   UNL       c14        15    -0.08899       12.0110 ; qtot   -1.376
        16           c15bf         1   UNL       c15        16    -0.10284       12.0110 ; qtot   -1.479
        17           c16bf         1   UNL       c16        17    -0.08108       12.0110 ; qtot   -1.560
        18           c17bf         1   UNL       c17        18    -0.10440       12.0110 ; qtot   -1.664
        19           c18bf         1   UNL       c18        19    -0.11166       12.0110 ; qtot   -1.776
        20           c19bf         1   UNL       c19        20    -0.10722       12.0110 ; qtot   -1.883
        21           c20bf         1   UNL       c20        21    -0.04814       12.0110 ; qtot   -1.931
        22           h21bf         1   UNL       h21        22     0.13756        1.0080 ; qtot   -1.794
        23           h22bf         1   UNL       h22        23     0.12872        1.0080 ; qtot   -1.665
        24           h23bf         1   UNL       h23        24     0.12755        1.0080 ; qtot   -1.537
        25           h24bf         1   UNL       h24        25     0.37621        1.0080 ; qtot   -1.161
        26           h25bf         1   UNL       h25        26     0.06256        1.0080 ; qtot   -1.099
        27           h26bf         1   UNL       h26        27     0.06256        1.0080 ; qtot   -1.036
        28           h27bf         1   UNL       h27        28     0.31254        1.0080 ; qtot   -0.724
        29           h28bf         1   UNL       h28        29     0.04497        1.0080 ; qtot   -0.679
        30           h29bf         1   UNL       h29        30     0.04497        1.0080 ; qtot   -0.634
        31           h30bf         1   UNL       h30        31     0.04497        1.0080 ; qtot   -0.589
        32           h31bf         1   UNL       h31        32     0.11542        1.0080 ; qtot   -0.473
        33           h32bf         1   UNL       h32        33     0.11206        1.0080 ; qtot   -0.361
        34           h33bf         1   UNL       h33        34     0.11442        1.0080 ; qtot   -0.247
        35           h34bf         1   UNL       h34        35     0.11785        1.0080 ; qtot   -0.129
        36           h35bf         1   UNL       h35        36     0.04296        1.0080 ; qtot   -0.086
        37           h36bf         1   UNL       h36        37     0.04296        1.0080 ; qtot   -0.043
        38           h37bf         1   UNL       h37        38     0.04294        1.0080 ; qtot   -0.000

[ bonds ]
;       ai        aj funct               r               k
         1         2     1        0.139322   312548.937012
         1         4     1        0.142259   260495.523340
         1        13     1        0.150119   175785.266968
         2         6     1        0.140342   306472.126465
         2        22     1        0.108524   322040.365527
         3         4     1        0.138622   347050.005908
         3         5     1        0.140635   300350.677051
         3        23     1        0.108557   321190.184082
         4        24     1        0.108489   322025.043262
         5         6     1        0.141869   251815.842920
         5         9     1        0.136842   290575.199268
         6         7     1        0.143787   232823.613770
         7         8     1        0.132649   371345.986230
         7        10     1        0.150272   213688.887549
         8         9     1        0.136401   241851.313916
         9        25     1        0.100927   434980.632227
        10        15     1        0.151976   190714.886768
        10        26     1        0.109487   294981.193359
        10        27     1        0.109487   294981.193359
        11        12     1        0.145884   219533.387012
        11        13     1        0.137271   291155.172559
        11        28     1        0.101035   426422.585059
        12        29     1        0.109290   302707.599023
        12        30     1        0.109290   302707.599023
        12        31     1        0.109290   302707.599023
        13        14     1        0.123395   590117.754492
        15        16     1        0.140100   292208.144189
        15        20     1        0.140127   292931.431738
        16        17     1        0.140240   293172.502051
        16        32     1        0.108796   312332.995215
        17        18     1        0.140305   290280.577637
        17        21     1        0.151164   205697.534375
        18        19     1        0.139838   307722.934082
        18        33     1        0.108737   315158.906201
        19        20     1        0.139779   309667.227441
        19        34     1        0.108665   318356.484277
        20        35     1        0.108686   316467.300000
        21        36     1        0.109461   298772.790137
        21        37     1        0.109461   298772.790137
        21        38     1        0.109461   298772.790137

[ angles ]
;       ai        aj        ak funct           theta             cth
         1         2         6     1      118.819092      666.476035
         1         2        22     1      120.117737      400.157630
         1         4         3     1      122.084206      616.058886
         1         4        24     1      118.782700      417.101246
         1        13        11     1      116.330872      512.105773
         1        13        14     1      121.916847      607.137497
         2         1         4     1      120.154564      610.309972
         2         1        13     1      119.699440      511.255898
         2         6         5     1      119.751610      753.226554
         2         6         7     1      135.532104      435.049493
         3         4        24     1      119.275345      407.140082
         3         5         6     1      121.826454      612.816631
         3         5         9     1      132.490311      480.939423
         4         1        13     1      120.242409      578.872386
         4         3         5     1      117.047997      762.793649
         4         3        23     1      121.191063      439.898990
         5         3        23     1      121.912209      436.763288
         5         6         7     1      104.808472      488.138877
         5         9         8     1      112.338623      425.015069
         5         9        25     1      128.734390      380.960906
         6         2        22     1      121.013916      408.365225
         6         5         9     1      105.797852      167.360000
         6         7         8     1      110.702805      353.792805
         6         7        10     1      127.832008      447.033995
         7         8         9     1      106.500710      544.611736
         7        10        15     1      113.242409      518.675131
         7        10        26     1      108.505295      513.969567
         7        10        27     1      108.505295      513.969567
         8         7        10     1      121.626099      449.516904
         8         9        25     1      118.789017      482.596877
        10        15        16     1      120.480385      470.178628
        10        15        20     1      120.663452      494.208122
        11        12        29     1      110.029320      493.640241
        11        12        30     1      110.029320      493.640241
        11        12        31     1      110.029320      493.640241
        11        13        14     1      121.648376      574.362405
        12        11        13     1      120.285622      524.469820
        12        11        28     1      117.871620      428.240885
        13        11        28     1      117.856812      419.313622
        15        10        26     1      109.708969      491.678576
        15        10        27     1      109.708969      491.678576
        15        16        17     1      121.683884      698.516936
        15        16        32     1      119.097740      392.966092
        15        20        19     1      120.141457      702.731708
        15        20        35     1      119.666458      390.469234
        16        15        20     1      118.936722      718.279211
        16        17        18     1      118.358727      719.361601
        16        17        21     1      120.699196      470.163210
        17        16        32     1      119.327309      397.556164
        17        18        19     1      120.602097      700.655222
        17        18        33     1      119.620178      402.538901
        17        21        36     1      111.249222      480.527701
        17        21        37     1      111.249222      480.527701
        17        21        38     1      111.249222      480.527701
        18        17        21     1      120.957298      452.835515
        18        19        20     1      120.290588      704.723347
        18        19        34     1      119.866966      422.410252
        19        18        33     1      119.821182      433.551518
        19        20        35     1      120.192947      432.082017
        20        19        34     1      119.873856      429.183491
        26        10        27     1      106.972717      364.166362
        29        12        30     1      108.965492      342.583387
        29        12        31     1      108.965492      342.583387
        30        12        31     1      108.965492      342.583387
        36        21        37     1      107.629349      360.727439
        36        21        38     1      107.629349      360.727439
        37        21        38     1      107.629349      360.727439

[ dihedrals ] ; propers for gromacs 4.5 or higher, use funct 9
;       ai        aj        ak        al funct           phase               k        pn
         1         2         6         5     9        0.000000       -0.090667         1
         1         2         6         5     9      180.000000       19.620490         2
         1         2         6         5     9        0.000000       -2.393207         3
         1         2         6         5     9      180.000000       -0.485549         4
         1         2         6         7     9        0.000000       -0.378799         1
         1         2         6         7     9      180.000000       13.967524         2
         1         2         6         7     9        0.000000       -1.030488         3
         1         2         6         7     9      180.000000       -0.250572         4
         1         4         3         5     9        0.000000       -0.096886         1
         1         4         3         5     9      180.000000       22.112872         2
         1         4         3         5     9        0.000000       -1.551136         3
         1         4         3         5     9      180.000000       -0.670671         4
         1         4         3        23     9        0.000000        0.027742         1
         1         4         3        23     9      180.000000       14.732066         2
         1         4         3        23     9        0.000000       -0.475106         3
         1         4         3        23     9      180.000000        0.121735         4
         1        13        11        12     9        0.000000        2.438957         1
         1        13        11        12     9      180.000000       10.071367         2
         1        13        11        12     9        0.000000        1.322512         3
         1        13        11        12     9      180.000000       -0.187267         4
         1        13        11        28     9        0.000000       -0.318162         1
         1        13        11        28     9      180.000000        9.608922         2
         1        13        11        28     9        0.000000        0.517511         3
         1        13        11        28     9      180.000000        0.452021         4
         2         1         4         3     9        0.000000        0.076556         1
         2         1         4         3     9      180.000000       16.939495         2
         2         1         4         3     9        0.000000       -1.251516         3
         2         1         4         3     9      180.000000       -0.335693         4
         2         1         4        24     9        0.000000        0.048532         1
         2         1         4        24     9      180.000000       12.747912         2
         2         1         4        24     9        0.000000       -0.654503         3
         2         1         4        24     9      180.000000        0.093805         4
         2         1        13        11     9        0.000000       -0.468574         1
         2         1        13        11     9      180.000000        2.834047         2
         2         1        13        11     9        0.000000        0.253169         3
         2         1        13        11     9      180.000000       -0.432898         4
         2         1        13        14     9        0.000000        0.339003         1
         2         1        13        14     9      180.000000        3.563692         2
         2         1        13        14     9        0.000000        0.027822         3
         2         1        13        14     9      180.000000        0.003414         4
         2         6         5         3     9        0.000000       -0.271394         1
         2         6         5         3     9      180.000000       10.535755         2
         2         6         5         3     9        0.000000       -1.569540         3
         2         6         5         3     9      180.000000       -0.058197         4
         2         6         5         9     9        0.000000        0.323941         1
         2         6         5         9     9      180.000000        8.892708         2
         2         6         5         9     9        0.000000       -1.879982         3
         2         6         5         9     9      180.000000        0.119936         4
         2         6         7         8     9        0.000000       -0.222102         1
         2         6         7         8     9      180.000000        3.992947         2
         2         6         7         8     9        0.000000       -0.848417         3
         2         6         7         8     9      180.000000        0.035338         4
         2         6         7        10     9        0.000000       -0.425691         1
         2         6         7        10     9      180.000000        4.293375         2
         2         6         7        10     9        0.000000        0.229671         3
         2         6         7        10     9      180.000000        0.068344         4
         3         4         1        13     9        0.000000        0.172686         1
         3         4         1        13     9      180.000000       13.233951         2
         3         4         1        13     9        0.000000       -0.069259         3
         3         4         1        13     9      180.000000       -0.292980         4
         3         5         6         7     9        0.000000       -0.012435         1
         3         5         6         7     9      180.000000       11.284136         2
         3         5         6         7     9        0.000000       -2.379227         3
         3         5         6         7     9      180.000000       -0.022364         4
         3         5         9         8     9        0.000000        1.388441         1
         3         5         9         8     9      180.000000        5.518131         2
         3         5         9         8     9        0.000000        0.436876         3
         3         5         9         8     9      180.000000       -0.035399         4
         3         5         9        25     9        0.000000       -0.166869         1
         3         5         9        25     9      180.000000        1.510508         2
         3         5         9        25     9        0.000000        0.105208         3
         3         5         9        25     9      180.000000       -0.109495         4
         4         1         2         6     9        0.000000       -0.086851         1
         4         1         2         6     9      180.000000       20.821151         2
         4         1         2         6     9        0.000000       -1.577894         3
         4         1         2         6     9      180.000000       -0.636342         4
         4         1         2        22     9        0.000000        0.092699         1
         4         1         2        22     9      180.000000       14.782194         2
         4         1         2        22     9        0.000000       -0.450680         3
         4         1         2        22     9      180.000000       -0.020114         4
         4         1        13        11     9        0.000000        0.172034         1
         4         1        13        11     9      180.000000        3.050326         2
         4         1        13        11     9        0.000000        0.236605         3
         4         1        13        11     9      180.000000       -0.405162         4
         4         1        13        14     9        0.000000       -0.616433         1
         4         1        13        14     9      180.000000        3.769198         2
         4         1        13        14     9        0.000000        0.065461         3
         4         1        13        14     9      180.000000        0.014325         4
         4         3         5         6     9        0.000000       -0.143088         1
         4         3         5         6     9      180.000000       16.991253         2
         4         3         5         6     9        0.000000       -1.861123         3
         4         3         5         6     9      180.000000       -0.342420         4
         4         3         5         9     9        0.000000        0.243557         1
         4         3         5         9     9      180.000000       13.450507         2
         4         3         5         9     9        0.000000       -0.035851         3
         4         3         5         9     9      180.000000       -0.101953         4
         5         3         4        24     9        0.000000        0.128968         1
         5         3         4        24     9      180.000000       17.238455         2
         5         3         4        24     9        0.000000       -0.509989         3
         5         3         4        24     9      180.000000       -0.112149         4
         5         6         2        22     9        0.000000        0.332487         1
         5         6         2        22     9      180.000000       14.422248         2
         5         6         2        22     9        0.000000       -0.300372         3
         5         6         2        22     9      180.000000       -0.198783         4
         5         6         7         8     9        0.000000       -0.158769         1
         5         6         7         8     9      180.000000       30.941356         2
         5         6         7         8     9        0.000000       -9.488855         3
         5         6         7         8     9      180.000000       -0.194582         4
         5         6         7        10     9        0.000000        0.909030         1
         5         6         7        10     9      180.000000       14.485744         2
         5         6         7        10     9        0.000000        0.106613         3
         5         6         7        10     9      180.000000       -0.592040         4
         5         9         8         7     9        0.000000       -0.211795         1
         5         9         8         7     9      180.000000       17.216046         2
         5         9         8         7     9        0.000000       -2.171080         3
         5         9         8         7     9      180.000000       -1.162629         4
         6         2         1        13     9        0.000000        0.112814         1
         6         2         1        13     9      180.000000       17.265715         2
         6         2         1        13     9        0.000000       -0.178159         3
         6         2         1        13     9      180.000000       -0.696544         4
         6         5         3        23     9        0.000000        0.120539         1
         6         5         3        23     9      180.000000       11.348855         2
         6         5         3        23     9        0.000000       -0.291248         3
         6         5         3        23     9      180.000000        0.001313         4
         6         5         9         8     9        0.000000        0.392748         1
         6         5         9         8     9      180.000000       24.691452         2
         6         5         9         8     9        0.000000       -5.027374         3
         6         5         9         8     9      180.000000       -1.038516         4
         6         5         9        25     9        0.000000        0.295809         1
         6         5         9        25     9      180.000000        1.575659         2
         6         5         9        25     9        0.000000        0.501314         3
         6         5         9        25     9      180.000000        0.027061         4
         6         7         8         9     9        0.000000       -0.266285         1
         6         7         8         9     9      180.000000       41.431550         2
         6         7         8         9     9        0.000000       -4.759238         3
         6         7         8         9     9      180.000000       -0.129972         4
         6         7        10        15     9        0.000000        0.203947         1
         6         7        10        15     9      180.000000       -0.394193         2
         6         7        10        15     9        0.000000        0.582819         3
         6         7        10        15     9      180.000000        0.015588         4
         6         7        10        26     9        0.000000       -0.067547         1
         6         7        10        26     9      180.000000        0.140899         2
         6         7        10        26     9        0.000000        0.524378         3
         6         7        10        26     9      180.000000        0.015178         4
         6         7        10        27     9        0.000000       -0.067547         1
         6         7        10        27     9      180.000000        0.140899         2
         6         7        10        27     9        0.000000        0.524378         3
         6         7        10        27     9      180.000000        0.015178         4
         7         6         2        22     9        0.000000       -0.039757         1
         7         6         2        22     9      180.000000        9.771011         2
         7         6         2        22     9        0.000000       -0.000839         3
         7         6         2        22     9      180.000000        0.055041         4
         7         6         5         9     9        0.000000        0.171340         1
         7         6         5         9     9      180.000000       17.413611         2
         7         6         5         9     9        0.000000       -6.321762         3
         7         6         5         9     9      180.000000       -0.232743         4
         7         8         9        25     9        0.000000        2.366235         1
         7         8         9        25     9      180.000000        2.975894         2
         7         8         9        25     9        0.000000        0.435105         3
         7         8         9        25     9      180.000000        0.026087         4
         7        10        15        16     9        0.000000       -0.200091         1
         7        10        15        16     9      180.000000        0.162839         2
         7        10        15        16     9        0.000000        0.083858         3
         7        10        15        16     9      180.000000        0.033752         4
         7        10        15        20     9        0.000000       -0.019314         1
         7        10        15        20     9      180.000000        0.135290         2
         7        10        15        20     9        0.000000        0.066587         3
         7        10        15        20     9      180.000000        0.034740         4
         8         7        10        15     9        0.000000       -1.256891         1
         8         7        10        15     9      180.000000       -0.209273         2
         8         7        10        15     9        0.000000        0.050292         3
         8         7        10        15     9      180.000000        0.010329         4
         8         7        10        26     9        0.000000        0.221261         1
         8         7        10        26     9      180.000000        0.090776         2
         8         7        10        26     9        0.000000       -0.191475         3
         8         7        10        26     9      180.000000        0.040067         4
         8         7        10        27     9        0.000000        0.221261         1
         8         7        10        27     9      180.000000        0.090776         2
         8         7        10        27     9        0.000000       -0.191475         3
         8         7        10        27     9      180.000000        0.040067         4
         9         5         3        23     9        0.000000       -0.114805         1
         9         5         3        23     9      180.000000        9.684382         2
         9         5         3        23     9        0.000000       -0.071654         3
         9         5         3        23     9      180.000000        0.059257         4
         9         8         7        10     9        0.000000        0.498122         1
         9         8         7        10     9      180.000000       32.382383         2
         9         8         7        10     9        0.000000        0.807344         3
         9         8         7        10     9      180.000000       -0.859406         4
        10        15        16        17     9        0.000000        0.005204         1
        10        15        16        17     9      180.000000       15.127308         2
        10        15        16        17     9        0.000000       -0.183701         3
        10        15        16        17     9      180.000000       -0.236482         4
        10        15        16        32     9        0.000000       -0.173960         1
        10        15        16        32     9      180.000000       12.765155         2
        10        15        16        32     9        0.000000       -0.366088         3
        10        15        16        32     9      180.000000        0.137083         4
        10        15        20        19     9        0.000000        0.051523         1
        10        15        20        19     9      180.000000       15.549923         2
        10        15        20        19     9        0.000000       -0.172588         3
        10        15        20        19     9      180.000000       -0.246206         4
        10        15        20        35     9        0.000000       -0.109606         1
        10        15        20        35     9      180.000000       12.795336         2
        10        15        20        35     9        0.000000       -0.315184         3
        10        15        20        35     9      180.000000        0.124430         4
        12        11        13        14     9        0.000000       -3.020102         1
        12        11        13        14     9      180.000000        8.882419         2
        12        11        13        14     9        0.000000       -0.102929         3
        12        11        13        14     9      180.000000       -0.352841         4
        13         1         2        22     9        0.000000        0.155535         1
        13         1         2        22     9      180.000000       13.151942         2
        13         1         2        22     9        0.000000       -0.162661         3
        13         1         2        22     9      180.000000        0.043311         4
        13         1         4        24     9        0.000000        0.154988         1
        13         1         4        24     9      180.000000       12.143465         2
        13         1         4        24     9        0.000000       -0.227162         3
        13         1         4        24     9      180.000000        0.016836         4
        13        11        12        29     9        0.000000       -0.014510         1
        13        11        12        29     9      180.000000        0.029106         2
        13        11        12        29     9        0.000000        0.106987         3
        13        11        12        29     9      180.000000        0.015127         4
        13        11        12        30     9        0.000000       -0.014512         1
        13        11        12        30     9      180.000000        0.029105         2
        13        11        12        30     9        0.000000        0.106987         3
        13        11        12        30     9      180.000000        0.015127         4
        13        11        12        31     9        0.000000       -0.014512         1
        13        11        12        31     9      180.000000        0.029105         2
        13        11        12        31     9        0.000000        0.106987         3
        13        11        12        31     9      180.000000        0.015127         4
        14        13        11        28     9        0.000000        0.063890         1
        14        13        11        28     9      180.000000        9.973476         2
        14        13        11        28     9        0.000000        0.345190         3
        14        13        11        28     9      180.000000        0.057674         4
        15        16        17        18     9        0.000000        0.011747         1
        15        16        17        18     9      180.000000       18.527572         2
        15        16        17        18     9        0.000000       -1.306903         3
        15        16        17        18     9      180.000000       -0.464395         4
        15        16        17        21     9        0.000000        0.067414         1
        15        16        17        21     9      180.000000       15.253780         2
        15        16        17        21     9        0.000000       -0.113296         3
        15        16        17        21     9      180.000000       -0.097650         4
        15        20        19        18     9        0.000000        0.120778         1
        15        20        19        18     9      180.000000       18.170318         2
        15        20        19        18     9        0.000000       -1.465076         3
        15        20        19        18     9      180.000000       -0.405246         4
        15        20        19        34     9        0.000000        0.093197         1
        15        20        19        34     9      180.000000       14.421655         2
        15        20        19        34     9        0.000000       -0.700332         3
        15        20        19        34     9      180.000000        0.083795         4
        16        15        10        26     9        0.000000        0.042838         1
        16        15        10        26     9      180.000000        0.029506         2
        16        15        10        26     9        0.000000       -0.001191         3
        16        15        10        26     9      180.000000        0.010695         4
        16        15        10        27     9        0.000000        0.042838         1
        16        15        10        27     9      180.000000        0.029506         2
        16        15        10        27     9        0.000000       -0.001191         3
        16        15        10        27     9      180.000000        0.010695         4
        16        15        20        19     9        0.000000       -0.089016         1
        16        15        20        19     9      180.000000       19.132297         2
        16        15        20        19     9        0.000000       -1.412375         3
        16        15        20        19     9      180.000000       -0.510727         4
        16        15        20        35     9        0.000000       -0.002258         1
        16        15        20        35     9      180.000000       14.343766         2
        16        15        20        35     9        0.000000       -0.508483         3
        16        15        20        35     9      180.000000       -0.013634         4
        16        17        18        19     9        0.000000       -0.029250         1
        16        17        18        19     9      180.000000       18.995280         2
        16        17        18        19     9        0.000000       -1.432075         3
        16        17        18        19     9      180.000000       -0.454278         4
        16        17        18        33     9        0.000000       -0.075240         1
        16        17        18        33     9      180.000000       14.593856         2
        16        17        18        33     9        0.000000       -0.542758         3
        16        17        18        33     9      180.000000        0.091031         4
        16        17        21        36     9        0.000000       -0.028508         1
        16        17        21        36     9      180.000000        0.011427         2
        16        17        21        36     9        0.000000        0.023627         3
        16        17        21        36     9      180.000000        0.007098         4
        16        17        21        37     9        0.000000       -0.028508         1
        16        17        21        37     9      180.000000        0.011427         2
        16        17        21        37     9        0.000000        0.023627         3
        16        17        21        37     9      180.000000        0.007098         4
        16        17        21        38     9        0.000000       -0.028508         1
        16        17        21        38     9      180.000000        0.011427         2
        16        17        21        38     9        0.000000        0.023627         3
        16        17        21        38     9      180.000000        0.007098         4
        17        16        15        20     9        0.000000       -0.003595         1
        17        16        15        20     9      180.000000       18.714811         2
        17        16        15        20     9        0.000000       -1.415421         3
        17        16        15        20     9      180.000000       -0.479171         4
        17        18        19        20     9        0.000000        0.030680         1
        17        18        19        20     9      180.000000       18.128838         2
        17        18        19        20     9        0.000000       -1.600454         3
        17        18        19        20     9      180.000000       -0.379737         4
        17        18        19        34     9        0.000000        0.069821         1
        17        18        19        34     9      180.000000       13.971634         2
        17        18        19        34     9        0.000000       -0.762671         3
        17        18        19        34     9      180.000000        0.146827         4
        18        17        16        32     9        0.000000        0.000308         1
        18        17        16        32     9      180.000000       14.494903         2
        18        17        16        32     9        0.000000       -0.431473         3
        18        17        16        32     9      180.000000        0.037930         4
        18        17        21        36     9        0.000000       -0.019412         1
        18        17        21        36     9      180.000000        0.009088         2
        18        17        21        36     9        0.000000       -0.021937         3
        18        17        21        36     9      180.000000        0.001297         4
        18        17        21        37     9        0.000000       -0.019412         1
        18        17        21        37     9      180.000000        0.009088         2
        18        17        21        37     9        0.000000       -0.021937         3
        18        17        21        37     9      180.000000        0.001297         4
        18        17        21        38     9        0.000000       -0.019412         1
        18        17        21        38     9      180.000000        0.009088         2
        18        17        21        38     9        0.000000       -0.021937         3
        18        17        21        38     9      180.000000        0.001297         4
        18        19        20        35     9        0.000000        0.128075         1
        18        19        20        35     9      180.000000       14.455833         2
        18        19        20        35     9        0.000000       -0.644538         3
        18        19        20        35     9      180.000000        0.078601         4
        19        18        17        21     9        0.000000        0.077304         1
        19        18        17        21     9      180.000000       15.650399         2
        19        18        17        21     9        0.000000       -0.197744         3
        19        18        17        21     9      180.000000       -0.114687         4
        20        15        10        26     9        0.000000        0.004847         1
        20        15        10        26     9      180.000000        0.009985         2
        20        15        10        26     9        0.000000       -0.034862         3
        20        15        10        26     9      180.000000        0.010073         4
        20        15        10        27     9        0.000000        0.004847         1
        20        15        10        27     9      180.000000        0.009985         2
        20        15        10        27     9        0.000000       -0.034862         3
        20        15        10        27     9      180.000000        0.010073         4
        20        15        16        32     9        0.000000       -0.037886         1
        20        15        16        32     9      180.000000       14.264627         2
        20        15        16        32     9        0.000000       -0.522135         3
        20        15        16        32     9      180.000000        0.031806         4
        20        19        18        33     9        0.000000        0.052582         1
        20        19        18        33     9      180.000000       14.392509         2
        20        19        18        33     9        0.000000       -0.725327         3
        20        19        18        33     9      180.000000        0.129767         4
        21        17        16        32     9        0.000000       -0.158926         1
        21        17        16        32     9      180.000000       13.006736         2
        21        17        16        32     9        0.000000       -0.388108         3
        21        17        16        32     9      180.000000        0.254309         4
        21        17        18        33     9        0.000000       -0.201708         1
        21        17        18        33     9      180.000000       12.855735         2
        21        17        18        33     9        0.000000       -0.441457         3
        21        17        18        33     9      180.000000        0.258545         4
        23         3         4        24     9        0.000000       -0.052824         1
        23         3         4        24     9      180.000000       12.555027         2
        23         3         4        24     9        0.000000       -0.658769         3
        23         3         4        24     9      180.000000        0.295185         4
        28        11        12        29     9        0.000000       -0.030955         1
        28        11        12        29     9      180.000000        0.024930         2
        28        11        12        29     9        0.000000        0.474233         3
        28        11        12        29     9      180.000000       -0.000107         4
        28        11        12        30     9        0.000000       -0.030955         1
        28        11        12        30     9      180.000000        0.024929         2
        28        11        12        30     9        0.000000        0.474233         3
        28        11        12        30     9      180.000000       -0.000106         4
        28        11        12        31     9        0.000000       -0.030955         1
        28        11        12        31     9      180.000000        0.024929         2
        28        11        12        31     9        0.000000        0.474233         3
        28        11        12        31     9      180.000000       -0.000106         4
        33        18        19        34     9        0.000000       -0.131992         1
        33        18        19        34     9      180.000000       11.354252         2
        33        18        19        34     9        0.000000       -0.576352         3
        33        18        19        34     9      180.000000        0.238264         4
        34        19        20        35     9        0.000000       -0.069965         1
        34        19        20        35     9      180.000000       11.863960         2
        34        19        20        35     9        0.000000       -0.623793         3
        34        19        20        35     9      180.000000        0.238937         4

[ dihedrals ] ; impropers
;       ai        aj        ak        al funct           phase               k        pn
        13         1        11        14     4      180.000000       27.893333         2
        13        11        14         1     4      180.000000       27.893333         2
        13        14         1        11     4      180.000000       27.893333         2
        16        15        17        32     4      180.000000        6.089445         2
        16        17        32        15     4      180.000000        6.089445         2
        16        32        15        17     4      180.000000        6.089445         2
        18        17        19        33     4      180.000000        4.202663         2
        18        19        33        17     4      180.000000        4.202663         2
        18        33        17        19     4      180.000000        4.202663         2
        19        18        20        34     4      180.000000        3.461857         2
        19        20        34        18     4      180.000000        3.461857         2
        19        34        18        20     4      180.000000        3.461857         2
        20        15        19        35     4      180.000000        3.243921         2
        20        19        35        15     4      180.000000        3.243921         2
        20        35        15        19     4      180.000000        3.243921         2

[ pairs ]
;       ai        aj funct
         1         5     1
         1         7     1
         1        12     1
         1        23     1
         1        28     1
         2         3     1
         2         8     1
         2         9     1
         2        10     1
         2        11     1
         2        14     1
         2        24     1
         3         7     1
         3         8     1
         3        13     1
         3        25     1
         4         6     1
         4         9     1
         4        11     1
         4        14     1
         4        22     1
         5        10     1
         5        22     1
         5        24     1
         6        13     1
         6        15     1
         6        23     1
         6        25     1
         6        26     1
         6        27     1
         7        16     1
         7        20     1
         7        22     1
         7        25     1
         8        15     1
         8        26     1
         8        27     1
         9        10     1
         9        23     1
        10        17     1
        10        19     1
        10        32     1
        10        35     1
        12        14     1
        13        22     1
        13        24     1
        13        29     1
        13        30     1
        13        31     1
        14        28     1
        15        18     1
        15        21     1
        15        34     1
        16        19     1
        16        26     1
        16        27     1
        16        33     1
        16        35     1
        16        36     1
        16        37     1
        16        38     1
        17        20     1
        17        34     1
        18        32     1
        18        35     1
        18        36     1
        18        37     1
        18        38     1
        19        21     1
        20        26     1
        20        27     1
        20        32     1
        20        33     1
        21        32     1
        21        33     1
        23        24     1
        28        29     1
        28        30     1
        28        31     1
        33        34     1
        34        35     1
