; ITP file created by ByteFF-ML, 2026-02-21 07:34:35.849173

[ atomtypes ]
;name           bonded.type        at.num        mass        charge   ptype           sigma         epsilon
 c0bf                                   6      0.0000       0.00000       A     3.31378e-01     4.12993e-01
 c1bf                                   6      0.0000       0.00000       A     3.31393e-01     4.13866e-01
 c2bf                                   6      0.0000       0.00000       A     3.31517e-01     4.12482e-01
 c3bf                                   6      0.0000       0.00000       A     3.31519e-01     4.12686e-01
 c4bf                                   6      0.0000       0.00000       A     3.31529e-01     4.12453e-01
 c5bf                                   6      0.0000       0.00000       A     3.31500e-01     4.11950e-01
 c6bf                                   6      0.0000       0.00000       A     3.31449e-01     4.11690e-01
 n7bf                                   7      0.0000       0.00000       A     3.38151e-01     3.91342e-01
 n8bf                                   7      0.0000       0.00000       A     3.20440e-01     8.58154e-01
 c9bf                                   6      0.0000       0.00000       A     3.39894e-01     4.51193e-01
 n10bf                                  7      0.0000       0.00000       A     3.27127e-01     4.92119e-01
 c11bf                                  6      0.0000       0.00000       A     3.39836e-01     4.51204e-01
 c12bf                                  6      0.0000       0.00000       A     3.31522e-01     4.13463e-01
 o13bf                                  8      0.0000       0.00000       A     3.04756e-01     6.10859e-01
 c14bf                                  6      0.0000       0.00000       A     3.31548e-01     4.12723e-01
 c15bf                                  6      0.0000       0.00000       A     3.31374e-01     4.13618e-01
 c16bf                                  6      0.0000       0.00000       A     3.31488e-01     4.13980e-01
 c17bf                                  6      0.0000       0.00000       A     3.31457e-01     4.12665e-01
 c18bf                                  6      0.0000       0.00000       A     3.31492e-01     4.13443e-01
 c19bf                                  6      0.0000       0.00000       A     3.31619e-01     4.13735e-01
 n20bf                                  7      0.0000       0.00000       A     3.20575e-01     8.53113e-01
 n21bf                                  7      0.0000       0.00000       A     3.38413e-01     3.94987e-01
 c22bf                                  6      0.0000       0.00000       A     3.31420e-01     4.12989e-01
 h23bf                                  1      0.0000       0.00000       A     2.62417e-01     6.67524e-02
 h24bf                                  1      0.0000       0.00000       A     2.62471e-01     6.70892e-02
 h25bf                                  1      0.0000       0.00000       A     2.62589e-01     6.73302e-02
 h26bf                                  1      0.0000       0.00000       A     1.10602e-01     4.12983e-02
 h27bf                                  1      0.0000       0.00000       A     2.60095e-01     8.81477e-02
 h28bf                                  1      0.0000       0.00000       A     2.60095e-01     8.81477e-02
 h29bf                                  1      0.0000       0.00000       A     1.10511e-01     4.11227e-02
 h30bf                                  1      0.0000       0.00000       A     2.41960e-01     8.71613e-02
 h31bf                                  1      0.0000       0.00000       A     2.41960e-01     8.71613e-02
 h32bf                                  1      0.0000       0.00000       A     2.41960e-01     8.71613e-02
 h33bf                                  1      0.0000       0.00000       A     2.62258e-01     6.75600e-02
 h34bf                                  1      0.0000       0.00000       A     2.62540e-01     6.68705e-02
 h35bf                                  1      0.0000       0.00000       A     2.62470e-01     6.73541e-02
 h36bf                                  1      0.0000       0.00000       A     2.53922e-01     6.68561e-02
 c37bf                                  6      0.0000       0.00000       A     3.39827e-01     4.50277e-01
 h38bf                                  1      0.0000       0.00000       A     2.41917e-01     8.73385e-02
 h39bf                                  1      0.0000       0.00000       A     2.41917e-01     8.73385e-02
 h40bf                                  1      0.0000       0.00000       A     2.41917e-01     8.73385e-02

[ moleculetype ]
;name             nrexcl
 17_flipped            3

[ atoms ]
;       nr            type      resi   res      atom      cgnr      charge          mass ; qtot
         1            c0bf         1   UNL        c0         1    -0.19580       12.0110 ; qtot   -0.196
         2            c1bf         1   UNL        c1         2     0.01759       12.0110 ; qtot   -0.178
         3            c2bf         1   UNL        c2         3    -0.14960       12.0110 ; qtot   -0.328
         4            c3bf         1   UNL        c3         4    -0.03870       12.0110 ; qtot   -0.367
         5            c4bf         1   UNL        c4         5    -0.00053       12.0110 ; qtot   -0.367
         6            c5bf         1   UNL        c5         6    -0.23510       12.0110 ; qtot   -0.602
         7            c6bf         1   UNL        c6         7     0.35939       12.0110 ; qtot   -0.243
         8            n7bf         1   UNL        n7         8    -0.50667       14.0070 ; qtot   -0.749
         9            n8bf         1   UNL        n8         9    -0.08032       14.0070 ; qtot   -0.830
        10            c9bf         1   UNL        c9        10    -0.03997       12.0110 ; qtot   -0.870
        11           n10bf         1   UNL       n10        11    -0.50498       14.0070 ; qtot   -1.375
        12           c11bf         1   UNL       c11        12     0.08379       12.0110 ; qtot   -1.291
        13           c12bf         1   UNL       c12        13     0.60434       12.0110 ; qtot   -0.687
        14           o13bf         1   UNL       o13        14    -0.60022       15.9990 ; qtot   -1.287
        15           c14bf         1   UNL       c14        15    -0.06035       12.0110 ; qtot   -1.347
        16           c15bf         1   UNL       c15        16    -0.12272       12.0110 ; qtot   -1.470
        17           c16bf         1   UNL       c16        17    -0.02638       12.0110 ; qtot   -1.496
        18           c17bf         1   UNL       c17        18    -0.23480       12.0110 ; qtot   -1.731
        19           c18bf         1   UNL       c18        19    -0.03690       12.0110 ; qtot   -1.768
        20           c19bf         1   UNL       c19        20    -0.13630       12.0110 ; qtot   -1.904
        21           n20bf         1   UNL       n20        21     0.05240       14.0070 ; qtot   -1.852
        22           n21bf         1   UNL       n21        22    -0.51464       14.0070 ; qtot   -2.366
        23           c22bf         1   UNL       c22        23     0.35665       12.0110 ; qtot   -2.010
        24           h23bf         1   UNL       h23        24     0.13756        1.0080 ; qtot   -1.872
        25           h24bf         1   UNL       h24        25     0.12872        1.0080 ; qtot   -1.744
        26           h25bf         1   UNL       h25        26     0.12755        1.0080 ; qtot   -1.616
        27           h26bf         1   UNL       h26        27     0.37621        1.0080 ; qtot   -1.240
        28           h27bf         1   UNL       h27        28     0.06280        1.0080 ; qtot   -1.177
        29           h28bf         1   UNL       h28        29     0.06280        1.0080 ; qtot   -1.114
        30           h29bf         1   UNL       h29        30     0.31254        1.0080 ; qtot   -0.802
        31           h30bf         1   UNL       h30        31     0.04497        1.0080 ; qtot   -0.757
        32           h31bf         1   UNL       h31        32     0.04497        1.0080 ; qtot   -0.712
        33           h32bf         1   UNL       h32        33     0.04497        1.0080 ; qtot   -0.667
        34           h33bf         1   UNL       h33        34     0.12624        1.0080 ; qtot   -0.540
        35           h34bf         1   UNL       h34        35     0.12317        1.0080 ; qtot   -0.417
        36           h35bf         1   UNL       h35        36     0.12104        1.0080 ; qtot   -0.296
        37           h36bf         1   UNL       h36        37     0.04936        1.0080 ; qtot   -0.247
        38           c37bf         1   UNL       c37        38     0.07898       12.0110 ; qtot   -0.168
        39           h38bf         1   UNL       h38        39     0.05599        1.0080 ; qtot   -0.112
        40           h39bf         1   UNL       h39        40     0.05599        1.0080 ; qtot   -0.056
        41           h40bf         1   UNL       h40        41     0.05596        1.0080 ; qtot    0.000

[ bonds ]
;       ai        aj funct               r               k
         1         2     1        0.139322   312548.937012
         1         4     1        0.142259   260495.523340
         1        13     1        0.150119   175785.266968
         2         6     1        0.140342   306472.126465
         2        24     1        0.108524   322040.365527
         3         4     1        0.138622   347050.005908
         3         5     1        0.140635   300350.677051
         3        25     1        0.108557   321190.184082
         4        26     1        0.108489   322025.043262
         5         6     1        0.141869   251815.842920
         5         9     1        0.136842   290575.199268
         6         7     1        0.143786   232820.728076
         7         8     1        0.132648   371349.331592
         7        10     1        0.150269   213775.700952
         8         9     1        0.136401   241851.313916
         9        27     1        0.100927   434980.632227
        10        15     1        0.151957   190349.054907
        10        28     1        0.109484   295100.911328
        10        29     1        0.109484   295100.911328
        11        12     1        0.145884   219533.387012
        11        13     1        0.137271   291155.172559
        11        30     1        0.101035   426422.610596
        12        31     1        0.109290   302707.599023
        12        32     1        0.109290   302707.599023
        12        33     1        0.109290   302707.599023
        13        14     1        0.123395   590117.754492
        15        16     1        0.139115   315851.293848
        15        20     1        0.142093   257525.812891
        16        17     1        0.140633   296546.771387
        16        34     1        0.108612   318080.300439
        17        18     1        0.142110   248058.746777
        17        21     1        0.137030   276454.582324
        18        19     1        0.140906   301033.309521
        18        23     1        0.143052   251981.629834
        19        20     1        0.138641   338125.399072
        19        35     1        0.108625   319681.604883
        20        36     1        0.108656   317365.261377
        21        22     1        0.136461   226468.601953
        21        38     1        0.144875   229339.841309
        22        23     1        0.132596   380232.236328
        23        37     1        0.108270   331191.537598
        38        39     1        0.109267   303150.591260
        38        40     1        0.109267   303150.591260
        38        41     1        0.109267   303150.591260

[ angles ]
;       ai        aj        ak funct           theta             cth
         1         2         6     1      118.819092      666.476035
         1         2        24     1      120.117737      400.157630
         1         4         3     1      122.084206      616.058886
         1         4        26     1      118.782700      417.101246
         1        13        11     1      116.330872      512.105773
         1        13        14     1      121.916847      607.137497
         2         1         4     1      120.154564      610.309972
         2         1        13     1      119.699440      511.255898
         2         6         5     1      119.751610      753.226554
         2         6         7     1      135.530228      435.136862
         3         4        26     1      119.275345      407.140082
         3         5         6     1      121.826454      612.816631
         3         5         9     1      132.490311      480.939423
         4         1        13     1      120.242409      578.872386
         4         3         5     1      117.047997      762.793649
         4         3        25     1      121.191063      439.898990
         5         3        25     1      121.912209      436.763288
         5         6         7     1      104.810692      488.518933
         5         9         8     1      112.338623      425.015069
         5         9        27     1      128.734390      380.960906
         6         2        24     1      121.013916      408.365225
         6         5         9     1      105.797852      167.360000
         6         7         8     1      110.700706      353.727302
         6         7        10     1      127.831116      446.585467
         7         8         9     1      106.501038      544.543233
         7        10        15     1      113.149094      522.414179
         7        10        28     1      108.506248      513.840445
         7        10        29     1      108.506248      513.840445
         8         7        10     1      121.620117      448.931593
         8         9        27     1      118.789017      482.596877
        10        15        16     1      120.236023      437.378414
        10        15        20     1      119.565491      513.148102
        11        12        31     1      110.029320      493.640241
        11        12        32     1      110.029320      493.640241
        11        12        33     1      110.029320      493.640241
        11        13        14     1      121.648376      574.362405
        12        11        13     1      120.285622      524.469820
        12        11        30     1      117.871620      428.240885
        13        11        30     1      117.856812      419.313622
        15        10        28     1      109.652649      495.350780
        15        10        29     1      109.652649      495.350780
        15        16        17     1      117.847252      753.210018
        15        16        34     1      120.608299      384.215834
        15        20        19     1      121.759888      656.056320
        15        20        36     1      118.716698      403.089609
        16        15        20     1      120.358459      664.627723
        16        17        18     1      122.294617      657.368034
        16        17        21     1      131.470825      439.592832
        17        16        34     1      121.825882      409.405926
        17        18        19     1      119.112503      729.550972
        17        18        23     1      104.192703      436.461025
        17        21        22     1      111.647324      434.287306
        17        21        38     1      127.735153      488.063511
        18        17        21     1      106.312721      167.360000
        18        19        20     1      118.527222      697.421330
        18        19        35     1      120.822449      420.920768
        18        23        22     1      111.251587      384.795047
        18        23        37     1      129.111099      352.781823
        19        18        23     1      136.595947      479.756672
        19        20        36     1      119.815956      425.197627
        20        19        35     1      120.738937      421.745553
        21        22        23     1      106.525803      505.320978
        21        38        39     1      109.824585      468.506682
        21        38        40     1      109.824585      468.506682
        21        38        41     1      109.824585      468.506682
        22        21        38     1      120.298256      538.948563
        22        23        37     1      119.565186      397.098029
        28        10        29     1      106.973839      363.923408
        31        12        32     1      108.965477      342.583387
        31        12        33     1      108.965477      342.583387
        32        12        33     1      108.965477      342.583387
        39        38        40     1      109.288673      350.199638
        39        38        41     1      109.288673      350.199638
        40        38        41     1      109.288673      350.199638

[ dihedrals ] ; propers for gromacs 4.5 or higher, use funct 9
;       ai        aj        ak        al funct           phase               k        pn
         1         2         6         5     9        0.000000       -0.090667         1
         1         2         6         5     9      180.000000       19.620490         2
         1         2         6         5     9        0.000000       -2.393207         3
         1         2         6         5     9      180.000000       -0.485549         4
         1         2         6         7     9        0.000000       -0.377835         1
         1         2         6         7     9      180.000000       13.966874         2
         1         2         6         7     9        0.000000       -1.031492         3
         1         2         6         7     9      180.000000       -0.251759         4
         1         4         3         5     9        0.000000       -0.096886         1
         1         4         3         5     9      180.000000       22.112872         2
         1         4         3         5     9        0.000000       -1.551136         3
         1         4         3         5     9      180.000000       -0.670671         4
         1         4         3        25     9        0.000000        0.027742         1
         1         4         3        25     9      180.000000       14.732066         2
         1         4         3        25     9        0.000000       -0.475106         3
         1         4         3        25     9      180.000000        0.121735         4
         1        13        11        12     9        0.000000        2.438957         1
         1        13        11        12     9      180.000000       10.071367         2
         1        13        11        12     9        0.000000        1.322512         3
         1        13        11        12     9      180.000000       -0.187267         4
         1        13        11        30     9        0.000000       -0.318162         1
         1        13        11        30     9      180.000000        9.608922         2
         1        13        11        30     9        0.000000        0.517511         3
         1        13        11        30     9      180.000000        0.452021         4
         2         1         4         3     9        0.000000        0.076556         1
         2         1         4         3     9      180.000000       16.939495         2
         2         1         4         3     9        0.000000       -1.251516         3
         2         1         4         3     9      180.000000       -0.335693         4
         2         1         4        26     9        0.000000        0.048532         1
         2         1         4        26     9      180.000000       12.747912         2
         2         1         4        26     9        0.000000       -0.654503         3
         2         1         4        26     9      180.000000        0.093805         4
         2         1        13        11     9        0.000000       -0.468574         1
         2         1        13        11     9      180.000000        2.834047         2
         2         1        13        11     9        0.000000        0.253169         3
         2         1        13        11     9      180.000000       -0.432898         4
         2         1        13        14     9        0.000000        0.339003         1
         2         1        13        14     9      180.000000        3.563692         2
         2         1        13        14     9        0.000000        0.027822         3
         2         1        13        14     9      180.000000        0.003414         4
         2         6         5         3     9        0.000000       -0.271394         1
         2         6         5         3     9      180.000000       10.535755         2
         2         6         5         3     9        0.000000       -1.569540         3
         2         6         5         3     9      180.000000       -0.058197         4
         2         6         5         9     9        0.000000        0.323941         1
         2         6         5         9     9      180.000000        8.892708         2
         2         6         5         9     9        0.000000       -1.879982         3
         2         6         5         9     9      180.000000        0.119936         4
         2         6         7         8     9        0.000000       -0.222524         1
         2         6         7         8     9      180.000000        3.997878         2
         2         6         7         8     9        0.000000       -0.847176         3
         2         6         7         8     9      180.000000        0.034907         4
         2         6         7        10     9        0.000000       -0.440782         1
         2         6         7        10     9      180.000000        4.299499         2
         2         6         7        10     9        0.000000        0.230682         3
         2         6         7        10     9      180.000000        0.065540         4
         3         4         1        13     9        0.000000        0.172686         1
         3         4         1        13     9      180.000000       13.233951         2
         3         4         1        13     9        0.000000       -0.069259         3
         3         4         1        13     9      180.000000       -0.292980         4
         3         5         6         7     9        0.000000       -0.011403         1
         3         5         6         7     9      180.000000       11.291051         2
         3         5         6         7     9        0.000000       -2.381223         3
         3         5         6         7     9      180.000000       -0.023842         4
         3         5         9         8     9        0.000000        1.388441         1
         3         5         9         8     9      180.000000        5.518131         2
         3         5         9         8     9        0.000000        0.436876         3
         3         5         9         8     9      180.000000       -0.035399         4
         3         5         9        27     9        0.000000       -0.166869         1
         3         5         9        27     9      180.000000        1.510508         2
         3         5         9        27     9        0.000000        0.105208         3
         3         5         9        27     9      180.000000       -0.109495         4
         4         1         2         6     9        0.000000       -0.086851         1
         4         1         2         6     9      180.000000       20.821151         2
         4         1         2         6     9        0.000000       -1.577894         3
         4         1         2         6     9      180.000000       -0.636342         4
         4         1         2        24     9        0.000000        0.092699         1
         4         1         2        24     9      180.000000       14.782194         2
         4         1         2        24     9        0.000000       -0.450680         3
         4         1         2        24     9      180.000000       -0.020114         4
         4         1        13        11     9        0.000000        0.172034         1
         4         1        13        11     9      180.000000        3.050326         2
         4         1        13        11     9        0.000000        0.236605         3
         4         1        13        11     9      180.000000       -0.405162         4
         4         1        13        14     9        0.000000       -0.616433         1
         4         1        13        14     9      180.000000        3.769198         2
         4         1        13        14     9        0.000000        0.065461         3
         4         1        13        14     9      180.000000        0.014325         4
         4         3         5         6     9        0.000000       -0.143088         1
         4         3         5         6     9      180.000000       16.991253         2
         4         3         5         6     9        0.000000       -1.861123         3
         4         3         5         6     9      180.000000       -0.342420         4
         4         3         5         9     9        0.000000        0.243557         1
         4         3         5         9     9      180.000000       13.450507         2
         4         3         5         9     9        0.000000       -0.035851         3
         4         3         5         9     9      180.000000       -0.101953         4
         5         3         4        26     9        0.000000        0.128968         1
         5         3         4        26     9      180.000000       17.238455         2
         5         3         4        26     9        0.000000       -0.509989         3
         5         3         4        26     9      180.000000       -0.112149         4
         5         6         2        24     9        0.000000        0.332487         1
         5         6         2        24     9      180.000000       14.422248         2
         5         6         2        24     9        0.000000       -0.300372         3
         5         6         2        24     9      180.000000       -0.198783         4
         5         6         7         8     9        0.000000       -0.158043         1
         5         6         7         8     9      180.000000       30.934186         2
         5         6         7         8     9        0.000000       -9.488516         3
         5         6         7         8     9      180.000000       -0.194501         4
         5         6         7        10     9        0.000000        0.911176         1
         5         6         7        10     9      180.000000       14.479227         2
         5         6         7        10     9        0.000000        0.106091         3
         5         6         7        10     9      180.000000       -0.589754         4
         5         9         8         7     9        0.000000       -0.212417         1
         5         9         8         7     9      180.000000       17.202000         2
         5         9         8         7     9        0.000000       -2.172826         3
         5         9         8         7     9      180.000000       -1.162576         4
         6         2         1        13     9        0.000000        0.112814         1
         6         2         1        13     9      180.000000       17.265715         2
         6         2         1        13     9        0.000000       -0.178159         3
         6         2         1        13     9      180.000000       -0.696544         4
         6         5         3        25     9        0.000000        0.120539         1
         6         5         3        25     9      180.000000       11.348855         2
         6         5         3        25     9        0.000000       -0.291248         3
         6         5         3        25     9      180.000000        0.001313         4
         6         5         9         8     9        0.000000        0.392748         1
         6         5         9         8     9      180.000000       24.691452         2
         6         5         9         8     9        0.000000       -5.027374         3
         6         5         9         8     9      180.000000       -1.038516         4
         6         5         9        27     9        0.000000        0.295809         1
         6         5         9        27     9      180.000000        1.575659         2
         6         5         9        27     9        0.000000        0.501314         3
         6         5         9        27     9      180.000000        0.027061         4
         6         7         8         9     9        0.000000       -0.265633         1
         6         7         8         9     9      180.000000       41.406879         2
         6         7         8         9     9        0.000000       -4.757213         3
         6         7         8         9     9      180.000000       -0.128869         4
         6         7        10        15     9        0.000000        0.249606         1
         6         7        10        15     9      180.000000       -0.463606         2
         6         7        10        15     9        0.000000        0.616915         3
         6         7        10        15     9      180.000000        0.024173         4
         6         7        10        28     9        0.000000       -0.066252         1
         6         7        10        28     9      180.000000        0.139250         2
         6         7        10        28     9        0.000000        0.523875         3
         6         7        10        28     9      180.000000        0.016237         4
         6         7        10        29     9        0.000000       -0.066252         1
         6         7        10        29     9      180.000000        0.139250         2
         6         7        10        29     9        0.000000        0.523875         3
         6         7        10        29     9      180.000000        0.016237         4
         7         6         2        24     9        0.000000       -0.041247         1
         7         6         2        24     9      180.000000        9.775547         2
         7         6         2        24     9        0.000000       -0.000804         3
         7         6         2        24     9      180.000000        0.054552         4
         7         6         5         9     9        0.000000        0.172109         1
         7         6         5         9     9      180.000000       17.410180         2
         7         6         5         9     9        0.000000       -6.323893         3
         7         6         5         9     9      180.000000       -0.233081         4
         7         8         9        27     9        0.000000        2.361158         1
         7         8         9        27     9      180.000000        2.980257         2
         7         8         9        27     9        0.000000        0.434237         3
         7         8         9        27     9      180.000000        0.025133         4
         7        10        15        16     9        0.000000       -0.366496         1
         7        10        15        16     9      180.000000        0.188326         2
         7        10        15        16     9        0.000000       -0.106802         3
         7        10        15        16     9      180.000000        0.053801         4
         7        10        15        20     9        0.000000        0.028986         1
         7        10        15        20     9      180.000000        0.116704         2
         7        10        15        20     9        0.000000        0.272246         3
         7        10        15        20     9      180.000000        0.015577         4
         8         7        10        15     9        0.000000       -1.308858         1
         8         7        10        15     9      180.000000       -0.198822         2
         8         7        10        15     9        0.000000        0.051046         3
         8         7        10        15     9      180.000000        0.014901         4
         8         7        10        28     9        0.000000        0.219236         1
         8         7        10        28     9      180.000000        0.089402         2
         8         7        10        28     9        0.000000       -0.190923         3
         8         7        10        28     9      180.000000        0.040636         4
         8         7        10        29     9        0.000000        0.219236         1
         8         7        10        29     9      180.000000        0.089402         2
         8         7        10        29     9        0.000000       -0.190923         3
         8         7        10        29     9      180.000000        0.040636         4
         9         5         3        25     9        0.000000       -0.114805         1
         9         5         3        25     9      180.000000        9.684382         2
         9         5         3        25     9        0.000000       -0.071654         3
         9         5         3        25     9      180.000000        0.059257         4
         9         8         7        10     9        0.000000        0.474252         1
         9         8         7        10     9      180.000000       32.388337         2
         9         8         7        10     9        0.000000        0.820956         3
         9         8         7        10     9      180.000000       -0.851126         4
        10        15        16        17     9        0.000000        0.029106         1
        10        15        16        17     9      180.000000       19.542796         2
        10        15        16        17     9        0.000000        0.010297         3
        10        15        16        17     9      180.000000       -0.778061         4
        10        15        16        34     9        0.000000       -0.115367         1
        10        15        16        34     9      180.000000       13.123183         2
        10        15        16        34     9        0.000000       -0.346577         3
        10        15        16        34     9      180.000000        0.098141         4
        10        15        20        19     9        0.000000        0.020762         1
        10        15        20        19     9      180.000000       14.231578         2
        10        15        20        19     9        0.000000       -0.144525         3
        10        15        20        19     9      180.000000       -0.148003         4
        10        15        20        36     9        0.000000       -0.102685         1
        10        15        20        36     9      180.000000       12.304409         2
        10        15        20        36     9        0.000000       -0.404542         3
        10        15        20        36     9      180.000000        0.142877         4
        12        11        13        14     9        0.000000       -3.020102         1
        12        11        13        14     9      180.000000        8.882419         2
        12        11        13        14     9        0.000000       -0.102929         3
        12        11        13        14     9      180.000000       -0.352841         4
        13         1         2        24     9        0.000000        0.155535         1
        13         1         2        24     9      180.000000       13.151942         2
        13         1         2        24     9        0.000000       -0.162661         3
        13         1         2        24     9      180.000000        0.043311         4
        13         1         4        26     9        0.000000        0.154988         1
        13         1         4        26     9      180.000000       12.143465         2
        13         1         4        26     9        0.000000       -0.227162         3
        13         1         4        26     9      180.000000        0.016836         4
        13        11        12        31     9        0.000000       -0.014510         1
        13        11        12        31     9      180.000000        0.029106         2
        13        11        12        31     9        0.000000        0.106987         3
        13        11        12        31     9      180.000000        0.015127         4
        13        11        12        32     9        0.000000       -0.014512         1
        13        11        12        32     9      180.000000        0.029105         2
        13        11        12        32     9        0.000000        0.106987         3
        13        11        12        32     9      180.000000        0.015127         4
        13        11        12        33     9        0.000000       -0.014512         1
        13        11        12        33     9      180.000000        0.029105         2
        13        11        12        33     9        0.000000        0.106987         3
        13        11        12        33     9      180.000000        0.015127         4
        14        13        11        30     9        0.000000        0.063890         1
        14        13        11        30     9      180.000000        9.973476         2
        14        13        11        30     9        0.000000        0.345190         3
        14        13        11        30     9      180.000000        0.057674         4
        15        16        17        18     9        0.000000       -0.057198         1
        15        16        17        18     9      180.000000       16.613491         2
        15        16        17        18     9        0.000000       -1.540761         3
        15        16        17        18     9      180.000000       -0.334713         4
        15        16        17        21     9        0.000000        0.246355         1
        15        16        17        21     9      180.000000       12.626954         2
        15        16        17        21     9        0.000000       -0.201641         3
        15        16        17        21     9      180.000000       -0.174260         4
        15        20        19        18     9        0.000000        0.028941         1
        15        20        19        18     9      180.000000       20.889880         2
        15        20        19        18     9        0.000000       -1.610704         3
        15        20        19        18     9      180.000000       -0.413587         4
        15        20        19        35     9        0.000000        0.000757         1
        15        20        19        35     9      180.000000       15.689343         2
        15        20        19        35     9        0.000000       -0.605718         3
        15        20        19        35     9      180.000000        0.011626         4
        16        15        10        28     9        0.000000        0.044237         1
        16        15        10        28     9      180.000000        0.034481         2
        16        15        10        28     9        0.000000       -0.166110         3
        16        15        10        28     9      180.000000        0.002857         4
        16        15        10        29     9        0.000000        0.044237         1
        16        15        10        29     9      180.000000        0.034481         2
        16        15        10        29     9        0.000000       -0.166110         3
        16        15        10        29     9      180.000000        0.002857         4
        16        15        20        19     9        0.000000       -0.036507         1
        16        15        20        19     9      180.000000       17.475870         2
        16        15        20        19     9        0.000000       -1.139860         3
        16        15        20        19     9      180.000000       -0.385610         4
        16        15        20        36     9        0.000000        0.006556         1
        16        15        20        36     9      180.000000       13.494021         2
        16        15        20        36     9        0.000000       -0.516571         3
        16        15        20        36     9      180.000000        0.041555         4
        16        17        18        19     9        0.000000       -0.134029         1
        16        17        18        19     9      180.000000       11.000150         2
        16        17        18        19     9        0.000000       -1.567473         3
        16        17        18        19     9      180.000000       -0.067063         4
        16        17        18        23     9        0.000000       -0.032695         1
        16        17        18        23     9      180.000000       10.616665         2
        16        17        18        23     9        0.000000       -2.005631         3
        16        17        18        23     9      180.000000        0.000293         4
        16        17        21        22     9        0.000000        1.063974         1
        16        17        21        22     9      180.000000        4.687796         2
        16        17        21        22     9        0.000000        0.609401         3
        16        17        21        22     9      180.000000       -0.005023         4
        16        17        21        38     9        0.000000       -0.009422         1
        16        17        21        38     9      180.000000        2.344044         2
        16        17        21        38     9        0.000000        0.083576         3
        16        17        21        38     9      180.000000        0.057214         4
        17        16        15        20     9        0.000000       -0.093807         1
        17        16        15        20     9      180.000000       21.833171         2
        17        16        15        20     9        0.000000       -1.541867         3
        17        16        15        20     9      180.000000       -0.701893         4
        17        18        19        20     9        0.000000       -0.142468         1
        17        18        19        20     9      180.000000       19.689953         2
        17        18        19        20     9        0.000000       -2.489751         3
        17        18        19        20     9      180.000000       -0.424423         4
        17        18        19        35     9        0.000000        0.172846         1
        17        18        19        35     9      180.000000       13.503664         2
        17        18        19        35     9        0.000000       -0.424621         3
        17        18        19        35     9      180.000000       -0.071853         4
        17        18        23        22     9        0.000000       -0.218557         1
        17        18        23        22     9      180.000000       30.421465         2
        17        18        23        22     9        0.000000       -9.717096         3
        17        18        23        22     9      180.000000       -0.293126         4
        17        18        23        37     9        0.000000        0.989367         1
        17        18        23        37     9      180.000000       12.710635         2
        17        18        23        37     9        0.000000        0.454738         3
        17        18        23        37     9      180.000000       -0.369533         4
        17        21        22        23     9        0.000000       -0.563377         1
        17        21        22        23     9      180.000000       22.911851         2
        17        21        22        23     9        0.000000       -3.261022         3
        17        21        22        23     9      180.000000       -0.394863         4
        17        21        38        39     9        0.000000       -0.021027         1
        17        21        38        39     9      180.000000        0.012618         2
        17        21        38        39     9        0.000000        0.552714         3
        17        21        38        39     9      180.000000        0.004288         4
        17        21        38        40     9        0.000000       -0.021027         1
        17        21        38        40     9      180.000000        0.012618         2
        17        21        38        40     9        0.000000        0.552714         3
        17        21        38        40     9      180.000000        0.004288         4
        17        21        38        41     9        0.000000       -0.021027         1
        17        21        38        41     9      180.000000        0.012618         2
        17        21        38        41     9        0.000000        0.552714         3
        17        21        38        41     9      180.000000        0.004288         4
        18        17        16        34     9        0.000000        0.257424         1
        18        17        16        34     9      180.000000       11.519768         2
        18        17        16        34     9        0.000000       -0.128143         3
        18        17        16        34     9      180.000000       -0.026646         4
        18        17        21        22     9        0.000000       -0.020450         1
        18        17        21        22     9      180.000000       25.489961         2
        18        17        21        22     9        0.000000       -5.933806         3
        18        17        21        22     9      180.000000       -0.501548         4
        18        17        21        38     9        0.000000        0.413459         1
        18        17        21        38     9      180.000000        3.549096         2
        18        17        21        38     9        0.000000        0.798194         3
        18        17        21        38     9      180.000000        0.081140         4
        18        19        20        36     9        0.000000        0.098011         1
        18        19        20        36     9      180.000000       17.117074         2
        18        19        20        36     9        0.000000       -0.434336         3
        18        19        20        36     9      180.000000       -0.098762         4
        18        23        22        21     9        0.000000       -0.396956         1
        18        23        22        21     9      180.000000       40.614410         2
        18        23        22        21     9        0.000000       -5.312726         3
        18        23        22        21     9      180.000000       -0.171195         4
        19        18        17        21     9        0.000000        0.376507         1
        19        18        17        21     9      180.000000       10.083282         2
        19        18        17        21     9        0.000000       -2.691236         3
        19        18        17        21     9      180.000000        0.083688         4
        19        18        23        22     9        0.000000       -0.064050         1
        19        18        23        22     9      180.000000        4.658331         2
        19        18        23        22     9        0.000000       -0.603696         3
        19        18        23        22     9      180.000000        0.042913         4
        19        18        23        37     9        0.000000       -0.478010         1
        19        18        23        37     9      180.000000        4.595711         2
        19        18        23        37     9        0.000000       -0.001731         3
        19        18        23        37     9      180.000000        0.091469         4
        20        15        10        28     9        0.000000       -0.019077         1
        20        15        10        28     9      180.000000        0.015914         2
        20        15        10        28     9        0.000000        0.140146         3
        20        15        10        28     9      180.000000        0.004143         4
        20        15        10        29     9        0.000000       -0.019077         1
        20        15        10        29     9      180.000000        0.015914         2
        20        15        10        29     9        0.000000        0.140146         3
        20        15        10        29     9      180.000000        0.004143         4
        20        15        16        34     9        0.000000        0.045621         1
        20        15        16        34     9      180.000000       15.096036         2
        20        15        16        34     9        0.000000       -0.361479         3
        20        15        16        34     9      180.000000       -0.010925         4
        20        19        18        23     9        0.000000        0.101058         1
        20        19        18        23     9      180.000000       12.163559         2
        20        19        18        23     9        0.000000       -0.790285         3
        20        19        18        23     9      180.000000       -0.117695         4
        21        17        16        34     9        0.000000        0.056925         1
        21        17        16        34     9      180.000000        9.408491         2
        21        17        16        34     9        0.000000        0.030985         3
        21        17        16        34     9      180.000000        0.103009         4
        21        17        18        23     9        0.000000        0.205600         1
        21        17        18        23     9      180.000000       17.350337         2
        21        17        18        23     9        0.000000       -6.766515         3
        21        17        18        23     9      180.000000       -0.211853         4
        21        22        23        37     9        0.000000        1.578327         1
        21        22        23        37     9      180.000000       27.756843         2
        21        22        23        37     9        0.000000        0.421596         3
        21        22        23        37     9      180.000000       -0.130346         4
        22        21        38        39     9        0.000000       -0.009625         1
        22        21        38        39     9      180.000000       -0.009186         2
        22        21        38        39     9        0.000000        0.359486         3
        22        21        38        39     9      180.000000        0.008295         4
        22        21        38        40     9        0.000000       -0.009625         1
        22        21        38        40     9      180.000000       -0.009186         2
        22        21        38        40     9        0.000000        0.359486         3
        22        21        38        40     9      180.000000        0.008295         4
        22        21        38        41     9        0.000000       -0.009625         1
        22        21        38        41     9      180.000000       -0.009186         2
        22        21        38        41     9        0.000000        0.359486         3
        22        21        38        41     9      180.000000        0.008295         4
        23        18        19        35     9        0.000000        0.017156         1
        23        18        19        35     9      180.000000        9.259420         2
        23        18        19        35     9        0.000000       -0.015070         3
        23        18        19        35     9      180.000000        0.060129         4
        23        22        21        38     9        0.000000        1.105729         1
        23        22        21        38     9      180.000000        7.038710         2
        23        22        21        38     9        0.000000        0.628903         3
        23        22        21        38     9      180.000000        0.056652         4
        25         3         4        26     9        0.000000       -0.052824         1
        25         3         4        26     9      180.000000       12.555027         2
        25         3         4        26     9        0.000000       -0.658769         3
        25         3         4        26     9      180.000000        0.295185         4
        30        11        12        31     9        0.000000       -0.030955         1
        30        11        12        31     9      180.000000        0.024930         2
        30        11        12        31     9        0.000000        0.474233         3
        30        11        12        31     9      180.000000       -0.000107         4
        30        11        12        32     9        0.000000       -0.030955         1
        30        11        12        32     9      180.000000        0.024929         2
        30        11        12        32     9        0.000000        0.474233         3
        30        11        12        32     9      180.000000       -0.000106         4
        30        11        12        33     9        0.000000       -0.030955         1
        30        11        12        33     9      180.000000        0.024929         2
        30        11        12        33     9        0.000000        0.474233         3
        30        11        12        33     9      180.000000       -0.000106         4
        35        19        20        36     9        0.000000       -0.073016         1
        35        19        20        36     9      180.000000       12.936494         2
        35        19        20        36     9        0.000000       -0.707779         3
        35        19        20        36     9      180.000000        0.294422         4

[ dihedrals ] ; impropers
;       ai        aj        ak        al funct           phase               k        pn
        13         1        11        14     4      180.000000       27.893333         2
        13        11        14         1     4      180.000000       27.893333         2
        13        14         1        11     4      180.000000       27.893333         2
        16        15        17        34     4      180.000000        1.925197         2
        16        17        34        15     4      180.000000        1.925197         2
        16        34        15        17     4      180.000000        1.925197         2
        19        18        20        35     4      180.000000        2.760679         2
        19        20        35        18     4      180.000000        2.760679         2
        19        35        18        20     4      180.000000        2.760679         2

[ pairs ]
;       ai        aj funct
         1         5     1
         1         7     1
         1        12     1
         1        25     1
         1        30     1
         2         3     1
         2         8     1
         2         9     1
         2        10     1
         2        11     1
         2        14     1
         2        26     1
         3         7     1
         3         8     1
         3        13     1
         3        27     1
         4         6     1
         4         9     1
         4        11     1
         4        14     1
         4        24     1
         5        10     1
         5        24     1
         5        26     1
         6        13     1
         6        15     1
         6        25     1
         6        27     1
         6        28     1
         6        29     1
         7        16     1
         7        20     1
         7        24     1
         7        27     1
         8        15     1
         8        28     1
         8        29     1
         9        10     1
         9        25     1
        10        17     1
        10        19     1
        10        34     1
        10        36     1
        12        14     1
        13        24     1
        13        26     1
        13        31     1
        13        32     1
        13        33     1
        14        30     1
        15        18     1
        15        21     1
        15        35     1
        16        19     1
        16        22     1
        16        23     1
        16        28     1
        16        29     1
        16        36     1
        16        38     1
        17        20     1
        17        35     1
        17        37     1
        17        39     1
        17        40     1
        17        41     1
        18        34     1
        18        36     1
        18        38     1
        19        21     1
        19        22     1
        19        37     1
        20        23     1
        20        28     1
        20        29     1
        20        34     1
        21        34     1
        21        37     1
        22        39     1
        22        40     1
        22        41     1
        23        35     1
        23        38     1
        25        26     1
        30        31     1
        30        32     1
        30        33     1
        35        36     1
