; ITP file created by ByteFF-ML, 2026-02-21 07:34:24.648584

[ atomtypes ]
;name           bonded.type        at.num        mass        charge   ptype           sigma         epsilon
 c0bf                                   6      0.0000       0.00000       A     3.31378e-01     4.12993e-01
 c1bf                                   6      0.0000       0.00000       A     3.31393e-01     4.13866e-01
 c2bf                                   6      0.0000       0.00000       A     3.31517e-01     4.12482e-01
 c3bf                                   6      0.0000       0.00000       A     3.31519e-01     4.12686e-01
 c4bf                                   6      0.0000       0.00000       A     3.31529e-01     4.12453e-01
 c5bf                                   6      0.0000       0.00000       A     3.31500e-01     4.11950e-01
 c6bf                                   6      0.0000       0.00000       A     3.31449e-01     4.11690e-01
 n7bf                                   7      0.0000       0.00000       A     3.38151e-01     3.91342e-01
 n8bf                                   7      0.0000       0.00000       A     3.20440e-01     8.58154e-01
 c9bf                                   6      0.0000       0.00000       A     3.39884e-01     4.51119e-01
 n10bf                                  7      0.0000       0.00000       A     3.27127e-01     4.92119e-01
 c11bf                                  6      0.0000       0.00000       A     3.39836e-01     4.51204e-01
 c12bf                                  6      0.0000       0.00000       A     3.31522e-01     4.13463e-01
 o13bf                                  8      0.0000       0.00000       A     3.04756e-01     6.10859e-01
 c14bf                                  6      0.0000       0.00000       A     3.31494e-01     4.13368e-01
 c15bf                                  6      0.0000       0.00000       A     3.31479e-01     4.12962e-01
 c16bf                                  6      0.0000       0.00000       A     3.31328e-01     4.11816e-01
 c17bf                                  6      0.0000       0.00000       A     3.31571e-01     4.13358e-01
 c18bf                                  6      0.0000       0.00000       A     3.31458e-01     4.13224e-01
 c19bf                                  6      0.0000       0.00000       A     3.31557e-01     4.13813e-01
 c20bf                                  6      0.0000       0.00000       A     3.31430e-01     4.12873e-01
 n21bf                                  7      0.0000       0.00000       A     3.38413e-01     3.94987e-01
 n22bf                                  7      0.0000       0.00000       A     3.20564e-01     8.53149e-01
 c23bf                                  6      0.0000       0.00000       A     3.39827e-01     4.50277e-01
 h24bf                                  1      0.0000       0.00000       A     2.62417e-01     6.67524e-02
 h25bf                                  1      0.0000       0.00000       A     2.62471e-01     6.70892e-02
 h26bf                                  1      0.0000       0.00000       A     2.62589e-01     6.73302e-02
 h27bf                                  1      0.0000       0.00000       A     1.10602e-01     4.12983e-02
 h28bf                                  1      0.0000       0.00000       A     2.60095e-01     8.81477e-02
 h29bf                                  1      0.0000       0.00000       A     2.60095e-01     8.81477e-02
 h30bf                                  1      0.0000       0.00000       A     1.10511e-01     4.11227e-02
 h31bf                                  1      0.0000       0.00000       A     2.41960e-01     8.71613e-02
 h32bf                                  1      0.0000       0.00000       A     2.41960e-01     8.71613e-02
 h33bf                                  1      0.0000       0.00000       A     2.41960e-01     8.71613e-02
 h34bf                                  1      0.0000       0.00000       A     2.62434e-01     6.79191e-02
 h35bf                                  1      0.0000       0.00000       A     2.62520e-01     6.70780e-02
 h36bf                                  1      0.0000       0.00000       A     2.62456e-01     6.73238e-02
 h37bf                                  1      0.0000       0.00000       A     2.53922e-01     6.68561e-02
 h38bf                                  1      0.0000       0.00000       A     2.41917e-01     8.73385e-02
 h39bf                                  1      0.0000       0.00000       A     2.41917e-01     8.73385e-02
 h40bf                                  1      0.0000       0.00000       A     2.41917e-01     8.73385e-02

[ moleculetype ]
;name             nrexcl
 18                    3

[ atoms ]
;       nr            type      resi   res      atom      cgnr      charge          mass ; qtot
         1            c0bf         1   UNL        c0         1    -0.19580       12.0110 ; qtot   -0.196
         2            c1bf         1   UNL        c1         2     0.01759       12.0110 ; qtot   -0.178
         3            c2bf         1   UNL        c2         3    -0.14960       12.0110 ; qtot   -0.328
         4            c3bf         1   UNL        c3         4    -0.03870       12.0110 ; qtot   -0.367
         5            c4bf         1   UNL        c4         5    -0.00053       12.0110 ; qtot   -0.367
         6            c5bf         1   UNL        c5         6    -0.23510       12.0110 ; qtot   -0.602
         7            c6bf         1   UNL        c6         7     0.35962       12.0110 ; qtot   -0.243
         8            n7bf         1   UNL        n7         8    -0.50667       14.0070 ; qtot   -0.749
         9            n8bf         1   UNL        n8         9    -0.08032       14.0070 ; qtot   -0.830
        10            c9bf         1   UNL        c9        10    -0.03805       12.0110 ; qtot   -0.868
        11           n10bf         1   UNL       n10        11    -0.50498       14.0070 ; qtot   -1.373
        12           c11bf         1   UNL       c11        12     0.08379       12.0110 ; qtot   -1.289
        13           c12bf         1   UNL       c12        13     0.60434       12.0110 ; qtot   -0.684
        14           o13bf         1   UNL       o13        14    -0.60022       15.9990 ; qtot   -1.285
        15           c14bf         1   UNL       c14        15    -0.12142       12.0110 ; qtot   -1.406
        16           c15bf         1   UNL       c15        16    -0.02647       12.0110 ; qtot   -1.433
        17           c16bf         1   UNL       c16        17    -0.24004       12.0110 ; qtot   -1.673
        18           c17bf         1   UNL       c17        18    -0.02314       12.0110 ; qtot   -1.696
        19           c18bf         1   UNL       c18        19    -0.13840       12.0110 ; qtot   -1.834
        20           c19bf         1   UNL       c19        20    -0.07001       12.0110 ; qtot   -1.904
        21           c20bf         1   UNL       c20        21     0.35977       12.0110 ; qtot   -1.544
        22           n21bf         1   UNL       n21        22    -0.51470       14.0070 ; qtot   -2.059
        23           n22bf         1   UNL       n22        23     0.05231       14.0070 ; qtot   -2.007
        24           c23bf         1   UNL       c23        24     0.07854       12.0110 ; qtot   -1.928
        25           h24bf         1   UNL       h24        25     0.13756        1.0080 ; qtot   -1.791
        26           h25bf         1   UNL       h25        26     0.12872        1.0080 ; qtot   -1.662
        27           h26bf         1   UNL       h26        27     0.12755        1.0080 ; qtot   -1.534
        28           h27bf         1   UNL       h27        28     0.37621        1.0080 ; qtot   -1.158
        29           h28bf         1   UNL       h28        29     0.06213        1.0080 ; qtot   -1.096
        30           h29bf         1   UNL       h29        30     0.06213        1.0080 ; qtot   -1.034
        31           h30bf         1   UNL       h30        31     0.31254        1.0080 ; qtot   -0.721
        32           h31bf         1   UNL       h31        32     0.04497        1.0080 ; qtot   -0.676
        33           h32bf         1   UNL       h32        33     0.04497        1.0080 ; qtot   -0.631
        34           h33bf         1   UNL       h33        34     0.04497        1.0080 ; qtot   -0.586
        35           h34bf         1   UNL       h34        35     0.12685        1.0080 ; qtot   -0.460
        36           h35bf         1   UNL       h35        36     0.12371        1.0080 ; qtot   -0.336
        37           h36bf         1   UNL       h36        37     0.12013        1.0080 ; qtot   -0.216
        38           h37bf         1   UNL       h37        38     0.04782        1.0080 ; qtot   -0.168
        39           h38bf         1   UNL       h38        39     0.05599        1.0080 ; qtot   -0.112
        40           h39bf         1   UNL       h39        40     0.05599        1.0080 ; qtot   -0.056
        41           h40bf         1   UNL       h40        41     0.05595        1.0080 ; qtot   -0.000

[ bonds ]
;       ai        aj funct               r               k
         1         2     1        0.139322   312548.937012
         1         4     1        0.142259   260495.523340
         1        13     1        0.150119   175785.266968
         2         6     1        0.140342   306472.126465
         2        25     1        0.108524   322040.365527
         3         4     1        0.138622   347050.005908
         3         5     1        0.140635   300350.677051
         3        26     1        0.108557   321190.184082
         4        27     1        0.108489   322025.043262
         5         6     1        0.141869   251815.842920
         5         9     1        0.136842   290575.199268
         6         7     1        0.143786   232820.728076
         7         8     1        0.132648   371349.331592
         7        10     1        0.150274   213698.923633
         8         9     1        0.136401   241851.313916
         9        28     1        0.100927   434980.632227
        10        15     1        0.151997   190226.438477
        10        29     1        0.109489   294935.201025
        10        30     1        0.109489   294935.201025
        11        12     1        0.145884   219533.387012
        11        13     1        0.137271   291155.172559
        11        31     1        0.101035   426422.610596
        12        32     1        0.109290   302707.599023
        12        33     1        0.109290   302707.599023
        12        34     1        0.109290   302707.599023
        13        14     1        0.123395   590117.754492
        15        16     1        0.138985   315913.732080
        15        20     1        0.142105   257155.422656
        16        17     1        0.140860   300474.659717
        16        35     1        0.108645   318249.279492
        17        18     1        0.142106   247674.617578
        17        21     1        0.143093   251677.763770
        18        19     1        0.140684   297899.318848
        18        23     1        0.137036   276502.592090
        19        20     1        0.138749   339792.461572
        19        36     1        0.108555   320681.459326
        20        37     1        0.108656   317559.522168
        21        22     1        0.132641   379076.656592
        21        38     1        0.108271   330986.934277
        22        23     1        0.136411   226978.246045
        23        24     1        0.144916   228881.271436
        24        39     1        0.109267   303150.591260
        24        40     1        0.109267   303150.591260
        24        41     1        0.109267   303150.591260

[ angles ]
;       ai        aj        ak funct           theta             cth
         1         2         6     1      118.819092      666.476035
         1         2        25     1      120.117737      400.157630
         1         4         3     1      122.084206      616.058886
         1         4        27     1      118.782700      417.101246
         1        13        11     1      116.330872      512.105773
         1        13        14     1      121.916847      607.137497
         2         1         4     1      120.154564      610.309972
         2         1        13     1      119.699440      511.255898
         2         6         5     1      119.751610      753.226554
         2         6         7     1      135.530228      435.136862
         3         4        27     1      119.275345      407.140082
         3         5         6     1      121.826454      612.816631
         3         5         9     1      132.490311      480.939423
         4         1        13     1      120.242409      578.872386
         4         3         5     1      117.047997      762.793649
         4         3        26     1      121.191063      439.898990
         5         3        26     1      121.912209      436.763288
         5         6         7     1      104.810692      488.518933
         5         9         8     1      112.338623      425.015069
         5         9        28     1      128.734390      380.960906
         6         2        25     1      121.013916      408.365225
         6         5         9     1      105.797852      167.360000
         6         7         8     1      110.700706      353.727302
         6         7        10     1      127.829422      446.578253
         7         8         9     1      106.501038      544.543233
         7        10        15     1      113.257324      514.984604
         7        10        29     1      108.482384      513.884625
         7        10        30     1      108.482384      513.884625
         8         7        10     1      121.631851      449.366554
         8         9        28     1      118.789017      482.596877
        10        15        16     1      120.770676      447.780636
        10        15        20     1      119.654579      515.390771
        11        12        32     1      110.029320      493.640241
        11        12        33     1      110.029320      493.640241
        11        12        34     1      110.029320      493.640241
        11        13        14     1      121.648376      574.362405
        12        11        13     1      120.285622      524.469820
        12        11        31     1      117.871620      428.240885
        13        11        31     1      117.856812      419.313622
        15        10        29     1      109.738464      491.211662
        15        10        30     1      109.738464      491.211662
        15        16        17     1      119.124245      690.083433
        15        16        35     1      120.385292      379.597543
        15        20        19     1      122.351158      638.178428
        15        20        37     1      118.692238      398.132984
        16        15        20     1      119.857811      675.831300
        16        17        18     1      119.673256      745.940114
        16        17        21     1      136.228241      467.982532
        17        16        35     1      120.733803      405.996179
        17        18        19     1      121.680832      628.233703
        17        18        23     1      106.429855      167.360000
        17        21        22     1      111.200684      374.092956
        17        21        38     1      129.112213      351.438603
        18        17        21     1      104.156937      405.356921
        18        19        20     1      117.142593      781.145637
        18        19        36     1      121.966003      423.035656
        18        23        22     1      111.620140      448.620807
        18        23        24     1      127.753769      475.761359
        19        18        23     1      131.870255      459.750901
        19        20        37     1      119.160912      418.881183
        20        19        36     1      121.033058      426.416162
        21        22        23     1      106.528038      506.623977
        22        21        38     1      119.544434      397.727263
        22        23        24     1      120.299301      539.922485
        23        24        39     1      109.812828      469.144215
        23        24        40     1      109.812828      469.144215
        23        24        41     1      109.812828      469.144215
        29        10        30     1      106.946144      364.204732
        32        12        33     1      108.965477      342.583387
        32        12        34     1      108.965477      342.583387
        33        12        34     1      108.965477      342.583387
        39        24        40     1      109.288673      350.199638
        39        24        41     1      109.288673      350.199638
        40        24        41     1      109.288673      350.199638

[ dihedrals ] ; propers for gromacs 4.5 or higher, use funct 9
;       ai        aj        ak        al funct           phase               k        pn
         1         2         6         5     9        0.000000       -0.090667         1
         1         2         6         5     9      180.000000       19.620490         2
         1         2         6         5     9        0.000000       -2.393207         3
         1         2         6         5     9      180.000000       -0.485549         4
         1         2         6         7     9        0.000000       -0.377835         1
         1         2         6         7     9      180.000000       13.966874         2
         1         2         6         7     9        0.000000       -1.031492         3
         1         2         6         7     9      180.000000       -0.251759         4
         1         4         3         5     9        0.000000       -0.096886         1
         1         4         3         5     9      180.000000       22.112872         2
         1         4         3         5     9        0.000000       -1.551136         3
         1         4         3         5     9      180.000000       -0.670671         4
         1         4         3        26     9        0.000000        0.027742         1
         1         4         3        26     9      180.000000       14.732066         2
         1         4         3        26     9        0.000000       -0.475106         3
         1         4         3        26     9      180.000000        0.121735         4
         1        13        11        12     9        0.000000        2.438957         1
         1        13        11        12     9      180.000000       10.071367         2
         1        13        11        12     9        0.000000        1.322512         3
         1        13        11        12     9      180.000000       -0.187267         4
         1        13        11        31     9        0.000000       -0.318162         1
         1        13        11        31     9      180.000000        9.608922         2
         1        13        11        31     9        0.000000        0.517511         3
         1        13        11        31     9      180.000000        0.452021         4
         2         1         4         3     9        0.000000        0.076556         1
         2         1         4         3     9      180.000000       16.939495         2
         2         1         4         3     9        0.000000       -1.251516         3
         2         1         4         3     9      180.000000       -0.335693         4
         2         1         4        27     9        0.000000        0.048532         1
         2         1         4        27     9      180.000000       12.747912         2
         2         1         4        27     9        0.000000       -0.654503         3
         2         1         4        27     9      180.000000        0.093805         4
         2         1        13        11     9        0.000000       -0.468574         1
         2         1        13        11     9      180.000000        2.834047         2
         2         1        13        11     9        0.000000        0.253169         3
         2         1        13        11     9      180.000000       -0.432898         4
         2         1        13        14     9        0.000000        0.339003         1
         2         1        13        14     9      180.000000        3.563692         2
         2         1        13        14     9        0.000000        0.027822         3
         2         1        13        14     9      180.000000        0.003414         4
         2         6         5         3     9        0.000000       -0.271394         1
         2         6         5         3     9      180.000000       10.535755         2
         2         6         5         3     9        0.000000       -1.569540         3
         2         6         5         3     9      180.000000       -0.058197         4
         2         6         5         9     9        0.000000        0.323941         1
         2         6         5         9     9      180.000000        8.892708         2
         2         6         5         9     9        0.000000       -1.879982         3
         2         6         5         9     9      180.000000        0.119936         4
         2         6         7         8     9        0.000000       -0.222524         1
         2         6         7         8     9      180.000000        3.997878         2
         2         6         7         8     9        0.000000       -0.847176         3
         2         6         7         8     9      180.000000        0.034907         4
         2         6         7        10     9        0.000000       -0.415768         1
         2         6         7        10     9      180.000000        4.312250         2
         2         6         7        10     9        0.000000        0.228881         3
         2         6         7        10     9      180.000000        0.068596         4
         3         4         1        13     9        0.000000        0.172686         1
         3         4         1        13     9      180.000000       13.233951         2
         3         4         1        13     9        0.000000       -0.069259         3
         3         4         1        13     9      180.000000       -0.292980         4
         3         5         6         7     9        0.000000       -0.011403         1
         3         5         6         7     9      180.000000       11.291051         2
         3         5         6         7     9        0.000000       -2.381223         3
         3         5         6         7     9      180.000000       -0.023842         4
         3         5         9         8     9        0.000000        1.388441         1
         3         5         9         8     9      180.000000        5.518131         2
         3         5         9         8     9        0.000000        0.436876         3
         3         5         9         8     9      180.000000       -0.035399         4
         3         5         9        28     9        0.000000       -0.166869         1
         3         5         9        28     9      180.000000        1.510508         2
         3         5         9        28     9        0.000000        0.105208         3
         3         5         9        28     9      180.000000       -0.109495         4
         4         1         2         6     9        0.000000       -0.086851         1
         4         1         2         6     9      180.000000       20.821151         2
         4         1         2         6     9        0.000000       -1.577894         3
         4         1         2         6     9      180.000000       -0.636342         4
         4         1         2        25     9        0.000000        0.092699         1
         4         1         2        25     9      180.000000       14.782194         2
         4         1         2        25     9        0.000000       -0.450680         3
         4         1         2        25     9      180.000000       -0.020114         4
         4         1        13        11     9        0.000000        0.172034         1
         4         1        13        11     9      180.000000        3.050326         2
         4         1        13        11     9        0.000000        0.236605         3
         4         1        13        11     9      180.000000       -0.405162         4
         4         1        13        14     9        0.000000       -0.616433         1
         4         1        13        14     9      180.000000        3.769198         2
         4         1        13        14     9        0.000000        0.065461         3
         4         1        13        14     9      180.000000        0.014325         4
         4         3         5         6     9        0.000000       -0.143088         1
         4         3         5         6     9      180.000000       16.991253         2
         4         3         5         6     9        0.000000       -1.861123         3
         4         3         5         6     9      180.000000       -0.342420         4
         4         3         5         9     9        0.000000        0.243557         1
         4         3         5         9     9      180.000000       13.450507         2
         4         3         5         9     9        0.000000       -0.035851         3
         4         3         5         9     9      180.000000       -0.101953         4
         5         3         4        27     9        0.000000        0.128968         1
         5         3         4        27     9      180.000000       17.238455         2
         5         3         4        27     9        0.000000       -0.509989         3
         5         3         4        27     9      180.000000       -0.112149         4
         5         6         2        25     9        0.000000        0.332487         1
         5         6         2        25     9      180.000000       14.422248         2
         5         6         2        25     9        0.000000       -0.300372         3
         5         6         2        25     9      180.000000       -0.198783         4
         5         6         7         8     9        0.000000       -0.158043         1
         5         6         7         8     9      180.000000       30.934186         2
         5         6         7         8     9        0.000000       -9.488516         3
         5         6         7         8     9      180.000000       -0.194501         4
         5         6         7        10     9        0.000000        0.907669         1
         5         6         7        10     9      180.000000       14.505475         2
         5         6         7        10     9        0.000000        0.097673         3
         5         6         7        10     9      180.000000       -0.589938         4
         5         9         8         7     9        0.000000       -0.212417         1
         5         9         8         7     9      180.000000       17.202000         2
         5         9         8         7     9        0.000000       -2.172826         3
         5         9         8         7     9      180.000000       -1.162576         4
         6         2         1        13     9        0.000000        0.112814         1
         6         2         1        13     9      180.000000       17.265715         2
         6         2         1        13     9        0.000000       -0.178159         3
         6         2         1        13     9      180.000000       -0.696544         4
         6         5         3        26     9        0.000000        0.120539         1
         6         5         3        26     9      180.000000       11.348855         2
         6         5         3        26     9        0.000000       -0.291248         3
         6         5         3        26     9      180.000000        0.001313         4
         6         5         9         8     9        0.000000        0.392748         1
         6         5         9         8     9      180.000000       24.691452         2
         6         5         9         8     9        0.000000       -5.027374         3
         6         5         9         8     9      180.000000       -1.038516         4
         6         5         9        28     9        0.000000        0.295809         1
         6         5         9        28     9      180.000000        1.575659         2
         6         5         9        28     9        0.000000        0.501314         3
         6         5         9        28     9      180.000000        0.027061         4
         6         7         8         9     9        0.000000       -0.265633         1
         6         7         8         9     9      180.000000       41.406879         2
         6         7         8         9     9        0.000000       -4.757213         3
         6         7         8         9     9      180.000000       -0.128869         4
         6         7        10        15     9        0.000000        0.309607         1
         6         7        10        15     9      180.000000       -0.370246         2
         6         7        10        15     9        0.000000        0.618257         3
         6         7        10        15     9      180.000000        0.013353         4
         6         7        10        29     9        0.000000       -0.066805         1
         6         7        10        29     9      180.000000        0.142975         2
         6         7        10        29     9        0.000000        0.525819         3
         6         7        10        29     9      180.000000        0.016036         4
         6         7        10        30     9        0.000000       -0.066805         1
         6         7        10        30     9      180.000000        0.142975         2
         6         7        10        30     9        0.000000        0.525819         3
         6         7        10        30     9      180.000000        0.016036         4
         7         6         2        25     9        0.000000       -0.041247         1
         7         6         2        25     9      180.000000        9.775547         2
         7         6         2        25     9        0.000000       -0.000804         3
         7         6         2        25     9      180.000000        0.054552         4
         7         6         5         9     9        0.000000        0.172109         1
         7         6         5         9     9      180.000000       17.410180         2
         7         6         5         9     9        0.000000       -6.323893         3
         7         6         5         9     9      180.000000       -0.233081         4
         7         8         9        28     9        0.000000        2.361158         1
         7         8         9        28     9      180.000000        2.980257         2
         7         8         9        28     9        0.000000        0.434237         3
         7         8         9        28     9      180.000000        0.025133         4
         7        10        15        16     9        0.000000       -0.041230         1
         7        10        15        16     9      180.000000        0.067239         2
         7        10        15        16     9        0.000000       -0.153176         3
         7        10        15        16     9      180.000000        0.064302         4
         7        10        15        20     9        0.000000       -0.099781         1
         7        10        15        20     9      180.000000        0.037192         2
         7        10        15        20     9        0.000000        0.227242         3
         7        10        15        20     9      180.000000        0.016814         4
         8         7        10        15     9        0.000000       -1.261962         1
         8         7        10        15     9      180.000000       -0.168968         2
         8         7        10        15     9        0.000000        0.041303         3
         8         7        10        15     9      180.000000        0.010698         4
         8         7        10        29     9        0.000000        0.223715         1
         8         7        10        29     9      180.000000        0.093023         2
         8         7        10        29     9        0.000000       -0.189378         3
         8         7        10        29     9      180.000000        0.040775         4
         8         7        10        30     9        0.000000        0.223715         1
         8         7        10        30     9      180.000000        0.093023         2
         8         7        10        30     9        0.000000       -0.189378         3
         8         7        10        30     9      180.000000        0.040775         4
         9         5         3        26     9        0.000000       -0.114805         1
         9         5         3        26     9      180.000000        9.684382         2
         9         5         3        26     9        0.000000       -0.071654         3
         9         5         3        26     9      180.000000        0.059257         4
         9         8         7        10     9        0.000000        0.476446         1
         9         8         7        10     9      180.000000       32.353064         2
         9         8         7        10     9        0.000000        0.815797         3
         9         8         7        10     9      180.000000       -0.851938         4
        10        15        16        17     9        0.000000        0.009257         1
        10        15        16        17     9      180.000000       18.674644         2
        10        15        16        17     9        0.000000       -0.120348         3
        10        15        16        17     9      180.000000       -0.670552         4
        10        15        16        35     9        0.000000       -0.055554         1
        10        15        16        35     9      180.000000       13.186443         2
        10        15        16        35     9        0.000000       -0.327489         3
        10        15        16        35     9      180.000000        0.127685         4
        10        15        20        19     9        0.000000        0.041301         1
        10        15        20        19     9      180.000000       14.360254         2
        10        15        20        19     9        0.000000       -0.129779         3
        10        15        20        19     9      180.000000       -0.172532         4
        10        15        20        37     9        0.000000       -0.054024         1
        10        15        20        37     9      180.000000       12.258338         2
        10        15        20        37     9        0.000000       -0.375148         3
        10        15        20        37     9      180.000000        0.148638         4
        12        11        13        14     9        0.000000       -3.020102         1
        12        11        13        14     9      180.000000        8.882419         2
        12        11        13        14     9        0.000000       -0.102929         3
        12        11        13        14     9      180.000000       -0.352841         4
        13         1         2        25     9        0.000000        0.155535         1
        13         1         2        25     9      180.000000       13.151942         2
        13         1         2        25     9        0.000000       -0.162661         3
        13         1         2        25     9      180.000000        0.043311         4
        13         1         4        27     9        0.000000        0.154988         1
        13         1         4        27     9      180.000000       12.143465         2
        13         1         4        27     9        0.000000       -0.227162         3
        13         1         4        27     9      180.000000        0.016836         4
        13        11        12        32     9        0.000000       -0.014512         1
        13        11        12        32     9      180.000000        0.029105         2
        13        11        12        32     9        0.000000        0.106987         3
        13        11        12        32     9      180.000000        0.015127         4
        13        11        12        33     9        0.000000       -0.014512         1
        13        11        12        33     9      180.000000        0.029105         2
        13        11        12        33     9        0.000000        0.106987         3
        13        11        12        33     9      180.000000        0.015127         4
        13        11        12        34     9        0.000000       -0.014512         1
        13        11        12        34     9      180.000000        0.029105         2
        13        11        12        34     9        0.000000        0.106987         3
        13        11        12        34     9      180.000000        0.015127         4
        14        13        11        31     9        0.000000        0.063890         1
        14        13        11        31     9      180.000000        9.973476         2
        14        13        11        31     9        0.000000        0.345190         3
        14        13        11        31     9      180.000000        0.057674         4
        15        16        17        18     9        0.000000       -0.078803         1
        15        16        17        18     9      180.000000       18.898255         2
        15        16        17        18     9        0.000000       -1.972406         3
        15        16        17        18     9      180.000000       -0.480351         4
        15        16        17        21     9        0.000000       -0.170164         1
        15        16        17        21     9      180.000000       11.866871         2
        15        16        17        21     9        0.000000       -0.652506         3
        15        16        17        21     9      180.000000       -0.093021         4
        15        20        19        18     9        0.000000        0.033895         1
        15        20        19        18     9      180.000000       21.816384         2
        15        20        19        18     9        0.000000       -1.543464         3
        15        20        19        18     9      180.000000       -0.527859         4
        15        20        19        36     9        0.000000        0.042383         1
        15        20        19        36     9      180.000000       15.365328         2
        15        20        19        36     9        0.000000       -0.513372         3
        15        20        19        36     9      180.000000        0.030415         4
        16        15        10        29     9        0.000000        0.000215         1
        16        15        10        29     9      180.000000        0.010257         2
        16        15        10        29     9        0.000000       -0.173531         3
        16        15        10        29     9      180.000000       -0.005921         4
        16        15        10        30     9        0.000000        0.000215         1
        16        15        10        30     9      180.000000        0.010257         2
        16        15        10        30     9        0.000000       -0.173531         3
        16        15        10        30     9      180.000000       -0.005921         4
        16        15        20        19     9        0.000000       -0.058867         1
        16        15        20        19     9      180.000000       17.386450         2
        16        15        20        19     9        0.000000       -1.187962         3
        16        15        20        19     9      180.000000       -0.362341         4
        16        15        20        37     9        0.000000        0.110685         1
        16        15        20        37     9      180.000000       13.351948         2
        16        15        20        37     9        0.000000       -0.633175         3
        16        15        20        37     9      180.000000        0.063514         4
        16        17        18        19     9        0.000000       -0.018008         1
        16        17        18        19     9      180.000000       10.863879         2
        16        17        18        19     9        0.000000       -1.423270         3
        16        17        18        19     9      180.000000       -0.061566         4
        16        17        18        23     9        0.000000        0.334963         1
        16        17        18        23     9      180.000000       10.266972         2
        16        17        18        23     9        0.000000       -2.541747         3
        16        17        18        23     9      180.000000        0.093713         4
        16        17        21        22     9        0.000000        0.245815         1
        16        17        21        22     9      180.000000        4.612387         2
        16        17        21        22     9        0.000000       -0.489837         3
        16        17        21        22     9      180.000000        0.041425         4
        16        17        21        38     9        0.000000       -0.462277         1
        16        17        21        38     9      180.000000        4.704010         2
        16        17        21        38     9        0.000000        0.076634         3
        16        17        21        38     9      180.000000        0.101219         4
        17        16        15        20     9        0.000000       -0.065722         1
        17        16        15        20     9      180.000000       21.557267         2
        17        16        15        20     9        0.000000       -1.402324         3
        17        16        15        20     9      180.000000       -0.641113         4
        17        18        19        20     9        0.000000       -0.188055         1
        17        18        19        20     9      180.000000       17.214779         2
        17        18        19        20     9        0.000000       -1.939364         3
        17        18        19        20     9      180.000000       -0.295283         4
        17        18        19        36     9        0.000000        0.112344         1
        17        18        19        36     9      180.000000       11.517713         2
        17        18        19        36     9        0.000000       -0.192778         3
        17        18        19        36     9      180.000000       -0.040451         4
        17        18        23        22     9        0.000000       -0.084196         1
        17        18        23        22     9      180.000000       25.294064         2
        17        18        23        22     9        0.000000       -6.105160         3
        17        18        23        22     9      180.000000       -0.410273         4
        17        18        23        24     9        0.000000        0.278065         1
        17        18        23        24     9      180.000000        3.350610         2
        17        18        23        24     9        0.000000        0.761433         3
        17        18        23        24     9      180.000000        0.095820         4
        17        21        22        23     9        0.000000       -0.280636         1
        17        21        22        23     9      180.000000       41.456002         2
        17        21        22        23     9        0.000000       -5.327205         3
        17        21        22        23     9      180.000000       -0.203316         4
        18        17        16        35     9        0.000000        0.423329         1
        18        17        16        35     9      180.000000       13.268963         2
        18        17        16        35     9        0.000000       -0.163072         3
        18        17        16        35     9      180.000000       -0.109449         4
        18        17        21        22     9        0.000000       -0.103929         1
        18        17        21        22     9      180.000000       30.729596         2
        18        17        21        22     9        0.000000       -9.652094         3
        18        17        21        22     9      180.000000       -0.336765         4
        18        17        21        38     9        0.000000        0.934169         1
        18        17        21        38     9      180.000000       12.774197         2
        18        17        21        38     9        0.000000        0.452474         3
        18        17        21        38     9      180.000000       -0.324343         4
        18        19        20        37     9        0.000000        0.075035         1
        18        19        20        37     9      180.000000       17.271072         2
        18        19        20        37     9        0.000000       -0.368368         3
        18        19        20        37     9      180.000000       -0.132390         4
        18        23        22        21     9        0.000000       -0.561709         1
        18        23        22        21     9      180.000000       22.826383         2
        18        23        22        21     9        0.000000       -3.369753         3
        18        23        22        21     9      180.000000       -0.422871         4
        18        23        24        39     9        0.000000        0.014913         1
        18        23        24        39     9      180.000000        0.019882         2
        18        23        24        39     9        0.000000        0.542826         3
        18        23        24        39     9      180.000000       -0.005521         4
        18        23        24        40     9        0.000000        0.014913         1
        18        23        24        40     9      180.000000        0.019882         2
        18        23        24        40     9        0.000000        0.542826         3
        18        23        24        40     9      180.000000       -0.005521         4
        18        23        24        41     9        0.000000        0.014913         1
        18        23        24        41     9      180.000000        0.019882         2
        18        23        24        41     9        0.000000        0.542826         3
        18        23        24        41     9      180.000000       -0.005521         4
        19        18        17        21     9        0.000000        0.000872         1
        19        18        17        21     9      180.000000        9.880126         2
        19        18        17        21     9        0.000000       -2.020836         3
        19        18        17        21     9      180.000000        0.107998         4
        19        18        23        22     9        0.000000        1.125085         1
        19        18        23        22     9      180.000000        4.562915         2
        19        18        23        22     9        0.000000        0.638073         3
        19        18        23        22     9      180.000000       -0.010920         4
        19        18        23        24     9        0.000000       -0.152730         1
        19        18        23        24     9      180.000000        2.288042         2
        19        18        23        24     9        0.000000        0.087417         3
        19        18        23        24     9      180.000000       -0.011101         4
        20        15        10        29     9        0.000000        0.002170         1
        20        15        10        29     9      180.000000       -0.010324         2
        20        15        10        29     9        0.000000        0.129496         3
        20        15        10        29     9      180.000000        0.006624         4
        20        15        10        30     9        0.000000        0.002170         1
        20        15        10        30     9      180.000000       -0.010324         2
        20        15        10        30     9        0.000000        0.129496         3
        20        15        10        30     9      180.000000        0.006624         4
        20        15        16        35     9        0.000000        0.121884         1
        20        15        16        35     9      180.000000       15.132209         2
        20        15        16        35     9        0.000000       -0.407557         3
        20        15        16        35     9      180.000000       -0.044660         4
        20        19        18        23     9        0.000000        0.338603         1
        20        19        18        23     9      180.000000       13.036899         2
        20        19        18        23     9        0.000000       -0.207217         3
        20        19        18        23     9      180.000000       -0.199472         4
        21        17        16        35     9        0.000000       -0.002975         1
        21        17        16        35     9      180.000000        9.255177         2
        21        17        16        35     9        0.000000        0.038231         3
        21        17        16        35     9      180.000000        0.064808         4
        21        17        18        23     9        0.000000        0.227492         1
        21        17        18        23     9      180.000000       17.510110         2
        21        17        18        23     9        0.000000       -6.848148         3
        21        17        18        23     9      180.000000       -0.205010         4
        21        22        23        24     9        0.000000        1.087048         1
        21        22        23        24     9      180.000000        7.030250         2
        21        22        23        24     9        0.000000        0.652683         3
        21        22        23        24     9      180.000000        0.046222         4
        22        23        24        39     9        0.000000       -0.006792         1
        22        23        24        39     9      180.000000       -0.008435         2
        22        23        24        39     9        0.000000        0.359852         3
        22        23        24        39     9      180.000000        0.009143         4
        22        23        24        40     9        0.000000       -0.006792         1
        22        23        24        40     9      180.000000       -0.008435         2
        22        23        24        40     9        0.000000        0.359852         3
        22        23        24        40     9      180.000000        0.009143         4
        22        23        24        41     9        0.000000       -0.006792         1
        22        23        24        41     9      180.000000       -0.008435         2
        22        23        24        41     9        0.000000        0.359852         3
        22        23        24        41     9      180.000000        0.009143         4
        23        18        19        36     9        0.000000       -0.167821         1
        23        18        19        36     9      180.000000        9.429547         2
        23        18        19        36     9        0.000000       -0.040251         3
        23        18        19        36     9      180.000000        0.108171         4
        23        22        21        38     9        0.000000        1.583699         1
        23        22        21        38     9      180.000000       27.754742         2
        23        22        21        38     9        0.000000        0.409579         3
        23        22        21        38     9      180.000000       -0.110625         4
        26         3         4        27     9        0.000000       -0.052824         1
        26         3         4        27     9      180.000000       12.555027         2
        26         3         4        27     9        0.000000       -0.658769         3
        26         3         4        27     9      180.000000        0.295185         4
        31        11        12        32     9        0.000000       -0.030955         1
        31        11        12        32     9      180.000000        0.024929         2
        31        11        12        32     9        0.000000        0.474233         3
        31        11        12        32     9      180.000000       -0.000106         4
        31        11        12        33     9        0.000000       -0.030955         1
        31        11        12        33     9      180.000000        0.024929         2
        31        11        12        33     9        0.000000        0.474233         3
        31        11        12        33     9      180.000000       -0.000106         4
        31        11        12        34     9        0.000000       -0.030955         1
        31        11        12        34     9      180.000000        0.024929         2
        31        11        12        34     9        0.000000        0.474233         3
        31        11        12        34     9      180.000000       -0.000106         4
        36        19        20        37     9        0.000000       -0.092820         1
        36        19        20        37     9      180.000000       12.773764         2
        36        19        20        37     9        0.000000       -0.678611         3
        36        19        20        37     9      180.000000        0.307460         4

[ dihedrals ] ; impropers
;       ai        aj        ak        al funct           phase               k        pn
        13         1        11        14     4      180.000000       27.893333         2
        13        11        14         1     4      180.000000       27.893333         2
        13        14         1        11     4      180.000000       27.893333         2
        16        15        17        35     4      180.000000        4.601588         2
        16        17        35        15     4      180.000000        4.601588         2
        16        35        15        17     4      180.000000        4.601588         2
        19        18        20        36     4      180.000000        2.152420         2
        19        20        36        18     4      180.000000        2.152420         2
        19        36        18        20     4      180.000000        2.152420         2
        20        15        19        37     4      180.000000        1.055853         2
        20        19        37        15     4      180.000000        1.055853         2
        20        37        15        19     4      180.000000        1.055853         2

[ pairs ]
;       ai        aj funct
         1         5     1
         1         7     1
         1        12     1
         1        26     1
         1        31     1
         2         3     1
         2         8     1
         2         9     1
         2        10     1
         2        11     1
         2        14     1
         2        27     1
         3         7     1
         3         8     1
         3        13     1
         3        28     1
         4         6     1
         4         9     1
         4        11     1
         4        14     1
         4        25     1
         5        10     1
         5        25     1
         5        27     1
         6        13     1
         6        15     1
         6        26     1
         6        28     1
         6        29     1
         6        30     1
         7        16     1
         7        20     1
         7        25     1
         7        28     1
         8        15     1
         8        29     1
         8        30     1
         9        10     1
         9        26     1
        10        17     1
        10        19     1
        10        35     1
        10        37     1
        12        14     1
        13        25     1
        13        27     1
        13        32     1
        13        33     1
        13        34     1
        14        31     1
        15        18     1
        15        21     1
        15        36     1
        16        19     1
        16        22     1
        16        23     1
        16        29     1
        16        30     1
        16        37     1
        16        38     1
        17        20     1
        17        24     1
        17        36     1
        18        35     1
        18        37     1
        18        38     1
        18        39     1
        18        40     1
        18        41     1
        19        21     1
        19        22     1
        19        24     1
        20        23     1
        20        29     1
        20        30     1
        20        35     1
        21        24     1
        21        35     1
        22        39     1
        22        40     1
        22        41     1
        23        36     1
        23        38     1
        26        27     1
        31        32     1
        31        33     1
        31        34     1
        36        37     1
