; ITP file created by ByteFF-ML, 2026-02-21 07:35:56.951282

[ atomtypes ]
;name           bonded.type        at.num        mass        charge   ptype           sigma         epsilon
 c0bf                                   6      0.0000       0.00000       A     3.31378e-01     4.12993e-01
 c1bf                                   6      0.0000       0.00000       A     3.31393e-01     4.13866e-01
 c2bf                                   6      0.0000       0.00000       A     3.31517e-01     4.12482e-01
 c3bf                                   6      0.0000       0.00000       A     3.31519e-01     4.12686e-01
 c4bf                                   6      0.0000       0.00000       A     3.31529e-01     4.12453e-01
 c5bf                                   6      0.0000       0.00000       A     3.31500e-01     4.11950e-01
 c6bf                                   6      0.0000       0.00000       A     3.31450e-01     4.11740e-01
 n7bf                                   7      0.0000       0.00000       A     3.38151e-01     3.91342e-01
 n8bf                                   7      0.0000       0.00000       A     3.20440e-01     8.58154e-01
 c9bf                                   6      0.0000       0.00000       A     3.39892e-01     4.51463e-01
 n10bf                                  7      0.0000       0.00000       A     3.27127e-01     4.92119e-01
 c11bf                                  6      0.0000       0.00000       A     3.39836e-01     4.51204e-01
 c12bf                                  6      0.0000       0.00000       A     3.31522e-01     4.13463e-01
 o13bf                                  8      0.0000       0.00000       A     3.04756e-01     6.10859e-01
 c14bf                                  6      0.0000       0.00000       A     3.31526e-01     4.13182e-01
 c15bf                                  6      0.0000       0.00000       A     3.31408e-01     4.13210e-01
 c16bf                                  6      0.0000       0.00000       A     3.31502e-01     4.12536e-01
 c17bf                                  6      0.0000       0.00000       A     3.31322e-01     4.13227e-01
 c18bf                                  6      0.0000       0.00000       A     3.31502e-01     4.12536e-01
 c19bf                                  6      0.0000       0.00000       A     3.31408e-01     4.13210e-01
 c20bf                                  6      0.0000       0.00000       A     3.31350e-01     4.11687e-01
 c21bf                                  6      0.0000       0.00000       A     3.31475e-01     4.11821e-01
 n22bf                                  7      0.0000       0.00000       A     3.20558e-01     8.54076e-01
 n23bf                                  7      0.0000       0.00000       A     3.38391e-01     3.93249e-01
 c24bf                                  6      0.0000       0.00000       A     3.31594e-01     4.13789e-01
 c25bf                                  6      0.0000       0.00000       A     3.39839e-01     4.51932e-01
 h26bf                                  1      0.0000       0.00000       A     2.62417e-01     6.67524e-02
 h27bf                                  1      0.0000       0.00000       A     2.62471e-01     6.70892e-02
 h28bf                                  1      0.0000       0.00000       A     2.62589e-01     6.73302e-02
 h29bf                                  1      0.0000       0.00000       A     1.10602e-01     4.12983e-02
 h30bf                                  1      0.0000       0.00000       A     2.60090e-01     8.80823e-02
 h31bf                                  1      0.0000       0.00000       A     2.60090e-01     8.80823e-02
 h32bf                                  1      0.0000       0.00000       A     1.10511e-01     4.11227e-02
 h33bf                                  1      0.0000       0.00000       A     2.41960e-01     8.71613e-02
 h34bf                                  1      0.0000       0.00000       A     2.41960e-01     8.71613e-02
 h35bf                                  1      0.0000       0.00000       A     2.41960e-01     8.71613e-02
 h36bf                                  1      0.0000       0.00000       A     2.62498e-01     6.75473e-02
 h37bf                                  1      0.0000       0.00000       A     2.62482e-01     6.74643e-02
 h38bf                                  1      0.0000       0.00000       A     2.62482e-01     6.74643e-02
 h39bf                                  1      0.0000       0.00000       A     2.62498e-01     6.75473e-02
 h40bf                                  1      0.0000       0.00000       A     2.53807e-01     6.74898e-02
 h41bf                                  1      0.0000       0.00000       A     2.53933e-01     6.69200e-02
 h42bf                                  1      0.0000       0.00000       A     2.41990e-01     8.77359e-02
 h43bf                                  1      0.0000       0.00000       A     2.41990e-01     8.77359e-02
 h44bf                                  1      0.0000       0.00000       A     2.41990e-01     8.77359e-02

[ moleculetype ]
;name             nrexcl
 19                    3

[ atoms ]
;       nr            type      resi   res      atom      cgnr      charge          mass ; qtot
         1            c0bf         1   UNL        c0         1    -0.19580       12.0110 ; qtot   -0.196
         2            c1bf         1   UNL        c1         2     0.01759       12.0110 ; qtot   -0.178
         3            c2bf         1   UNL        c2         3    -0.14960       12.0110 ; qtot   -0.328
         4            c3bf         1   UNL        c3         4    -0.03870       12.0110 ; qtot   -0.367
         5            c4bf         1   UNL        c4         5    -0.00053       12.0110 ; qtot   -0.367
         6            c5bf         1   UNL        c5         6    -0.23501       12.0110 ; qtot   -0.602
         7            c6bf         1   UNL        c6         7     0.35947       12.0110 ; qtot   -0.243
         8            n7bf         1   UNL        n7         8    -0.50659       14.0070 ; qtot   -0.749
         9            n8bf         1   UNL        n8         9    -0.08032       14.0070 ; qtot   -0.829
        10            c9bf         1   UNL        c9        10    -0.03975       12.0110 ; qtot   -0.869
        11           n10bf         1   UNL       n10        11    -0.50498       14.0070 ; qtot   -1.374
        12           c11bf         1   UNL       c11        12     0.08379       12.0110 ; qtot   -1.290
        13           c12bf         1   UNL       c12        13     0.60434       12.0110 ; qtot   -0.686
        14           o13bf         1   UNL       o13        14    -0.60022       15.9990 ; qtot   -1.286
        15           c14bf         1   UNL       c14        15    -0.08002       12.0110 ; qtot   -1.366
        16           c15bf         1   UNL       c15        16    -0.10203       12.0110 ; qtot   -1.468
        17           c16bf         1   UNL       c16        17    -0.11007       12.0110 ; qtot   -1.578
        18           c17bf         1   UNL       c17        18     0.00438       12.0110 ; qtot   -1.574
        19           c18bf         1   UNL       c18        19    -0.11007       12.0110 ; qtot   -1.684
        20           c19bf         1   UNL       c19        20    -0.10203       12.0110 ; qtot   -1.786
        21           c20bf         1   UNL       c20        21    -0.16403       12.0110 ; qtot   -1.950
        22           c21bf         1   UNL       c21        22    -0.14400       12.0110 ; qtot   -2.094
        23           n22bf         1   UNL       n22        23     0.11171       14.0070 ; qtot   -1.982
        24           n23bf         1   UNL       n23        24    -0.52174       14.0070 ; qtot   -2.504
        25           c24bf         1   UNL       c24        25     0.25349       12.0110 ; qtot   -2.251
        26           c25bf         1   UNL       c25        26     0.07027       12.0110 ; qtot   -2.180
        27           h26bf         1   UNL       h26        27     0.13756        1.0080 ; qtot   -2.043
        28           h27bf         1   UNL       h27        28     0.12872        1.0080 ; qtot   -1.914
        29           h28bf         1   UNL       h28        29     0.12755        1.0080 ; qtot   -1.787
        30           h29bf         1   UNL       h29        30     0.37621        1.0080 ; qtot   -1.410
        31           h30bf         1   UNL       h30        31     0.06255        1.0080 ; qtot   -1.348
        32           h31bf         1   UNL       h31        32     0.06255        1.0080 ; qtot   -1.285
        33           h32bf         1   UNL       h32        33     0.31254        1.0080 ; qtot   -0.973
        34           h33bf         1   UNL       h33        34     0.04497        1.0080 ; qtot   -0.928
        35           h34bf         1   UNL       h34        35     0.04497        1.0080 ; qtot   -0.883
        36           h35bf         1   UNL       h35        36     0.04497        1.0080 ; qtot   -0.838
        37           h36bf         1   UNL       h36        37     0.11797        1.0080 ; qtot   -0.720
        38           h37bf         1   UNL       h37        38     0.11784        1.0080 ; qtot   -0.602
        39           h38bf         1   UNL       h38        39     0.11784        1.0080 ; qtot   -0.484
        40           h39bf         1   UNL       h39        40     0.11797        1.0080 ; qtot   -0.366
        41           h40bf         1   UNL       h40        41     0.15375        1.0080 ; qtot   -0.212
        42           h41bf         1   UNL       h41        42     0.03800        1.0080 ; qtot   -0.174
        43           h42bf         1   UNL       h42        43     0.05817        1.0080 ; qtot   -0.116
        44           h43bf         1   UNL       h43        44     0.05817        1.0080 ; qtot   -0.058
        45           h44bf         1   UNL       h44        45     0.05815        1.0080 ; qtot   -0.000

[ bonds ]
;       ai        aj funct               r               k
         1         2     1        0.139322   312548.937012
         1         4     1        0.142259   260495.523340
         1        13     1        0.150119   175785.266968
         2         6     1        0.140342   306472.126465
         2        27     1        0.108524   322040.365527
         3         4     1        0.138622   347050.005908
         3         5     1        0.140635   300350.677051
         3        28     1        0.108557   321190.184082
         4        29     1        0.108489   322025.043262
         5         6     1        0.141869   251815.842920
         5         9     1        0.136842   290575.199268
         6         7     1        0.143787   232823.613770
         7         8     1        0.132649   371345.986230
         7        10     1        0.150274   213625.644897
         8         9     1        0.136401   241851.313916
         9        30     1        0.100927   434980.632227
        10        15     1        0.151889   191838.442969
        10        31     1        0.109486   294999.682227
        10        32     1        0.109486   294999.682227
        11        12     1        0.145884   219533.387012
        11        13     1        0.137271   291155.172559
        11        33     1        0.101035   426422.610596
        12        34     1        0.109290   302707.599023
        12        35     1        0.109290   302707.599023
        12        36     1        0.109290   302707.599023
        13        14     1        0.123395   590117.754492
        15        16     1        0.140132   290757.304395
        15        20     1        0.140132   290757.304395
        16        17     1        0.139531   320296.512939
        16        37     1        0.108704   315886.075391
        17        18     1        0.140685   283825.179443
        17        38     1        0.108584   318696.127832
        18        19     1        0.140685   283825.179443
        18        21     1        0.146859   235591.683203
        19        20     1        0.139531   320296.512939
        19        39     1        0.108584   318696.102295
        20        40     1        0.108704   315886.075391
        21        22     1        0.139499   320805.390918
        21        25     1        0.142378   259368.136572
        22        23     1        0.135856   314480.283057
        22        41     1        0.108071   337590.039111
        23        24     1        0.135354   242037.913574
        23        26     1        0.145314   224810.528516
        24        25     1        0.133400   358572.196436
        25        42     1        0.108233   332445.307520
        26        43     1        0.109196   305692.172070
        26        44     1        0.109196   305692.172070
        26        45     1        0.109196   305692.172070

[ angles ]
;       ai        aj        ak funct           theta             cth
         1         2         6     1      118.819092      666.476035
         1         2        27     1      120.117737      400.157630
         1         4         3     1      122.084206      616.058886
         1         4        29     1      118.782700      417.101246
         1        13        11     1      116.330872      512.105773
         1        13        14     1      121.916847      607.137497
         2         1         4     1      120.154564      610.309972
         2         1        13     1      119.699440      511.255898
         2         6         5     1      119.751610      753.226554
         2         6         7     1      135.532104      435.049493
         3         4        29     1      119.275345      407.140082
         3         5         6     1      121.826454      612.816631
         3         5         9     1      132.490311      480.939423
         4         1        13     1      120.242409      578.872386
         4         3         5     1      117.047997      762.793649
         4         3        28     1      121.191063      439.898990
         5         3        28     1      121.912209      436.763288
         5         6         7     1      104.808472      488.138877
         5         9         8     1      112.338623      425.015069
         5         9        30     1      128.734390      380.960906
         6         2        27     1      121.013916      408.365225
         6         5         9     1      105.797852      167.360000
         6         7         8     1      110.702805      353.792805
         6         7        10     1      127.833115      446.834709
         7         8         9     1      106.500710      544.611736
         7        10        15     1      113.105606      519.623132
         7        10        31     1      108.500137      514.066289
         7        10        32     1      108.500137      514.066289
         8         7        10     1      121.625832      449.673829
         8         9        30     1      118.789017      482.596877
        10        15        16     1      120.885033      486.548234
        10        15        20     1      120.885033      486.548234
        11        12        34     1      110.029320      493.640241
        11        12        35     1      110.029320      493.640241
        11        12        36     1      110.029320      493.640241
        11        13        14     1      121.648376      574.362405
        12        11        13     1      120.285622      524.469820
        12        11        33     1      117.871620      428.240885
        13        11        33     1      117.856812      419.313622
        15        10        31     1      109.614029      493.993834
        15        10        32     1      109.614029      493.993834
        15        16        17     1      120.959518      705.842064
        15        16        37     1      119.502907      394.245725
        15        20        19     1      120.959518      705.842064
        15        20        40     1      119.502907      394.245725
        16        15        20     1      118.250145      711.225989
        16        17        18     1      121.013084      708.028679
        16        17        38     1      119.370682      427.621195
        17        16        37     1      119.522682      426.792643
        17        18        19     1      117.633606      614.164480
        17        18        21     1      121.173790      498.107383
        18        17        38     1      119.674911      429.339523
        18        19        20     1      121.013084      708.028679
        18        19        39     1      119.674911      429.339523
        18        21        22     1      127.875488      501.485943
        18        21        25     1      128.618073      539.877795
        19        18        21     1      121.173790      498.107383
        19        20        40     1      119.522682      426.792643
        20        19        39     1      119.370682      427.621195
        21        22        23     1      107.253334      167.360000
        21        22        41     1      131.309311      330.526743
        21        25        24     1      111.985497      241.969059
        21        25        42     1      128.583298      361.836739
        22        21        25     1      103.527756      370.968937
        22        23        24     1      112.317947      213.505126
        22        23        26     1      128.036591      424.086540
        23        22        41     1      121.687912      464.045636
        23        24        25     1      104.970238      567.675704
        23        26        43     1      109.593666      496.372137
        23        26        44     1      109.593666      496.372137
        23        26        45     1      109.593666      496.372137
        24        23        26     1      119.401016      615.866209
        24        25        42     1      119.394226      391.030699
        31        10        32     1      106.967346      364.175843
        34        12        35     1      108.965477      342.583387
        34        12        36     1      108.965477      342.583387
        35        12        36     1      108.965477      342.583387
        43        26        44     1      109.444870      349.033390
        43        26        45     1      109.444870      349.033390
        44        26        45     1      109.444870      349.033390

[ dihedrals ] ; propers for gromacs 4.5 or higher, use funct 9
;       ai        aj        ak        al funct           phase               k        pn
         1         2         6         5     9        0.000000       -0.090667         1
         1         2         6         5     9      180.000000       19.620490         2
         1         2         6         5     9        0.000000       -2.393207         3
         1         2         6         5     9      180.000000       -0.485549         4
         1         2         6         7     9        0.000000       -0.378799         1
         1         2         6         7     9      180.000000       13.967524         2
         1         2         6         7     9        0.000000       -1.030488         3
         1         2         6         7     9      180.000000       -0.250572         4
         1         4         3         5     9        0.000000       -0.096886         1
         1         4         3         5     9      180.000000       22.112872         2
         1         4         3         5     9        0.000000       -1.551136         3
         1         4         3         5     9      180.000000       -0.670671         4
         1         4         3        28     9        0.000000        0.027742         1
         1         4         3        28     9      180.000000       14.732066         2
         1         4         3        28     9        0.000000       -0.475106         3
         1         4         3        28     9      180.000000        0.121735         4
         1        13        11        12     9        0.000000        2.438957         1
         1        13        11        12     9      180.000000       10.071367         2
         1        13        11        12     9        0.000000        1.322512         3
         1        13        11        12     9      180.000000       -0.187267         4
         1        13        11        33     9        0.000000       -0.318162         1
         1        13        11        33     9      180.000000        9.608922         2
         1        13        11        33     9        0.000000        0.517511         3
         1        13        11        33     9      180.000000        0.452021         4
         2         1         4         3     9        0.000000        0.076556         1
         2         1         4         3     9      180.000000       16.939495         2
         2         1         4         3     9        0.000000       -1.251516         3
         2         1         4         3     9      180.000000       -0.335693         4
         2         1         4        29     9        0.000000        0.048532         1
         2         1         4        29     9      180.000000       12.747912         2
         2         1         4        29     9        0.000000       -0.654503         3
         2         1         4        29     9      180.000000        0.093805         4
         2         1        13        11     9        0.000000       -0.468574         1
         2         1        13        11     9      180.000000        2.834047         2
         2         1        13        11     9        0.000000        0.253169         3
         2         1        13        11     9      180.000000       -0.432898         4
         2         1        13        14     9        0.000000        0.339003         1
         2         1        13        14     9      180.000000        3.563692         2
         2         1        13        14     9        0.000000        0.027822         3
         2         1        13        14     9      180.000000        0.003414         4
         2         6         5         3     9        0.000000       -0.271394         1
         2         6         5         3     9      180.000000       10.535755         2
         2         6         5         3     9        0.000000       -1.569540         3
         2         6         5         3     9      180.000000       -0.058197         4
         2         6         5         9     9        0.000000        0.323941         1
         2         6         5         9     9      180.000000        8.892708         2
         2         6         5         9     9        0.000000       -1.879982         3
         2         6         5         9     9      180.000000        0.119936         4
         2         6         7         8     9        0.000000       -0.222102         1
         2         6         7         8     9      180.000000        3.992947         2
         2         6         7         8     9        0.000000       -0.848417         3
         2         6         7         8     9      180.000000        0.035338         4
         2         6         7        10     9        0.000000       -0.421736         1
         2         6         7        10     9      180.000000        4.303453         2
         2         6         7        10     9        0.000000        0.227578         3
         2         6         7        10     9      180.000000        0.068937         4
         3         4         1        13     9        0.000000        0.172686         1
         3         4         1        13     9      180.000000       13.233951         2
         3         4         1        13     9        0.000000       -0.069259         3
         3         4         1        13     9      180.000000       -0.292980         4
         3         5         6         7     9        0.000000       -0.012435         1
         3         5         6         7     9      180.000000       11.284136         2
         3         5         6         7     9        0.000000       -2.379227         3
         3         5         6         7     9      180.000000       -0.022364         4
         3         5         9         8     9        0.000000        1.388441         1
         3         5         9         8     9      180.000000        5.518131         2
         3         5         9         8     9        0.000000        0.436876         3
         3         5         9         8     9      180.000000       -0.035399         4
         3         5         9        30     9        0.000000       -0.166869         1
         3         5         9        30     9      180.000000        1.510508         2
         3         5         9        30     9        0.000000        0.105208         3
         3         5         9        30     9      180.000000       -0.109495         4
         4         1         2         6     9        0.000000       -0.086851         1
         4         1         2         6     9      180.000000       20.821151         2
         4         1         2         6     9        0.000000       -1.577894         3
         4         1         2         6     9      180.000000       -0.636342         4
         4         1         2        27     9        0.000000        0.092699         1
         4         1         2        27     9      180.000000       14.782194         2
         4         1         2        27     9        0.000000       -0.450680         3
         4         1         2        27     9      180.000000       -0.020114         4
         4         1        13        11     9        0.000000        0.172034         1
         4         1        13        11     9      180.000000        3.050326         2
         4         1        13        11     9        0.000000        0.236605         3
         4         1        13        11     9      180.000000       -0.405162         4
         4         1        13        14     9        0.000000       -0.616433         1
         4         1        13        14     9      180.000000        3.769198         2
         4         1        13        14     9        0.000000        0.065461         3
         4         1        13        14     9      180.000000        0.014325         4
         4         3         5         6     9        0.000000       -0.143088         1
         4         3         5         6     9      180.000000       16.991253         2
         4         3         5         6     9        0.000000       -1.861123         3
         4         3         5         6     9      180.000000       -0.342420         4
         4         3         5         9     9        0.000000        0.243557         1
         4         3         5         9     9      180.000000       13.450507         2
         4         3         5         9     9        0.000000       -0.035851         3
         4         3         5         9     9      180.000000       -0.101953         4
         5         3         4        29     9        0.000000        0.128968         1
         5         3         4        29     9      180.000000       17.238455         2
         5         3         4        29     9        0.000000       -0.509989         3
         5         3         4        29     9      180.000000       -0.112149         4
         5         6         2        27     9        0.000000        0.332487         1
         5         6         2        27     9      180.000000       14.422248         2
         5         6         2        27     9        0.000000       -0.300372         3
         5         6         2        27     9      180.000000       -0.198783         4
         5         6         7         8     9        0.000000       -0.158769         1
         5         6         7         8     9      180.000000       30.941356         2
         5         6         7         8     9        0.000000       -9.488855         3
         5         6         7         8     9      180.000000       -0.194582         4
         5         6         7        10     9        0.000000        0.905037         1
         5         6         7        10     9      180.000000       14.493631         2
         5         6         7        10     9        0.000000        0.102784         3
         5         6         7        10     9      180.000000       -0.591530         4
         5         9         8         7     9        0.000000       -0.211795         1
         5         9         8         7     9      180.000000       17.216046         2
         5         9         8         7     9        0.000000       -2.171080         3
         5         9         8         7     9      180.000000       -1.162629         4
         6         2         1        13     9        0.000000        0.112814         1
         6         2         1        13     9      180.000000       17.265715         2
         6         2         1        13     9        0.000000       -0.178159         3
         6         2         1        13     9      180.000000       -0.696544         4
         6         5         3        28     9        0.000000        0.120539         1
         6         5         3        28     9      180.000000       11.348855         2
         6         5         3        28     9        0.000000       -0.291248         3
         6         5         3        28     9      180.000000        0.001313         4
         6         5         9         8     9        0.000000        0.392748         1
         6         5         9         8     9      180.000000       24.691452         2
         6         5         9         8     9        0.000000       -5.027374         3
         6         5         9         8     9      180.000000       -1.038516         4
         6         5         9        30     9        0.000000        0.295809         1
         6         5         9        30     9      180.000000        1.575659         2
         6         5         9        30     9        0.000000        0.501314         3
         6         5         9        30     9      180.000000        0.027061         4
         6         7         8         9     9        0.000000       -0.266285         1
         6         7         8         9     9      180.000000       41.431550         2
         6         7         8         9     9        0.000000       -4.759238         3
         6         7         8         9     9      180.000000       -0.129972         4
         6         7        10        15     9        0.000000        0.317253         1
         6         7        10        15     9      180.000000       -0.413399         2
         6         7        10        15     9        0.000000        0.587270         3
         6         7        10        15     9      180.000000        0.020653         4
         6         7        10        31     9        0.000000       -0.066563         1
         6         7        10        31     9      180.000000        0.143377         2
         6         7        10        31     9        0.000000        0.524138         3
         6         7        10        31     9      180.000000        0.014895         4
         6         7        10        32     9        0.000000       -0.066563         1
         6         7        10        32     9      180.000000        0.143377         2
         6         7        10        32     9        0.000000        0.524138         3
         6         7        10        32     9      180.000000        0.014895         4
         7         6         2        27     9        0.000000       -0.039757         1
         7         6         2        27     9      180.000000        9.771011         2
         7         6         2        27     9        0.000000       -0.000839         3
         7         6         2        27     9      180.000000        0.055041         4
         7         6         5         9     9        0.000000        0.171340         1
         7         6         5         9     9      180.000000       17.413611         2
         7         6         5         9     9        0.000000       -6.321762         3
         7         6         5         9     9      180.000000       -0.232743         4
         7         8         9        30     9        0.000000        2.366235         1
         7         8         9        30     9      180.000000        2.975894         2
         7         8         9        30     9        0.000000        0.435105         3
         7         8         9        30     9      180.000000        0.026087         4
         7        10        15        16     9        0.000000       -0.162197         1
         7        10        15        16     9      180.000000        0.171147         2
         7        10        15        16     9        0.000000        0.114997         3
         7        10        15        16     9      180.000000        0.021335         4
         7        10        15        20     9        0.000000       -0.162197         1
         7        10        15        20     9      180.000000        0.171147         2
         7        10        15        20     9        0.000000        0.114997         3
         7        10        15        20     9      180.000000        0.021335         4
         8         7        10        15     9        0.000000       -0.862580         1
         8         7        10        15     9      180.000000       -0.216635         2
         8         7        10        15     9        0.000000        0.027906         3
         8         7        10        15     9      180.000000        0.006368         4
         8         7        10        31     9        0.000000        0.219474         1
         8         7        10        31     9      180.000000        0.093663         2
         8         7        10        31     9        0.000000       -0.190341         3
         8         7        10        31     9      180.000000        0.040522         4
         8         7        10        32     9        0.000000        0.219474         1
         8         7        10        32     9      180.000000        0.093663         2
         8         7        10        32     9        0.000000       -0.190341         3
         8         7        10        32     9      180.000000        0.040522         4
         9         5         3        28     9        0.000000       -0.114805         1
         9         5         3        28     9      180.000000        9.684382         2
         9         5         3        28     9        0.000000       -0.071654         3
         9         5         3        28     9      180.000000        0.059257         4
         9         8         7        10     9        0.000000        0.492327         1
         9         8         7        10     9      180.000000       32.362694         2
         9         8         7        10     9        0.000000        0.809139         3
         9         8         7        10     9      180.000000       -0.860767         4
        10        15        16        17     9        0.000000        0.026860         1
        10        15        16        17     9      180.000000       15.135600         2
        10        15        16        17     9        0.000000       -0.170192         3
        10        15        16        17     9      180.000000       -0.215560         4
        10        15        16        37     9        0.000000       -0.086046         1
        10        15        16        37     9      180.000000       12.621826         2
        10        15        16        37     9        0.000000       -0.312532         3
        10        15        16        37     9      180.000000        0.160165         4
        10        15        20        19     9        0.000000        0.026860         1
        10        15        20        19     9      180.000000       15.135600         2
        10        15        20        19     9        0.000000       -0.170192         3
        10        15        20        19     9      180.000000       -0.215560         4
        10        15        20        40     9        0.000000       -0.086046         1
        10        15        20        40     9      180.000000       12.621826         2
        10        15        20        40     9        0.000000       -0.312532         3
        10        15        20        40     9      180.000000        0.160165         4
        12        11        13        14     9        0.000000       -3.020102         1
        12        11        13        14     9      180.000000        8.882419         2
        12        11        13        14     9        0.000000       -0.102929         3
        12        11        13        14     9      180.000000       -0.352841         4
        13         1         2        27     9        0.000000        0.155535         1
        13         1         2        27     9      180.000000       13.151942         2
        13         1         2        27     9        0.000000       -0.162661         3
        13         1         2        27     9      180.000000        0.043311         4
        13         1         4        29     9        0.000000        0.154988         1
        13         1         4        29     9      180.000000       12.143465         2
        13         1         4        29     9        0.000000       -0.227162         3
        13         1         4        29     9      180.000000        0.016836         4
        13        11        12        34     9        0.000000       -0.014510         1
        13        11        12        34     9      180.000000        0.029106         2
        13        11        12        34     9        0.000000        0.106987         3
        13        11        12        34     9      180.000000        0.015127         4
        13        11        12        35     9        0.000000       -0.014512         1
        13        11        12        35     9      180.000000        0.029105         2
        13        11        12        35     9        0.000000        0.106987         3
        13        11        12        35     9      180.000000        0.015127         4
        13        11        12        36     9        0.000000       -0.014512         1
        13        11        12        36     9      180.000000        0.029105         2
        13        11        12        36     9        0.000000        0.106987         3
        13        11        12        36     9      180.000000        0.015127         4
        14        13        11        33     9        0.000000        0.063890         1
        14        13        11        33     9      180.000000        9.973476         2
        14        13        11        33     9        0.000000        0.345190         3
        14        13        11        33     9      180.000000        0.057674         4
        15        16        17        18     9        0.000000       -0.033501         1
        15        16        17        18     9      180.000000       18.361802         2
        15        16        17        18     9        0.000000       -1.382122         3
        15        16        17        18     9      180.000000       -0.333748         4
        15        16        17        38     9        0.000000        0.009019         1
        15        16        17        38     9      180.000000       15.117731         2
        15        16        17        38     9        0.000000       -0.652997         3
        15        16        17        38     9      180.000000        0.089353         4
        15        20        19        18     9        0.000000       -0.033501         1
        15        20        19        18     9      180.000000       18.361802         2
        15        20        19        18     9        0.000000       -1.382122         3
        15        20        19        18     9      180.000000       -0.333748         4
        15        20        19        39     9        0.000000        0.009019         1
        15        20        19        39     9      180.000000       15.117731         2
        15        20        19        39     9        0.000000       -0.652997         3
        15        20        19        39     9      180.000000        0.089353         4
        16        15        10        31     9        0.000000        0.026652         1
        16        15        10        31     9      180.000000        0.014947         2
        16        15        10        31     9        0.000000        0.013547         3
        16        15        10        31     9      180.000000        0.009027         4
        16        15        10        32     9        0.000000        0.026652         1
        16        15        10        32     9      180.000000        0.014947         2
        16        15        10        32     9        0.000000        0.013547         3
        16        15        10        32     9      180.000000        0.009027         4
        16        15        20        19     9        0.000000       -0.017692         1
        16        15        20        19     9      180.000000       18.652768         2
        16        15        20        19     9        0.000000       -1.225804         3
        16        15        20        19     9      180.000000       -0.466466         4
        16        15        20        40     9        0.000000        0.019722         1
        16        15        20        40     9      180.000000       14.478142         2
        16        15        20        40     9        0.000000       -0.483578         3
        16        15        20        40     9      180.000000        0.000311         4
        16        17        18        19     9        0.000000       -0.080966         1
        16        17        18        19     9      180.000000       18.153112         2
        16        17        18        19     9        0.000000       -1.373641         3
        16        17        18        19     9      180.000000       -0.356348         4
        16        17        18        21     9        0.000000        0.345560         1
        16        17        18        21     9      180.000000       16.650203         2
        16        17        18        21     9        0.000000       -0.115710         3
        16        17        18        21     9      180.000000       -0.388262         4
        17        16        15        20     9        0.000000       -0.017692         1
        17        16        15        20     9      180.000000       18.652768         2
        17        16        15        20     9        0.000000       -1.225804         3
        17        16        15        20     9      180.000000       -0.466466         4
        17        18        19        20     9        0.000000       -0.080966         1
        17        18        19        20     9      180.000000       18.153112         2
        17        18        19        20     9        0.000000       -1.373641         3
        17        18        19        20     9      180.000000       -0.356348         4
        17        18        19        39     9        0.000000       -0.122536         1
        17        18        19        39     9      180.000000       13.854594         2
        17        18        19        39     9        0.000000       -0.550856         3
        17        18        19        39     9      180.000000        0.073352         4
        17        18        21        22     9        0.000000        0.226385         1
        17        18        21        22     9      180.000000        2.444068         2
        17        18        21        22     9        0.000000        0.075300         3
        17        18        21        22     9      180.000000       -0.310311         4
        17        18        21        25     9        0.000000       -0.000290         1
        17        18        21        25     9      180.000000        2.079647         2
        17        18        21        25     9        0.000000       -0.058953         3
        17        18        21        25     9      180.000000       -0.243068         4
        18        17        16        37     9        0.000000       -0.019661         1
        18        17        16        37     9      180.000000       14.564298         2
        18        17        16        37     9        0.000000       -0.438149         3
        18        17        16        37     9      180.000000        0.148899         4
        18        19        20        40     9        0.000000       -0.019661         1
        18        19        20        40     9      180.000000       14.564298         2
        18        19        20        40     9        0.000000       -0.438149         3
        18        19        20        40     9      180.000000        0.148899         4
        18        21        22        23     9        0.000000        0.183654         1
        18        21        22        23     9      180.000000       16.330189         2
        18        21        22        23     9        0.000000       -0.168639         3
        18        21        22        23     9      180.000000       -0.945094         4
        18        21        22        41     9        0.000000       -0.192731         1
        18        21        22        41     9      180.000000       10.764578         2
        18        21        22        41     9        0.000000       -0.137823         3
        18        21        22        41     9      180.000000       -0.003216         4
        18        21        25        24     9        0.000000        0.388882         1
        18        21        25        24     9      180.000000       15.245300         2
        18        21        25        24     9        0.000000       -0.357892         3
        18        21        25        24     9      180.000000       -0.981862         4
        18        21        25        42     9        0.000000       -0.157976         1
        18        21        25        42     9      180.000000       10.350387         2
        18        21        25        42     9        0.000000       -0.025512         3
        18        21        25        42     9      180.000000        0.047764         4
        19        18        17        38     9        0.000000       -0.122536         1
        19        18        17        38     9      180.000000       13.854594         2
        19        18        17        38     9        0.000000       -0.550856         3
        19        18        17        38     9      180.000000        0.073352         4
        19        18        21        22     9        0.000000        0.226385         1
        19        18        21        22     9      180.000000        2.444068         2
        19        18        21        22     9        0.000000        0.075300         3
        19        18        21        22     9      180.000000       -0.310311         4
        19        18        21        25     9        0.000000       -0.000290         1
        19        18        21        25     9      180.000000        2.079647         2
        19        18        21        25     9        0.000000       -0.058953         3
        19        18        21        25     9      180.000000       -0.243068         4
        20        15        10        31     9        0.000000        0.026652         1
        20        15        10        31     9      180.000000        0.014947         2
        20        15        10        31     9        0.000000        0.013547         3
        20        15        10        31     9      180.000000        0.009027         4
        20        15        10        32     9        0.000000        0.026652         1
        20        15        10        32     9      180.000000        0.014947         2
        20        15        10        32     9        0.000000        0.013547         3
        20        15        10        32     9      180.000000        0.009027         4
        20        15        16        37     9        0.000000        0.019722         1
        20        15        16        37     9      180.000000       14.478142         2
        20        15        16        37     9        0.000000       -0.483578         3
        20        15        16        37     9      180.000000        0.000311         4
        20        19        18        21     9        0.000000        0.345560         1
        20        19        18        21     9      180.000000       16.650203         2
        20        19        18        21     9        0.000000       -0.115710         3
        20        19        18        21     9      180.000000       -0.388262         4
        21        18        17        38     9        0.000000        0.146898         1
        21        18        17        38     9      180.000000       13.479040         2
        21        18        17        38     9        0.000000       -0.087547         3
        21        18        17        38     9      180.000000        0.132717         4
        21        18        19        39     9        0.000000        0.146898         1
        21        18        19        39     9      180.000000       13.479040         2
        21        18        19        39     9        0.000000       -0.087547         3
        21        18        19        39     9      180.000000        0.132717         4
        21        22        23        24     9        0.000000       -0.009121         1
        21        22        23        24     9      180.000000       30.745143         2
        21        22        23        24     9        0.000000       -6.250989         3
        21        22        23        24     9      180.000000       -0.578339         4
        21        22        23        26     9        0.000000        0.805846         1
        21        22        23        26     9      180.000000        7.183529         2
        21        22        23        26     9        0.000000        0.904760         3
        21        22        23        26     9      180.000000       -0.006099         4
        21        25        24        23     9        0.000000       -0.003186         1
        21        25        24        23     9      180.000000       40.723745         2
        21        25        24        23     9        0.000000       -5.801976         3
        21        25        24        23     9      180.000000       -0.138215         4
        22        21        25        24     9        0.000000       -0.184320         1
        22        21        25        24     9      180.000000       30.518446         2
        22        21        25        24     9        0.000000       -8.302201         3
        22        21        25        24     9      180.000000        0.056566         4
        22        21        25        42     9        0.000000        0.182829         1
        22        21        25        42     9      180.000000       14.435367         2
        22        21        25        42     9        0.000000       -0.577633         3
        22        21        25        42     9      180.000000       -0.486645         4
        22        23        24        25     9        0.000000       -0.276705         1
        22        23        24        25     9      180.000000       27.814030         2
        22        23        24        25     9        0.000000       -4.425872         3
        22        23        24        25     9      180.000000        0.073279         4
        22        23        26        43     9        0.000000       -0.025033         1
        22        23        26        43     9      180.000000       -0.009391         2
        22        23        26        43     9        0.000000        0.181958         3
        22        23        26        43     9      180.000000        0.012892         4
        22        23        26        44     9        0.000000       -0.025033         1
        22        23        26        44     9      180.000000       -0.009391         2
        22        23        26        44     9        0.000000        0.181958         3
        22        23        26        44     9      180.000000        0.012892         4
        22        23        26        45     9        0.000000       -0.025033         1
        22        23        26        45     9      180.000000       -0.009391         2
        22        23        26        45     9        0.000000        0.181958         3
        22        23        26        45     9      180.000000        0.012892         4
        23        22        21        25     9        0.000000       -0.206975         1
        23        22        21        25     9      180.000000       30.618723         2
        23        22        21        25     9        0.000000       -8.507332         3
        23        22        21        25     9      180.000000       -0.023862         4
        23        24        25        42     9        0.000000        1.030700         1
        23        24        25        42     9      180.000000       28.071179         2
        23        24        25        42     9        0.000000       -0.182233         3
        23        24        25        42     9      180.000000       -0.061982         4
        24        23        22        41     9        0.000000        1.067262         1
        24        23        22        41     9      180.000000       12.367244         2
        24        23        22        41     9        0.000000        0.213521         3
        24        23        22        41     9      180.000000       -0.400032         4
        24        23        26        43     9        0.000000       -0.002235         1
        24        23        26        43     9      180.000000        0.002811         2
        24        23        26        43     9        0.000000        0.198678         3
        24        23        26        43     9      180.000000        0.004453         4
        24        23        26        44     9        0.000000       -0.002235         1
        24        23        26        44     9      180.000000        0.002811         2
        24        23        26        44     9        0.000000        0.198678         3
        24        23        26        44     9      180.000000        0.004453         4
        24        23        26        45     9        0.000000       -0.002235         1
        24        23        26        45     9      180.000000        0.002811         2
        24        23        26        45     9        0.000000        0.198678         3
        24        23        26        45     9      180.000000        0.004453         4
        25        21        22        41     9        0.000000        0.010233         1
        25        21        22        41     9      180.000000       13.254580         2
        25        21        22        41     9        0.000000       -0.641024         3
        25        21        22        41     9      180.000000       -0.261572         4
        25        24        23        26     9        0.000000        0.586693         1
        25        24        23        26     9      180.000000       10.298365         2
        25        24        23        26     9        0.000000        0.792012         3
        25        24        23        26     9      180.000000       -0.113382         4
        26        23        22        41     9        0.000000       -0.493730         1
        26        23        22        41     9      180.000000        3.995450         2
        26        23        22        41     9        0.000000        0.087170         3
        26        23        22        41     9      180.000000        0.043642         4
        28         3         4        29     9        0.000000       -0.052824         1
        28         3         4        29     9      180.000000       12.555027         2
        28         3         4        29     9        0.000000       -0.658769         3
        28         3         4        29     9      180.000000        0.295185         4
        33        11        12        34     9        0.000000       -0.030955         1
        33        11        12        34     9      180.000000        0.024930         2
        33        11        12        34     9        0.000000        0.474233         3
        33        11        12        34     9      180.000000       -0.000107         4
        33        11        12        35     9        0.000000       -0.030955         1
        33        11        12        35     9      180.000000        0.024929         2
        33        11        12        35     9        0.000000        0.474233         3
        33        11        12        35     9      180.000000       -0.000106         4
        33        11        12        36     9        0.000000       -0.030955         1
        33        11        12        36     9      180.000000        0.024929         2
        33        11        12        36     9        0.000000        0.474233         3
        33        11        12        36     9      180.000000       -0.000106         4
        37        16        17        38     9        0.000000       -0.173269         1
        37        16        17        38     9      180.000000       12.433055         2
        37        16        17        38     9        0.000000       -0.660707         3
        37        16        17        38     9      180.000000        0.303153         4
        39        19        20        40     9        0.000000       -0.173269         1
        39        19        20        40     9      180.000000       12.433055         2
        39        19        20        40     9        0.000000       -0.660707         3
        39        19        20        40     9      180.000000        0.303153         4

[ dihedrals ] ; impropers
;       ai        aj        ak        al funct           phase               k        pn
        13         1        11        14     4      180.000000       27.893333         2
        13        11        14         1     4      180.000000       27.893333         2
        13        14         1        11     4      180.000000       27.893333         2
        16        15        17        37     4      180.000000        1.374161         2
        16        17        37        15     4      180.000000        1.374161         2
        16        37        15        17     4      180.000000        1.374161         2
        20        15        19        40     4      180.000000        1.374160         2
        20        19        40        15     4      180.000000        1.374160         2
        20        40        15        19     4      180.000000        1.374160         2

[ pairs ]
;       ai        aj funct
         1         5     1
         1         7     1
         1        12     1
         1        28     1
         1        33     1
         2         3     1
         2         8     1
         2         9     1
         2        10     1
         2        11     1
         2        14     1
         2        29     1
         3         7     1
         3         8     1
         3        13     1
         3        30     1
         4         6     1
         4         9     1
         4        11     1
         4        14     1
         4        27     1
         5        10     1
         5        27     1
         5        29     1
         6        13     1
         6        15     1
         6        28     1
         6        30     1
         6        31     1
         6        32     1
         7        16     1
         7        20     1
         7        27     1
         7        30     1
         8        15     1
         8        31     1
         8        32     1
         9        10     1
         9        28     1
        10        17     1
        10        19     1
        10        37     1
        10        40     1
        12        14     1
        13        27     1
        13        29     1
        13        34     1
        13        35     1
        13        36     1
        14        33     1
        15        18     1
        15        38     1
        15        39     1
        16        19     1
        16        21     1
        16        31     1
        16        32     1
        16        40     1
        17        20     1
        17        22     1
        17        25     1
        17        39     1
        18        23     1
        18        24     1
        18        37     1
        18        40     1
        18        41     1
        18        42     1
        19        22     1
        19        25     1
        19        38     1
        20        21     1
        20        31     1
        20        32     1
        20        37     1
        21        26     1
        21        38     1
        21        39     1
        22        42     1
        22        43     1
        22        44     1
        22        45     1
        23        42     1
        24        41     1
        24        43     1
        24        44     1
        24        45     1
        25        26     1
        25        41     1
        26        41     1
        28        29     1
        33        34     1
        33        35     1
        33        36     1
        37        38     1
        39        40     1
