; ITP file created by ByteFF-ML, 2026-02-21 07:35:25.852397

[ atomtypes ]
;name           bonded.type        at.num        mass        charge   ptype           sigma         epsilon
 c0bf                                   6      0.0000       0.00000       A     3.31378e-01     4.12993e-01
 c1bf                                   6      0.0000       0.00000       A     3.31393e-01     4.13866e-01
 c2bf                                   6      0.0000       0.00000       A     3.31517e-01     4.12482e-01
 c3bf                                   6      0.0000       0.00000       A     3.31519e-01     4.12686e-01
 c4bf                                   6      0.0000       0.00000       A     3.31529e-01     4.12453e-01
 c5bf                                   6      0.0000       0.00000       A     3.31500e-01     4.11950e-01
 c6bf                                   6      0.0000       0.00000       A     3.31450e-01     4.11740e-01
 n7bf                                   7      0.0000       0.00000       A     3.38151e-01     3.91342e-01
 n8bf                                   7      0.0000       0.00000       A     3.20440e-01     8.58154e-01
 c9bf                                   6      0.0000       0.00000       A     3.39892e-01     4.51463e-01
 n10bf                                  7      0.0000       0.00000       A     3.27127e-01     4.92119e-01
 c11bf                                  6      0.0000       0.00000       A     3.39836e-01     4.51204e-01
 c12bf                                  6      0.0000       0.00000       A     3.31522e-01     4.13463e-01
 o13bf                                  8      0.0000       0.00000       A     3.04756e-01     6.10859e-01
 c14bf                                  6      0.0000       0.00000       A     3.31526e-01     4.13182e-01
 c15bf                                  6      0.0000       0.00000       A     3.31408e-01     4.13210e-01
 c16bf                                  6      0.0000       0.00000       A     3.31502e-01     4.12536e-01
 c17bf                                  6      0.0000       0.00000       A     3.31322e-01     4.13227e-01
 c18bf                                  6      0.0000       0.00000       A     3.31502e-01     4.12536e-01
 c19bf                                  6      0.0000       0.00000       A     3.31408e-01     4.13210e-01
 c20bf                                  6      0.0000       0.00000       A     3.31346e-01     4.11952e-01
 c21bf                                  6      0.0000       0.00000       A     3.31465e-01     4.12678e-01
 n22bf                                  7      0.0000       0.00000       A     3.20609e-01     8.54082e-01
 n23bf                                  7      0.0000       0.00000       A     3.38379e-01     3.93005e-01
 c24bf                                  6      0.0000       0.00000       A     3.31579e-01     4.13597e-01
 c25bf                                  6      0.0000       0.00000       A     3.39541e-01     4.50644e-01
 c26bf                                  6      0.0000       0.00000       A     3.39819e-01     4.49613e-01
 o27bf                                  8      0.0000       0.00000       A     3.24123e-01     3.88300e-01
 c28bf                                  6      0.0000       0.00000       A     3.39841e-01     4.50989e-01
 c29bf                                  6      0.0000       0.00000       A     3.39841e-01     4.50989e-01
 h30bf                                  1      0.0000       0.00000       A     2.62417e-01     6.67524e-02
 h31bf                                  1      0.0000       0.00000       A     2.62471e-01     6.70892e-02
 h32bf                                  1      0.0000       0.00000       A     2.62589e-01     6.73302e-02
 h33bf                                  1      0.0000       0.00000       A     1.10602e-01     4.12983e-02
 h34bf                                  1      0.0000       0.00000       A     2.60090e-01     8.80823e-02
 h35bf                                  1      0.0000       0.00000       A     2.60090e-01     8.80823e-02
 h36bf                                  1      0.0000       0.00000       A     1.10511e-01     4.11227e-02
 h37bf                                  1      0.0000       0.00000       A     2.41960e-01     8.71613e-02
 h38bf                                  1      0.0000       0.00000       A     2.41960e-01     8.71613e-02
 h39bf                                  1      0.0000       0.00000       A     2.41960e-01     8.71613e-02
 h40bf                                  1      0.0000       0.00000       A     2.62498e-01     6.75473e-02
 h41bf                                  1      0.0000       0.00000       A     2.62482e-01     6.74643e-02
 h42bf                                  1      0.0000       0.00000       A     2.62482e-01     6.74643e-02
 h43bf                                  1      0.0000       0.00000       A     2.62498e-01     6.75473e-02
 h44bf                                  1      0.0000       0.00000       A     2.53878e-01     6.72663e-02
 h45bf                                  1      0.0000       0.00000       A     2.53933e-01     6.69200e-02
 h46bf                                  1      0.0000       0.00000       A     2.42063e-01     8.80472e-02
 h47bf                                  1      0.0000       0.00000       A     2.42063e-01     8.80472e-02
 h48bf                                  1      0.0000       0.00000       A     5.37814e-02     2.02940e-02
 h49bf                                  1      0.0000       0.00000       A     2.60064e-01     8.75811e-02
 h50bf                                  1      0.0000       0.00000       A     2.60064e-01     8.75811e-02
 h51bf                                  1      0.0000       0.00000       A     2.60064e-01     8.75811e-02
 h52bf                                  1      0.0000       0.00000       A     2.60064e-01     8.75811e-02
 h53bf                                  1      0.0000       0.00000       A     2.60064e-01     8.75811e-02
 h54bf                                  1      0.0000       0.00000       A     2.60064e-01     8.75811e-02

[ moleculetype ]
;name             nrexcl
 20                    3

[ atoms ]
;       nr            type      resi   res      atom      cgnr      charge          mass ; qtot
         1            c0bf         1   UNL        c0         1    -0.19580       12.0110 ; qtot   -0.196
         2            c1bf         1   UNL        c1         2     0.01759       12.0110 ; qtot   -0.178
         3            c2bf         1   UNL        c2         3    -0.14960       12.0110 ; qtot   -0.328
         4            c3bf         1   UNL        c3         4    -0.03870       12.0110 ; qtot   -0.367
         5            c4bf         1   UNL        c4         5    -0.00053       12.0110 ; qtot   -0.367
         6            c5bf         1   UNL        c5         6    -0.23501       12.0110 ; qtot   -0.602
         7            c6bf         1   UNL        c6         7     0.35947       12.0110 ; qtot   -0.243
         8            n7bf         1   UNL        n7         8    -0.50659       14.0070 ; qtot   -0.749
         9            n8bf         1   UNL        n8         9    -0.08032       14.0070 ; qtot   -0.829
        10            c9bf         1   UNL        c9        10    -0.03975       12.0110 ; qtot   -0.869
        11           n10bf         1   UNL       n10        11    -0.50498       14.0070 ; qtot   -1.374
        12           c11bf         1   UNL       c11        12     0.08379       12.0110 ; qtot   -1.290
        13           c12bf         1   UNL       c12        13     0.60434       12.0110 ; qtot   -0.686
        14           o13bf         1   UNL       o13        14    -0.60022       15.9990 ; qtot   -1.286
        15           c14bf         1   UNL       c14        15    -0.08002       12.0110 ; qtot   -1.366
        16           c15bf         1   UNL       c15        16    -0.10203       12.0110 ; qtot   -1.468
        17           c16bf         1   UNL       c16        17    -0.11007       12.0110 ; qtot   -1.578
        18           c17bf         1   UNL       c17        18     0.00466       12.0110 ; qtot   -1.574
        19           c18bf         1   UNL       c18        19    -0.11007       12.0110 ; qtot   -1.684
        20           c19bf         1   UNL       c19        20    -0.10203       12.0110 ; qtot   -1.786
        21           c20bf         1   UNL       c20        21    -0.16646       12.0110 ; qtot   -1.952
        22           c21bf         1   UNL       c21        22    -0.12984       12.0110 ; qtot   -2.082
        23           n22bf         1   UNL       n22        23     0.11674       14.0070 ; qtot   -1.965
        24           n23bf         1   UNL       n23        24    -0.52565       14.0070 ; qtot   -2.491
        25           c24bf         1   UNL       c24        25     0.25899       12.0110 ; qtot   -2.232
        26           c25bf         1   UNL       c25        26     0.07014       12.0110 ; qtot   -2.162
        27           c26bf         1   UNL       c26        27     0.16172       12.0110 ; qtot   -2.000
        28           o27bf         1   UNL       o27        28    -0.67217       15.9990 ; qtot   -2.672
        29           c28bf         1   UNL       c28        29    -0.10913       12.0110 ; qtot   -2.782
        30           c29bf         1   UNL       c29        30    -0.10913       12.0110 ; qtot   -2.891
        31           h30bf         1   UNL       h30        31     0.13756        1.0080 ; qtot   -2.753
        32           h31bf         1   UNL       h31        32     0.12872        1.0080 ; qtot   -2.624
        33           h32bf         1   UNL       h32        33     0.12755        1.0080 ; qtot   -2.497
        34           h33bf         1   UNL       h33        34     0.37621        1.0080 ; qtot   -2.121
        35           h34bf         1   UNL       h34        35     0.06255        1.0080 ; qtot   -2.058
        36           h35bf         1   UNL       h35        36     0.06255        1.0080 ; qtot   -1.996
        37           h36bf         1   UNL       h36        37     0.31254        1.0080 ; qtot   -1.683
        38           h37bf         1   UNL       h37        38     0.04497        1.0080 ; qtot   -1.638
        39           h38bf         1   UNL       h38        39     0.04497        1.0080 ; qtot   -1.593
        40           h39bf         1   UNL       h39        40     0.04497        1.0080 ; qtot   -1.548
        41           h40bf         1   UNL       h40        41     0.11797        1.0080 ; qtot   -1.430
        42           h41bf         1   UNL       h41        42     0.11784        1.0080 ; qtot   -1.312
        43           h42bf         1   UNL       h42        43     0.11784        1.0080 ; qtot   -1.194
        44           h43bf         1   UNL       h43        44     0.11797        1.0080 ; qtot   -1.076
        45           h44bf         1   UNL       h44        45     0.15793        1.0080 ; qtot   -0.919
        46           h45bf         1   UNL       h45        46     0.03818        1.0080 ; qtot   -0.880
        47           h46bf         1   UNL       h46        47     0.07231        1.0080 ; qtot   -0.808
        48           h47bf         1   UNL       h47        48     0.07231        1.0080 ; qtot   -0.736
        49           h48bf         1   UNL       h48        49     0.45234        1.0080 ; qtot   -0.283
        50           h49bf         1   UNL       h49        50     0.04723        1.0080 ; qtot   -0.236
        51           h50bf         1   UNL       h50        51     0.04723        1.0080 ; qtot   -0.189
        52           h51bf         1   UNL       h51        52     0.04723        1.0080 ; qtot   -0.142
        53           h52bf         1   UNL       h52        53     0.04723        1.0080 ; qtot   -0.094
        54           h53bf         1   UNL       h53        54     0.04723        1.0080 ; qtot   -0.047
        55           h54bf         1   UNL       h54        55     0.04723        1.0080 ; qtot   -0.000

[ bonds ]
;       ai        aj funct               r               k
         1         2     1        0.139322   312548.937012
         1         4     1        0.142259   260495.523340
         1        13     1        0.150119   175785.266968
         2         6     1        0.140342   306472.126465
         2        31     1        0.108524   322040.365527
         3         4     1        0.138622   347050.005908
         3         5     1        0.140635   300350.677051
         3        32     1        0.108557   321190.184082
         4        33     1        0.108489   322025.043262
         5         6     1        0.141869   251815.842920
         5         9     1        0.136842   290575.199268
         6         7     1        0.143787   232823.613770
         7         8     1        0.132649   371345.986230
         7        10     1        0.150274   213625.644897
         8         9     1        0.136401   241851.313916
         9        34     1        0.100927   434980.632227
        10        15     1        0.151889   191838.442969
        10        35     1        0.109486   294999.682227
        10        36     1        0.109486   294999.682227
        11        12     1        0.145884   219533.387012
        11        13     1        0.137271   291155.172559
        11        37     1        0.101035   426422.610596
        12        38     1        0.109290   302707.599023
        12        39     1        0.109290   302707.599023
        12        40     1        0.109290   302707.599023
        13        14     1        0.123395   590117.754492
        15        16     1        0.140132   290757.355469
        15        20     1        0.140132   290757.355469
        16        17     1        0.139531   320296.512939
        16        41     1        0.108704   315886.049854
        17        18     1        0.140685   283825.179443
        17        42     1        0.108584   318696.102295
        18        19     1        0.140685   283825.179443
        18        21     1        0.146860   235647.507324
        19        20     1        0.139531   320296.512939
        19        43     1        0.108584   318696.102295
        20        44     1        0.108704   315886.075391
        21        22     1        0.139423   321888.394189
        21        25     1        0.142434   258323.668799
        22        23     1        0.135991   311269.323535
        22        45     1        0.108043   338733.207813
        23        24     1        0.135676   236443.218115
        23        26     1        0.145526   210525.248291
        24        25     1        0.133335   360728.090283
        25        46     1        0.108233   332535.887646
        26        27     1        0.154632   159918.894922
        26        47     1        0.109263   301545.226416
        26        48     1        0.109263   301545.226416
        27        28     1        0.143926   184944.317236
        27        29     1        0.153185   182216.366602
        27        30     1        0.153185   182216.366602
        28        49     1        0.097215   461553.220312
        29        50     1        0.109343   302178.699951
        29        51     1        0.109343   302178.699951
        29        52     1        0.109343   302178.699951
        30        53     1        0.109343   302178.699951
        30        54     1        0.109343   302178.699951
        30        55     1        0.109343   302178.699951

[ angles ]
;       ai        aj        ak funct           theta             cth
         1         2         6     1      118.819092      666.476035
         1         2        31     1      120.117737      400.157630
         1         4         3     1      122.084206      616.058886
         1         4        33     1      118.782700      417.101246
         1        13        11     1      116.330872      512.105773
         1        13        14     1      121.916847      607.137497
         2         1         4     1      120.154564      610.309972
         2         1        13     1      119.699440      511.255898
         2         6         5     1      119.751610      753.226554
         2         6         7     1      135.532104      435.049493
         3         4        33     1      119.275345      407.140082
         3         5         6     1      121.826454      612.816631
         3         5         9     1      132.490311      480.939423
         4         1        13     1      120.242409      578.872386
         4         3         5     1      117.047997      762.793649
         4         3        32     1      121.191063      439.898990
         5         3        32     1      121.912209      436.763288
         5         6         7     1      104.808472      488.138877
         5         9         8     1      112.338623      425.015069
         5         9        34     1      128.734390      380.960906
         6         2        31     1      121.013916      408.365225
         6         5         9     1      105.797852      167.360000
         6         7         8     1      110.702805      353.792805
         6         7        10     1      127.833115      446.834709
         7         8         9     1      106.500710      544.611736
         7        10        15     1      113.105606      519.623132
         7        10        35     1      108.500137      514.066289
         7        10        36     1      108.500137      514.066289
         8         7        10     1      121.625832      449.673829
         8         9        34     1      118.789017      482.596877
        10        15        16     1      120.885033      486.548234
        10        15        20     1      120.885033      486.548234
        11        12        38     1      110.029320      493.640241
        11        12        39     1      110.029320      493.640241
        11        12        40     1      110.029320      493.640241
        11        13        14     1      121.648376      574.362405
        12        11        13     1      120.285622      524.469820
        12        11        37     1      117.871620      428.240885
        13        11        37     1      117.856812      419.313622
        15        10        35     1      109.614029      493.993834
        15        10        36     1      109.614029      493.993834
        15        16        17     1      120.959518      705.842064
        15        16        41     1      119.502907      394.245725
        15        20        19     1      120.959518      705.842064
        15        20        44     1      119.502907      394.245725
        16        15        20     1      118.250145      711.225989
        16        17        18     1      121.013084      708.028679
        16        17        42     1      119.370682      427.621195
        17        16        41     1      119.522682      426.792643
        17        18        19     1      117.633606      614.164480
        17        18        21     1      121.178940      496.419093
        18        17        42     1      119.674911      429.339523
        18        19        20     1      121.013084      708.028679
        18        19        43     1      119.674911      429.339523
        18        21        22     1      127.869568      488.921589
        18        21        25     1      128.630585      539.679052
        19        18        21     1      121.178940      496.419093
        19        20        44     1      119.522682      426.792643
        20        19        43     1      119.370682      427.621195
        21        22        23     1      107.247787      167.360000
        21        22        45     1      131.407990      331.760824
        21        25        24     1      111.980637      249.501996
        21        25        46     1      128.584549      361.168720
        22        21        25     1      103.527061      389.604196
        22        23        24     1      112.250854      167.360000
        22        23        26     1      127.884483      457.542675
        23        22        45     1      121.528946      452.981651
        23        24        25     1      104.992416      549.357936
        23        26        27     1      113.984787      529.877559
        23        26        47     1      107.886841      549.268684
        23        26        48     1      107.886841      549.268684
        24        23        26     1      119.526123      588.609558
        24        25        46     1      119.442871      387.386298
        26        27        28     1      107.125839      573.838958
        26        27        29     1      110.321487      565.383813
        26        27        30     1      110.321487      565.383813
        27        26        47     1      109.345802      433.104012
        27        26        48     1      109.345802      433.104012
        27        28        49     1      107.884933      575.006515
        27        29        50     1      110.560303      472.203817
        27        29        51     1      110.560303      472.203817
        27        29        52     1      110.560303      472.203817
        27        30        53     1      110.560303      472.203817
        27        30        54     1      110.560303      472.203817
        27        30        55     1      110.560303      472.203817
        28        27        29     1      108.656029      664.399485
        28        27        30     1      108.656029      664.399485
        29        27        30     1      110.957909      612.395077
        35        10        36     1      106.967346      364.175843
        38        12        39     1      108.965492      342.583419
        38        12        40     1      108.965492      342.583419
        39        12        40     1      108.965492      342.583419
        47        26        48     1      108.338684      349.424778
        50        29        51     1      108.407753      359.387986
        50        29        52     1      108.407753      359.387986
        51        29        52     1      108.407753      359.387986
        53        30        54     1      108.407753      359.387986
        53        30        55     1      108.407753      359.387986
        54        30        55     1      108.407753      359.387986

[ dihedrals ] ; propers for gromacs 4.5 or higher, use funct 9
;       ai        aj        ak        al funct           phase               k        pn
         1         2         6         5     9        0.000000       -0.090667         1
         1         2         6         5     9      180.000000       19.620490         2
         1         2         6         5     9        0.000000       -2.393207         3
         1         2         6         5     9      180.000000       -0.485549         4
         1         2         6         7     9        0.000000       -0.378799         1
         1         2         6         7     9      180.000000       13.967524         2
         1         2         6         7     9        0.000000       -1.030488         3
         1         2         6         7     9      180.000000       -0.250572         4
         1         4         3         5     9        0.000000       -0.096886         1
         1         4         3         5     9      180.000000       22.112872         2
         1         4         3         5     9        0.000000       -1.551136         3
         1         4         3         5     9      180.000000       -0.670671         4
         1         4         3        32     9        0.000000        0.027742         1
         1         4         3        32     9      180.000000       14.732066         2
         1         4         3        32     9        0.000000       -0.475106         3
         1         4         3        32     9      180.000000        0.121735         4
         1        13        11        12     9        0.000000        2.438957         1
         1        13        11        12     9      180.000000       10.071367         2
         1        13        11        12     9        0.000000        1.322512         3
         1        13        11        12     9      180.000000       -0.187267         4
         1        13        11        37     9        0.000000       -0.318162         1
         1        13        11        37     9      180.000000        9.608922         2
         1        13        11        37     9        0.000000        0.517511         3
         1        13        11        37     9      180.000000        0.452021         4
         2         1         4         3     9        0.000000        0.076556         1
         2         1         4         3     9      180.000000       16.939495         2
         2         1         4         3     9        0.000000       -1.251516         3
         2         1         4         3     9      180.000000       -0.335693         4
         2         1         4        33     9        0.000000        0.048532         1
         2         1         4        33     9      180.000000       12.747912         2
         2         1         4        33     9        0.000000       -0.654503         3
         2         1         4        33     9      180.000000        0.093805         4
         2         1        13        11     9        0.000000       -0.468574         1
         2         1        13        11     9      180.000000        2.834047         2
         2         1        13        11     9        0.000000        0.253169         3
         2         1        13        11     9      180.000000       -0.432898         4
         2         1        13        14     9        0.000000        0.339003         1
         2         1        13        14     9      180.000000        3.563692         2
         2         1        13        14     9        0.000000        0.027822         3
         2         1        13        14     9      180.000000        0.003414         4
         2         6         5         3     9        0.000000       -0.271394         1
         2         6         5         3     9      180.000000       10.535755         2
         2         6         5         3     9        0.000000       -1.569540         3
         2         6         5         3     9      180.000000       -0.058197         4
         2         6         5         9     9        0.000000        0.323941         1
         2         6         5         9     9      180.000000        8.892708         2
         2         6         5         9     9        0.000000       -1.879982         3
         2         6         5         9     9      180.000000        0.119936         4
         2         6         7         8     9        0.000000       -0.222102         1
         2         6         7         8     9      180.000000        3.992947         2
         2         6         7         8     9        0.000000       -0.848417         3
         2         6         7         8     9      180.000000        0.035338         4
         2         6         7        10     9        0.000000       -0.421736         1
         2         6         7        10     9      180.000000        4.303453         2
         2         6         7        10     9        0.000000        0.227578         3
         2         6         7        10     9      180.000000        0.068937         4
         3         4         1        13     9        0.000000        0.172686         1
         3         4         1        13     9      180.000000       13.233951         2
         3         4         1        13     9        0.000000       -0.069259         3
         3         4         1        13     9      180.000000       -0.292980         4
         3         5         6         7     9        0.000000       -0.012435         1
         3         5         6         7     9      180.000000       11.284136         2
         3         5         6         7     9        0.000000       -2.379227         3
         3         5         6         7     9      180.000000       -0.022364         4
         3         5         9         8     9        0.000000        1.388441         1
         3         5         9         8     9      180.000000        5.518131         2
         3         5         9         8     9        0.000000        0.436876         3
         3         5         9         8     9      180.000000       -0.035399         4
         3         5         9        34     9        0.000000       -0.166869         1
         3         5         9        34     9      180.000000        1.510508         2
         3         5         9        34     9        0.000000        0.105208         3
         3         5         9        34     9      180.000000       -0.109495         4
         4         1         2         6     9        0.000000       -0.086851         1
         4         1         2         6     9      180.000000       20.821151         2
         4         1         2         6     9        0.000000       -1.577894         3
         4         1         2         6     9      180.000000       -0.636342         4
         4         1         2        31     9        0.000000        0.092699         1
         4         1         2        31     9      180.000000       14.782194         2
         4         1         2        31     9        0.000000       -0.450680         3
         4         1         2        31     9      180.000000       -0.020114         4
         4         1        13        11     9        0.000000        0.172034         1
         4         1        13        11     9      180.000000        3.050326         2
         4         1        13        11     9        0.000000        0.236605         3
         4         1        13        11     9      180.000000       -0.405162         4
         4         1        13        14     9        0.000000       -0.616433         1
         4         1        13        14     9      180.000000        3.769198         2
         4         1        13        14     9        0.000000        0.065461         3
         4         1        13        14     9      180.000000        0.014325         4
         4         3         5         6     9        0.000000       -0.143088         1
         4         3         5         6     9      180.000000       16.991253         2
         4         3         5         6     9        0.000000       -1.861123         3
         4         3         5         6     9      180.000000       -0.342420         4
         4         3         5         9     9        0.000000        0.243557         1
         4         3         5         9     9      180.000000       13.450507         2
         4         3         5         9     9        0.000000       -0.035851         3
         4         3         5         9     9      180.000000       -0.101953         4
         5         3         4        33     9        0.000000        0.128968         1
         5         3         4        33     9      180.000000       17.238455         2
         5         3         4        33     9        0.000000       -0.509989         3
         5         3         4        33     9      180.000000       -0.112149         4
         5         6         2        31     9        0.000000        0.332487         1
         5         6         2        31     9      180.000000       14.422248         2
         5         6         2        31     9        0.000000       -0.300372         3
         5         6         2        31     9      180.000000       -0.198783         4
         5         6         7         8     9        0.000000       -0.158769         1
         5         6         7         8     9      180.000000       30.941356         2
         5         6         7         8     9        0.000000       -9.488855         3
         5         6         7         8     9      180.000000       -0.194582         4
         5         6         7        10     9        0.000000        0.905037         1
         5         6         7        10     9      180.000000       14.493631         2
         5         6         7        10     9        0.000000        0.102784         3
         5         6         7        10     9      180.000000       -0.591530         4
         5         9         8         7     9        0.000000       -0.211795         1
         5         9         8         7     9      180.000000       17.216046         2
         5         9         8         7     9        0.000000       -2.171080         3
         5         9         8         7     9      180.000000       -1.162629         4
         6         2         1        13     9        0.000000        0.112814         1
         6         2         1        13     9      180.000000       17.265715         2
         6         2         1        13     9        0.000000       -0.178159         3
         6         2         1        13     9      180.000000       -0.696544         4
         6         5         3        32     9        0.000000        0.120539         1
         6         5         3        32     9      180.000000       11.348855         2
         6         5         3        32     9        0.000000       -0.291248         3
         6         5         3        32     9      180.000000        0.001313         4
         6         5         9         8     9        0.000000        0.392748         1
         6         5         9         8     9      180.000000       24.691452         2
         6         5         9         8     9        0.000000       -5.027374         3
         6         5         9         8     9      180.000000       -1.038516         4
         6         5         9        34     9        0.000000        0.295809         1
         6         5         9        34     9      180.000000        1.575659         2
         6         5         9        34     9        0.000000        0.501314         3
         6         5         9        34     9      180.000000        0.027061         4
         6         7         8         9     9        0.000000       -0.266285         1
         6         7         8         9     9      180.000000       41.431550         2
         6         7         8         9     9        0.000000       -4.759238         3
         6         7         8         9     9      180.000000       -0.129972         4
         6         7        10        15     9        0.000000        0.317253         1
         6         7        10        15     9      180.000000       -0.413399         2
         6         7        10        15     9        0.000000        0.587270         3
         6         7        10        15     9      180.000000        0.020653         4
         6         7        10        35     9        0.000000       -0.066563         1
         6         7        10        35     9      180.000000        0.143377         2
         6         7        10        35     9        0.000000        0.524138         3
         6         7        10        35     9      180.000000        0.014895         4
         6         7        10        36     9        0.000000       -0.066563         1
         6         7        10        36     9      180.000000        0.143377         2
         6         7        10        36     9        0.000000        0.524138         3
         6         7        10        36     9      180.000000        0.014895         4
         7         6         2        31     9        0.000000       -0.039757         1
         7         6         2        31     9      180.000000        9.771011         2
         7         6         2        31     9        0.000000       -0.000839         3
         7         6         2        31     9      180.000000        0.055041         4
         7         6         5         9     9        0.000000        0.171340         1
         7         6         5         9     9      180.000000       17.413611         2
         7         6         5         9     9        0.000000       -6.321762         3
         7         6         5         9     9      180.000000       -0.232743         4
         7         8         9        34     9        0.000000        2.366235         1
         7         8         9        34     9      180.000000        2.975894         2
         7         8         9        34     9        0.000000        0.435105         3
         7         8         9        34     9      180.000000        0.026087         4
         7        10        15        16     9        0.000000       -0.162197         1
         7        10        15        16     9      180.000000        0.171147         2
         7        10        15        16     9        0.000000        0.114997         3
         7        10        15        16     9      180.000000        0.021335         4
         7        10        15        20     9        0.000000       -0.162197         1
         7        10        15        20     9      180.000000        0.171147         2
         7        10        15        20     9        0.000000        0.114997         3
         7        10        15        20     9      180.000000        0.021335         4
         8         7        10        15     9        0.000000       -0.862580         1
         8         7        10        15     9      180.000000       -0.216635         2
         8         7        10        15     9        0.000000        0.027906         3
         8         7        10        15     9      180.000000        0.006368         4
         8         7        10        35     9        0.000000        0.219474         1
         8         7        10        35     9      180.000000        0.093663         2
         8         7        10        35     9        0.000000       -0.190341         3
         8         7        10        35     9      180.000000        0.040522         4
         8         7        10        36     9        0.000000        0.219474         1
         8         7        10        36     9      180.000000        0.093663         2
         8         7        10        36     9        0.000000       -0.190341         3
         8         7        10        36     9      180.000000        0.040522         4
         9         5         3        32     9        0.000000       -0.114805         1
         9         5         3        32     9      180.000000        9.684382         2
         9         5         3        32     9        0.000000       -0.071654         3
         9         5         3        32     9      180.000000        0.059257         4
         9         8         7        10     9        0.000000        0.492327         1
         9         8         7        10     9      180.000000       32.362694         2
         9         8         7        10     9        0.000000        0.809139         3
         9         8         7        10     9      180.000000       -0.860767         4
        10        15        16        17     9        0.000000        0.026860         1
        10        15        16        17     9      180.000000       15.135600         2
        10        15        16        17     9        0.000000       -0.170192         3
        10        15        16        17     9      180.000000       -0.215560         4
        10        15        16        41     9        0.000000       -0.086046         1
        10        15        16        41     9      180.000000       12.621826         2
        10        15        16        41     9        0.000000       -0.312532         3
        10        15        16        41     9      180.000000        0.160165         4
        10        15        20        19     9        0.000000        0.026860         1
        10        15        20        19     9      180.000000       15.135600         2
        10        15        20        19     9        0.000000       -0.170192         3
        10        15        20        19     9      180.000000       -0.215560         4
        10        15        20        44     9        0.000000       -0.086046         1
        10        15        20        44     9      180.000000       12.621826         2
        10        15        20        44     9        0.000000       -0.312532         3
        10        15        20        44     9      180.000000        0.160165         4
        12        11        13        14     9        0.000000       -3.020102         1
        12        11        13        14     9      180.000000        8.882419         2
        12        11        13        14     9        0.000000       -0.102929         3
        12        11        13        14     9      180.000000       -0.352841         4
        13         1         2        31     9        0.000000        0.155535         1
        13         1         2        31     9      180.000000       13.151942         2
        13         1         2        31     9        0.000000       -0.162661         3
        13         1         2        31     9      180.000000        0.043311         4
        13         1         4        33     9        0.000000        0.154988         1
        13         1         4        33     9      180.000000       12.143465         2
        13         1         4        33     9        0.000000       -0.227162         3
        13         1         4        33     9      180.000000        0.016836         4
        13        11        12        38     9        0.000000       -0.014510         1
        13        11        12        38     9      180.000000        0.029106         2
        13        11        12        38     9        0.000000        0.106987         3
        13        11        12        38     9      180.000000        0.015127         4
        13        11        12        39     9        0.000000       -0.014510         1
        13        11        12        39     9      180.000000        0.029106         2
        13        11        12        39     9        0.000000        0.106987         3
        13        11        12        39     9      180.000000        0.015127         4
        13        11        12        40     9        0.000000       -0.014510         1
        13        11        12        40     9      180.000000        0.029106         2
        13        11        12        40     9        0.000000        0.106987         3
        13        11        12        40     9      180.000000        0.015127         4
        14        13        11        37     9        0.000000        0.063890         1
        14        13        11        37     9      180.000000        9.973476         2
        14        13        11        37     9        0.000000        0.345190         3
        14        13        11        37     9      180.000000        0.057674         4
        15        16        17        18     9        0.000000       -0.033501         1
        15        16        17        18     9      180.000000       18.361802         2
        15        16        17        18     9        0.000000       -1.382122         3
        15        16        17        18     9      180.000000       -0.333748         4
        15        16        17        42     9        0.000000        0.009019         1
        15        16        17        42     9      180.000000       15.117729         2
        15        16        17        42     9        0.000000       -0.652997         3
        15        16        17        42     9      180.000000        0.089352         4
        15        20        19        18     9        0.000000       -0.033501         1
        15        20        19        18     9      180.000000       18.361802         2
        15        20        19        18     9        0.000000       -1.382122         3
        15        20        19        18     9      180.000000       -0.333748         4
        15        20        19        43     9        0.000000        0.009019         1
        15        20        19        43     9      180.000000       15.117731         2
        15        20        19        43     9        0.000000       -0.652997         3
        15        20        19        43     9      180.000000        0.089353         4
        16        15        10        35     9        0.000000        0.026652         1
        16        15        10        35     9      180.000000        0.014947         2
        16        15        10        35     9        0.000000        0.013547         3
        16        15        10        35     9      180.000000        0.009027         4
        16        15        10        36     9        0.000000        0.026652         1
        16        15        10        36     9      180.000000        0.014947         2
        16        15        10        36     9        0.000000        0.013547         3
        16        15        10        36     9      180.000000        0.009027         4
        16        15        20        19     9        0.000000       -0.017692         1
        16        15        20        19     9      180.000000       18.652768         2
        16        15        20        19     9        0.000000       -1.225804         3
        16        15        20        19     9      180.000000       -0.466466         4
        16        15        20        44     9        0.000000        0.019722         1
        16        15        20        44     9      180.000000       14.478142         2
        16        15        20        44     9        0.000000       -0.483578         3
        16        15        20        44     9      180.000000        0.000311         4
        16        17        18        19     9        0.000000       -0.080966         1
        16        17        18        19     9      180.000000       18.153112         2
        16        17        18        19     9        0.000000       -1.373641         3
        16        17        18        19     9      180.000000       -0.356348         4
        16        17        18        21     9        0.000000        0.337812         1
        16        17        18        21     9      180.000000       16.651850         2
        16        17        18        21     9        0.000000       -0.112812         3
        16        17        18        21     9      180.000000       -0.390715         4
        17        16        15        20     9        0.000000       -0.017692         1
        17        16        15        20     9      180.000000       18.652768         2
        17        16        15        20     9        0.000000       -1.225804         3
        17        16        15        20     9      180.000000       -0.466466         4
        17        18        19        20     9        0.000000       -0.080966         1
        17        18        19        20     9      180.000000       18.153112         2
        17        18        19        20     9        0.000000       -1.373641         3
        17        18        19        20     9      180.000000       -0.356348         4
        17        18        19        43     9        0.000000       -0.122536         1
        17        18        19        43     9      180.000000       13.854594         2
        17        18        19        43     9        0.000000       -0.550856         3
        17        18        19        43     9      180.000000        0.073352         4
        17        18        21        22     9        0.000000        0.209655         1
        17        18        21        22     9      180.000000        2.490202         2
        17        18        21        22     9        0.000000        0.088789         3
        17        18        21        22     9      180.000000       -0.316679         4
        17        18        21        25     9        0.000000       -0.002741         1
        17        18        21        25     9      180.000000        2.079037         2
        17        18        21        25     9        0.000000       -0.058462         3
        17        18        21        25     9      180.000000       -0.238712         4
        18        17        16        41     9        0.000000       -0.019661         1
        18        17        16        41     9      180.000000       14.564297         2
        18        17        16        41     9        0.000000       -0.438149         3
        18        17        16        41     9      180.000000        0.148899         4
        18        19        20        44     9        0.000000       -0.019661         1
        18        19        20        44     9      180.000000       14.564298         2
        18        19        20        44     9        0.000000       -0.438149         3
        18        19        20        44     9      180.000000        0.148899         4
        18        21        22        23     9        0.000000        0.181778         1
        18        21        22        23     9      180.000000       16.495919         2
        18        21        22        23     9        0.000000       -0.117777         3
        18        21        22        23     9      180.000000       -0.982269         4
        18        21        22        45     9        0.000000       -0.180074         1
        18        21        22        45     9      180.000000       10.835175         2
        18        21        22        45     9        0.000000       -0.108231         3
        18        21        22        45     9      180.000000       -0.018809         4
        18        21        25        24     9        0.000000        0.377700         1
        18        21        25        24     9      180.000000       15.415752         2
        18        21        25        24     9        0.000000       -0.377501         3
        18        21        25        24     9      180.000000       -0.958879         4
        18        21        25        46     9        0.000000       -0.140003         1
        18        21        25        46     9      180.000000       10.302636         2
        18        21        25        46     9        0.000000       -0.038918         3
        18        21        25        46     9      180.000000        0.045426         4
        19        18        17        42     9        0.000000       -0.122536         1
        19        18        17        42     9      180.000000       13.854592         2
        19        18        17        42     9        0.000000       -0.550856         3
        19        18        17        42     9      180.000000        0.073352         4
        19        18        21        22     9        0.000000        0.209655         1
        19        18        21        22     9      180.000000        2.490202         2
        19        18        21        22     9        0.000000        0.088789         3
        19        18        21        22     9      180.000000       -0.316679         4
        19        18        21        25     9        0.000000       -0.002741         1
        19        18        21        25     9      180.000000        2.079037         2
        19        18        21        25     9        0.000000       -0.058462         3
        19        18        21        25     9      180.000000       -0.238712         4
        20        15        10        35     9        0.000000        0.026652         1
        20        15        10        35     9      180.000000        0.014947         2
        20        15        10        35     9        0.000000        0.013547         3
        20        15        10        35     9      180.000000        0.009027         4
        20        15        10        36     9        0.000000        0.026652         1
        20        15        10        36     9      180.000000        0.014947         2
        20        15        10        36     9        0.000000        0.013547         3
        20        15        10        36     9      180.000000        0.009027         4
        20        15        16        41     9        0.000000        0.019722         1
        20        15        16        41     9      180.000000       14.478141         2
        20        15        16        41     9        0.000000       -0.483578         3
        20        15        16        41     9      180.000000        0.000311         4
        20        19        18        21     9        0.000000        0.337812         1
        20        19        18        21     9      180.000000       16.651850         2
        20        19        18        21     9        0.000000       -0.112812         3
        20        19        18        21     9      180.000000       -0.390715         4
        21        18        17        42     9        0.000000        0.152327         1
        21        18        17        42     9      180.000000       13.451499         2
        21        18        17        42     9        0.000000       -0.089974         3
        21        18        17        42     9      180.000000        0.134569         4
        21        18        19        43     9        0.000000        0.152328         1
        21        18        19        43     9      180.000000       13.451499         2
        21        18        19        43     9        0.000000       -0.089974         3
        21        18        19        43     9      180.000000        0.134569         4
        21        22        23        24     9        0.000000        0.067823         1
        21        22        23        24     9      180.000000       29.408427         2
        21        22        23        24     9        0.000000       -6.598225         3
        21        22        23        24     9      180.000000       -0.391233         4
        21        22        23        26     9        0.000000        0.920834         1
        21        22        23        26     9      180.000000        6.424494         2
        21        22        23        26     9        0.000000        0.894829         3
        21        22        23        26     9      180.000000       -0.205464         4
        21        25        24        23     9        0.000000        0.120525         1
        21        25        24        23     9      180.000000       40.234454         2
        21        25        24        23     9        0.000000       -5.927937         3
        21        25        24        23     9      180.000000       -0.052384         4
        22        21        25        24     9        0.000000       -0.126019         1
        22        21        25        24     9      180.000000       30.671116         2
        22        21        25        24     9        0.000000       -8.071729         3
        22        21        25        24     9      180.000000       -0.025756         4
        22        21        25        46     9        0.000000        0.205741         1
        22        21        25        46     9      180.000000       14.398578         2
        22        21        25        46     9        0.000000       -0.543013         3
        22        21        25        46     9      180.000000       -0.478157         4
        22        23        24        25     9        0.000000       -0.330102         1
        22        23        24        25     9      180.000000       27.455367         2
        22        23        24        25     9        0.000000       -4.266985         3
        22        23        24        25     9      180.000000        0.112207         4
        22        23        26        27     9        0.000000        1.592675         1
        22        23        26        27     9      180.000000       -1.918810         2
        22        23        26        27     9        0.000000        0.233994         3
        22        23        26        27     9      180.000000        0.097027         4
        22        23        26        47     9        0.000000       -0.094814         1
        22        23        26        47     9      180.000000        0.149533         2
        22        23        26        47     9        0.000000        0.314214         3
        22        23        26        47     9      180.000000        0.057996         4
        22        23        26        48     9        0.000000       -0.094814         1
        22        23        26        48     9      180.000000        0.149533         2
        22        23        26        48     9        0.000000        0.314214         3
        22        23        26        48     9      180.000000        0.057996         4
        23        22        21        25     9        0.000000       -0.258314         1
        23        22        21        25     9      180.000000       30.676086         2
        23        22        21        25     9        0.000000       -8.443492         3
        23        22        21        25     9      180.000000        0.030601         4
        23        24        25        46     9        0.000000        1.087426         1
        23        24        25        46     9      180.000000       28.323198         2
        23        24        25        46     9        0.000000       -0.464792         3
        23        24        25        46     9      180.000000       -0.224991         4
        23        26        27        28     9        0.000000       -4.026157         1
        23        26        27        28     9      180.000000       -0.404938         2
        23        26        27        28     9        0.000000        0.504902         3
        23        26        27        28     9      180.000000        0.024815         4
        23        26        27        29     9        0.000000       -1.007344         1
        23        26        27        29     9      180.000000        0.766063         2
        23        26        27        29     9        0.000000        0.676848         3
        23        26        27        29     9      180.000000        0.001285         4
        23        26        27        30     9        0.000000       -1.007344         1
        23        26        27        30     9      180.000000        0.766063         2
        23        26        27        30     9        0.000000        0.676848         3
        23        26        27        30     9      180.000000        0.001285         4
        24        23        22        45     9        0.000000        1.397302         1
        24        23        22        45     9      180.000000       12.537190         2
        24        23        22        45     9        0.000000        0.301733         3
        24        23        22        45     9      180.000000       -0.383436         4
        24        23        26        27     9        0.000000       -1.937547         1
        24        23        26        27     9      180.000000       -1.202326         2
        24        23        26        27     9        0.000000        0.240413         3
        24        23        26        27     9      180.000000        0.036382         4
        24        23        26        47     9        0.000000        0.225406         1
        24        23        26        47     9      180.000000        0.165418         2
        24        23        26        47     9        0.000000        0.272217         3
        24        23        26        47     9      180.000000        0.042239         4
        24        23        26        48     9        0.000000        0.225406         1
        24        23        26        48     9      180.000000        0.165418         2
        24        23        26        48     9        0.000000        0.272217         3
        24        23        26        48     9      180.000000        0.042239         4
        25        21        22        45     9        0.000000        0.052286         1
        25        21        22        45     9      180.000000       13.296508         2
        25        21        22        45     9        0.000000       -0.615840         3
        25        21        22        45     9      180.000000       -0.302026         4
        25        24        23        26     9        0.000000        1.141861         1
        25        24        23        26     9      180.000000        9.539962         2
        25        24        23        26     9        0.000000        0.726610         3
        25        24        23        26     9      180.000000       -0.167322         4
        26        23        22        45     9        0.000000       -0.614325         1
        26        23        22        45     9      180.000000        4.129572         2
        26        23        22        45     9        0.000000        0.070139         3
        26        23        22        45     9      180.000000        0.060103         4
        26        27        28        49     9        0.000000        2.785264         1
        26        27        28        49     9      180.000000       -1.898092         2
        26        27        28        49     9        0.000000        1.442284         3
        26        27        28        49     9      180.000000       -0.003076         4
        26        27        29        50     9        0.000000       -0.100586         1
        26        27        29        50     9      180.000000        0.050694         2
        26        27        29        50     9        0.000000        0.423267         3
        26        27        29        50     9      180.000000        0.023943         4
        26        27        29        51     9        0.000000       -0.100586         1
        26        27        29        51     9      180.000000        0.050694         2
        26        27        29        51     9        0.000000        0.423267         3
        26        27        29        51     9      180.000000        0.023943         4
        26        27        29        52     9        0.000000       -0.100586         1
        26        27        29        52     9      180.000000        0.050694         2
        26        27        29        52     9        0.000000        0.423267         3
        26        27        29        52     9      180.000000        0.023943         4
        26        27        30        53     9        0.000000       -0.100586         1
        26        27        30        53     9      180.000000        0.050694         2
        26        27        30        53     9        0.000000        0.423267         3
        26        27        30        53     9      180.000000        0.023943         4
        26        27        30        54     9        0.000000       -0.100586         1
        26        27        30        54     9      180.000000        0.050694         2
        26        27        30        54     9        0.000000        0.423267         3
        26        27        30        54     9      180.000000        0.023943         4
        26        27        30        55     9        0.000000       -0.100586         1
        26        27        30        55     9      180.000000        0.050694         2
        26        27        30        55     9        0.000000        0.423267         3
        26        27        30        55     9      180.000000        0.023943         4
        28        27        26        47     9        0.000000        0.270475         1
        28        27        26        47     9      180.000000       -0.048231         2
        28        27        26        47     9        0.000000        0.598608         3
        28        27        26        47     9      180.000000        0.008765         4
        28        27        26        48     9        0.000000        0.270475         1
        28        27        26        48     9      180.000000       -0.048231         2
        28        27        26        48     9        0.000000        0.598608         3
        28        27        26        48     9      180.000000        0.008765         4
        28        27        29        50     9        0.000000        0.042878         1
        28        27        29        50     9      180.000000        0.004962         2
        28        27        29        50     9        0.000000        0.459315         3
        28        27        29        50     9      180.000000        0.032649         4
        28        27        29        51     9        0.000000        0.042878         1
        28        27        29        51     9      180.000000        0.004962         2
        28        27        29        51     9        0.000000        0.459315         3
        28        27        29        51     9      180.000000        0.032649         4
        28        27        29        52     9        0.000000        0.042878         1
        28        27        29        52     9      180.000000        0.004962         2
        28        27        29        52     9        0.000000        0.459315         3
        28        27        29        52     9      180.000000        0.032649         4
        28        27        30        53     9        0.000000        0.042878         1
        28        27        30        53     9      180.000000        0.004962         2
        28        27        30        53     9        0.000000        0.459315         3
        28        27        30        53     9      180.000000        0.032649         4
        28        27        30        54     9        0.000000        0.042878         1
        28        27        30        54     9      180.000000        0.004962         2
        28        27        30        54     9        0.000000        0.459315         3
        28        27        30        54     9      180.000000        0.032649         4
        28        27        30        55     9        0.000000        0.042878         1
        28        27        30        55     9      180.000000        0.004962         2
        28        27        30        55     9        0.000000        0.459315         3
        28        27        30        55     9      180.000000        0.032649         4
        29        27        26        47     9        0.000000       -0.054697         1
        29        27        26        47     9      180.000000       -0.093179         2
        29        27        26        47     9        0.000000        0.670503         3
        29        27        26        47     9      180.000000        0.056175         4
        29        27        26        48     9        0.000000       -0.054697         1
        29        27        26        48     9      180.000000       -0.093179         2
        29        27        26        48     9        0.000000        0.670503         3
        29        27        26        48     9      180.000000        0.056175         4
        29        27        28        49     9        0.000000       -1.254859         1
        29        27        28        49     9      180.000000        1.010473         2
        29        27        28        49     9        0.000000        0.948663         3
        29        27        28        49     9      180.000000        0.060520         4
        29        27        30        53     9        0.000000       -0.071037         1
        29        27        30        53     9      180.000000       -0.002609         2
        29        27        30        53     9        0.000000        0.528247         3
        29        27        30        53     9      180.000000        0.051773         4
        29        27        30        54     9        0.000000       -0.071037         1
        29        27        30        54     9      180.000000       -0.002609         2
        29        27        30        54     9        0.000000        0.528247         3
        29        27        30        54     9      180.000000        0.051773         4
        29        27        30        55     9        0.000000       -0.071037         1
        29        27        30        55     9      180.000000       -0.002609         2
        29        27        30        55     9        0.000000        0.528247         3
        29        27        30        55     9      180.000000        0.051773         4
        30        27        26        47     9        0.000000       -0.054697         1
        30        27        26        47     9      180.000000       -0.093179         2
        30        27        26        47     9        0.000000        0.670503         3
        30        27        26        47     9      180.000000        0.056175         4
        30        27        26        48     9        0.000000       -0.054697         1
        30        27        26        48     9      180.000000       -0.093179         2
        30        27        26        48     9        0.000000        0.670503         3
        30        27        26        48     9      180.000000        0.056175         4
        30        27        28        49     9        0.000000       -1.254859         1
        30        27        28        49     9      180.000000        1.010473         2
        30        27        28        49     9        0.000000        0.948663         3
        30        27        28        49     9      180.000000        0.060520         4
        30        27        29        50     9        0.000000       -0.071037         1
        30        27        29        50     9      180.000000       -0.002609         2
        30        27        29        50     9        0.000000        0.528247         3
        30        27        29        50     9      180.000000        0.051773         4
        30        27        29        51     9        0.000000       -0.071037         1
        30        27        29        51     9      180.000000       -0.002609         2
        30        27        29        51     9        0.000000        0.528247         3
        30        27        29        51     9      180.000000        0.051773         4
        30        27        29        52     9        0.000000       -0.071037         1
        30        27        29        52     9      180.000000       -0.002609         2
        30        27        29        52     9        0.000000        0.528247         3
        30        27        29        52     9      180.000000        0.051773         4
        32         3         4        33     9        0.000000       -0.052824         1
        32         3         4        33     9      180.000000       12.555028         2
        32         3         4        33     9        0.000000       -0.658769         3
        32         3         4        33     9      180.000000        0.295185         4
        37        11        12        38     9        0.000000       -0.030955         1
        37        11        12        38     9      180.000000        0.024930         2
        37        11        12        38     9        0.000000        0.474233         3
        37        11        12        38     9      180.000000       -0.000107         4
        37        11        12        39     9        0.000000       -0.030955         1
        37        11        12        39     9      180.000000        0.024930         2
        37        11        12        39     9        0.000000        0.474233         3
        37        11        12        39     9      180.000000       -0.000107         4
        37        11        12        40     9        0.000000       -0.030955         1
        37        11        12        40     9      180.000000        0.024930         2
        37        11        12        40     9        0.000000        0.474233         3
        37        11        12        40     9      180.000000       -0.000107         4
        41        16        17        42     9        0.000000       -0.173270         1
        41        16        17        42     9      180.000000       12.433056         2
        41        16        17        42     9        0.000000       -0.660707         3
        41        16        17        42     9      180.000000        0.303153         4
        43        19        20        44     9        0.000000       -0.173269         1
        43        19        20        44     9      180.000000       12.433055         2
        43        19        20        44     9        0.000000       -0.660707         3
        43        19        20        44     9      180.000000        0.303153         4

[ dihedrals ] ; impropers
;       ai        aj        ak        al funct           phase               k        pn
        13         1        11        14     4      180.000000       27.893333         2
        13        11        14         1     4      180.000000       27.893333         2
        13        14         1        11     4      180.000000       27.893333         2
        16        15        17        41     4      180.000000        1.374161         2
        16        17        41        15     4      180.000000        1.374161         2
        16        41        15        17     4      180.000000        1.374161         2
        20        15        19        44     4      180.000000        1.374160         2
        20        19        44        15     4      180.000000        1.374160         2
        20        44        15        19     4      180.000000        1.374160         2

[ pairs ]
;       ai        aj funct
         1         5     1
         1         7     1
         1        12     1
         1        32     1
         1        37     1
         2         3     1
         2         8     1
         2         9     1
         2        10     1
         2        11     1
         2        14     1
         2        33     1
         3         7     1
         3         8     1
         3        13     1
         3        34     1
         4         6     1
         4         9     1
         4        11     1
         4        14     1
         4        31     1
         5        10     1
         5        31     1
         5        33     1
         6        13     1
         6        15     1
         6        32     1
         6        34     1
         6        35     1
         6        36     1
         7        16     1
         7        20     1
         7        31     1
         7        34     1
         8        15     1
         8        35     1
         8        36     1
         9        10     1
         9        32     1
        10        17     1
        10        19     1
        10        41     1
        10        44     1
        12        14     1
        13        31     1
        13        33     1
        13        38     1
        13        39     1
        13        40     1
        14        37     1
        15        18     1
        15        42     1
        15        43     1
        16        19     1
        16        21     1
        16        35     1
        16        36     1
        16        44     1
        17        20     1
        17        22     1
        17        25     1
        17        43     1
        18        23     1
        18        24     1
        18        41     1
        18        44     1
        18        45     1
        18        46     1
        19        22     1
        19        25     1
        19        42     1
        20        21     1
        20        35     1
        20        36     1
        20        41     1
        21        26     1
        21        42     1
        21        43     1
        22        27     1
        22        46     1
        22        47     1
        22        48     1
        23        28     1
        23        29     1
        23        30     1
        23        46     1
        24        27     1
        24        45     1
        24        47     1
        24        48     1
        25        26     1
        25        45     1
        26        45     1
        26        49     1
        26        50     1
        26        51     1
        26        52     1
        26        53     1
        26        54     1
        26        55     1
        28        47     1
        28        48     1
        28        50     1
        28        51     1
        28        52     1
        28        53     1
        28        54     1
        28        55     1
        29        47     1
        29        48     1
        29        49     1
        29        53     1
        29        54     1
        29        55     1
        30        47     1
        30        48     1
        30        49     1
        30        50     1
        30        51     1
        30        52     1
        32        33     1
        37        38     1
        37        39     1
        37        40     1
        41        42     1
        43        44     1
