; ITP file created by ByteFF-ML, 2026-02-21 07:35:51.548143

[ atomtypes ]
;name           bonded.type        at.num        mass        charge   ptype           sigma         epsilon
 c0bf                                   6      0.0000       0.00000       A     3.31290e-01     4.11382e-01
 c1bf                                   6      0.0000       0.00000       A     3.31385e-01     4.13479e-01
 c2bf                                   6      0.0000       0.00000       A     3.31499e-01     4.12713e-01
 c3bf                                   6      0.0000       0.00000       A     3.31518e-01     4.13861e-01
 c4bf                                   6      0.0000       0.00000       A     3.31540e-01     4.12586e-01
 c5bf                                   6      0.0000       0.00000       A     3.31475e-01     4.12402e-01
 c6bf                                   6      0.0000       0.00000       A     3.31444e-01     4.11500e-01
 n7bf                                   7      0.0000       0.00000       A     3.38151e-01     3.91342e-01
 n8bf                                   7      0.0000       0.00000       A     3.20440e-01     8.58154e-01
 c9bf                                   6      0.0000       0.00000       A     3.39892e-01     4.51463e-01
 c10bf                                  6      0.0000       0.00000       A     3.31639e-01     4.13377e-01
 c11bf                                  6      0.0000       0.00000       A     3.31526e-01     4.13182e-01
 c12bf                                  6      0.0000       0.00000       A     3.31408e-01     4.13210e-01
 c13bf                                  6      0.0000       0.00000       A     3.31502e-01     4.12536e-01
 c14bf                                  6      0.0000       0.00000       A     3.31322e-01     4.13227e-01
 c15bf                                  6      0.0000       0.00000       A     3.31502e-01     4.12536e-01
 c16bf                                  6      0.0000       0.00000       A     3.31408e-01     4.13210e-01
 c17bf                                  6      0.0000       0.00000       A     3.31350e-01     4.11687e-01
 c18bf                                  6      0.0000       0.00000       A     3.31475e-01     4.11821e-01
 n19bf                                  7      0.0000       0.00000       A     3.20558e-01     8.54076e-01
 n20bf                                  7      0.0000       0.00000       A     3.38391e-01     3.93249e-01
 c21bf                                  6      0.0000       0.00000       A     3.31594e-01     4.13789e-01
 c22bf                                  6      0.0000       0.00000       A     3.39839e-01     4.51932e-01
 n23bf                                  7      0.0000       0.00000       A     3.20567e-01     8.54571e-01
 c24bf                                  6      0.0000       0.00000       A     3.31476e-01     4.12997e-01
 c25bf                                  6      0.0000       0.00000       A     3.31552e-01     4.11655e-01
 n26bf                                  7      0.0000       0.00000       A     3.38512e-01     3.92175e-01
 c27bf                                  6      0.0000       0.00000       A     3.39757e-01     4.50473e-01
 h28bf                                  1      0.0000       0.00000       A     2.62421e-01     6.75792e-02
 h29bf                                  1      0.0000       0.00000       A     2.62462e-01     6.69439e-02
 h30bf                                  1      0.0000       0.00000       A     2.62593e-01     6.75760e-02
 h31bf                                  1      0.0000       0.00000       A     1.10602e-01     4.12983e-02
 h32bf                                  1      0.0000       0.00000       A     2.60090e-01     8.80823e-02
 h33bf                                  1      0.0000       0.00000       A     2.60090e-01     8.80823e-02
 h34bf                                  1      0.0000       0.00000       A     2.62498e-01     6.75473e-02
 h35bf                                  1      0.0000       0.00000       A     2.62482e-01     6.74643e-02
 h36bf                                  1      0.0000       0.00000       A     2.62482e-01     6.74643e-02
 h37bf                                  1      0.0000       0.00000       A     2.62498e-01     6.75473e-02
 h38bf                                  1      0.0000       0.00000       A     2.53807e-01     6.74898e-02
 h39bf                                  1      0.0000       0.00000       A     2.53933e-01     6.69200e-02
 h40bf                                  1      0.0000       0.00000       A     2.41990e-01     8.77359e-02
 h41bf                                  1      0.0000       0.00000       A     2.41990e-01     8.77359e-02
 h42bf                                  1      0.0000       0.00000       A     2.41990e-01     8.77359e-02
 h43bf                                  1      0.0000       0.00000       A     2.53886e-01     6.70636e-02
 h44bf                                  1      0.0000       0.00000       A     2.53997e-01     6.72025e-02
 h45bf                                  1      0.0000       0.00000       A     2.42041e-01     8.74806e-02
 h46bf                                  1      0.0000       0.00000       A     2.42041e-01     8.74806e-02
 h47bf                                  1      0.0000       0.00000       A     2.42041e-01     8.74806e-02

[ moleculetype ]
;name             nrexcl
 22                    3

[ atoms ]
;       nr            type      resi   res      atom      cgnr      charge          mass ; qtot
         1            c0bf         1   UNL        c0         1    -0.17021       12.0110 ; qtot   -0.170
         2            c1bf         1   UNL        c1         2    -0.00525       12.0110 ; qtot   -0.175
         3            c2bf         1   UNL        c2         3    -0.14619       12.0110 ; qtot   -0.322
         4            c3bf         1   UNL        c3         4    -0.05270       12.0110 ; qtot   -0.374
         5            c4bf         1   UNL        c4         5    -0.00876       12.0110 ; qtot   -0.383
         6            c5bf         1   UNL        c5         6    -0.22739       12.0110 ; qtot   -0.610
         7            c6bf         1   UNL        c6         7     0.35846       12.0110 ; qtot   -0.252
         8            n7bf         1   UNL        n7         8    -0.50590       14.0070 ; qtot   -0.758
         9            n8bf         1   UNL        n8         9    -0.08001       14.0070 ; qtot   -0.838
        10            c9bf         1   UNL        c9        10    -0.03968       12.0110 ; qtot   -0.878
        11           c10bf         1   UNL       c10        11     0.46838       12.0110 ; qtot   -0.409
        12           c11bf         1   UNL       c11        12    -0.08002       12.0110 ; qtot   -0.489
        13           c12bf         1   UNL       c12        13    -0.10203       12.0110 ; qtot   -0.591
        14           c13bf         1   UNL       c13        14    -0.11007       12.0110 ; qtot   -0.701
        15           c14bf         1   UNL       c14        15     0.00438       12.0110 ; qtot   -0.697
        16           c15bf         1   UNL       c15        16    -0.11007       12.0110 ; qtot   -0.807
        17           c16bf         1   UNL       c16        17    -0.10203       12.0110 ; qtot   -0.909
        18           c17bf         1   UNL       c17        18    -0.16403       12.0110 ; qtot   -1.073
        19           c18bf         1   UNL       c18        19    -0.14400       12.0110 ; qtot   -1.217
        20           n19bf         1   UNL       n19        20     0.11171       14.0070 ; qtot   -1.105
        21           n20bf         1   UNL       n20        21    -0.52174       14.0070 ; qtot   -1.627
        22           c21bf         1   UNL       c21        22     0.25349       12.0110 ; qtot   -1.374
        23           c22bf         1   UNL       c22        23     0.07027       12.0110 ; qtot   -1.303
        24           n23bf         1   UNL       n23        24    -0.17664       14.0070 ; qtot   -1.480
        25           c24bf         1   UNL       c24        25    -0.22228       12.0110 ; qtot   -1.702
        26           c25bf         1   UNL       c25        26     0.22920       12.0110 ; qtot   -1.473
        27           n26bf         1   UNL       n26        27    -0.67429       14.0070 ; qtot   -2.147
        28           c27bf         1   UNL       c27        28     0.05756       12.0110 ; qtot   -2.090
        29           h28bf         1   UNL       h28        29     0.13439        1.0080 ; qtot   -1.955
        30           h29bf         1   UNL       h29        30     0.12806        1.0080 ; qtot   -1.827
        31           h30bf         1   UNL       h30        31     0.12539        1.0080 ; qtot   -1.702
        32           h31bf         1   UNL       h31        32     0.37621        1.0080 ; qtot   -1.326
        33           h32bf         1   UNL       h32        33     0.06255        1.0080 ; qtot   -1.263
        34           h33bf         1   UNL       h33        34     0.06255        1.0080 ; qtot   -1.201
        35           h34bf         1   UNL       h34        35     0.11797        1.0080 ; qtot   -1.083
        36           h35bf         1   UNL       h35        36     0.11784        1.0080 ; qtot   -0.965
        37           h36bf         1   UNL       h36        37     0.11784        1.0080 ; qtot   -0.847
        38           h37bf         1   UNL       h37        38     0.11797        1.0080 ; qtot   -0.729
        39           h38bf         1   UNL       h38        39     0.15375        1.0080 ; qtot   -0.575
        40           h39bf         1   UNL       h39        40     0.03800        1.0080 ; qtot   -0.537
        41           h40bf         1   UNL       h40        41     0.05817        1.0080 ; qtot   -0.479
        42           h41bf         1   UNL       h41        42     0.05817        1.0080 ; qtot   -0.421
        43           h42bf         1   UNL       h42        43     0.05817        1.0080 ; qtot   -0.363
        44           h43bf         1   UNL       h43        44     0.15427        1.0080 ; qtot   -0.209
        45           h44bf         1   UNL       h44        45     0.03853        1.0080 ; qtot   -0.170
        46           h45bf         1   UNL       h45        46     0.05668        1.0080 ; qtot   -0.113
        47           h46bf         1   UNL       h46        47     0.05668        1.0080 ; qtot   -0.057
        48           h47bf         1   UNL       h47        48     0.05665        1.0080 ; qtot   -0.000

[ bonds ]
;       ai        aj funct               r               k
         1         2     1        0.139650   303141.908643
         1         4     1        0.142570   252973.108105
         1        11     1        0.147063   225931.250098
         2         6     1        0.140392   306447.125635
         2        29     1        0.108472   323042.135254
         3         4     1        0.138578   349354.730029
         3         5     1        0.140597   300922.580615
         3        30     1        0.108568   320840.427832
         4        31     1        0.108465   322456.390576
         5         6     1        0.141880   251651.945752
         5         9     1        0.136861   290226.132520
         6         7     1        0.143804   232118.764014
         7         8     1        0.132650   371286.357080
         7        10     1        0.150271   213660.860571
         8         9     1        0.136401   241851.313916
         9        32     1        0.100927   434980.632227
        10        12     1        0.151889   191838.442969
        10        33     1        0.109486   294999.682227
        10        34     1        0.109486   294999.682227
        11        24     1        0.138141   246119.305469
        11        27     1        0.133012   336811.540332
        12        13     1        0.140132   290757.355469
        12        17     1        0.140132   290757.355469
        13        14     1        0.139531   320296.512939
        13        35     1        0.108704   315886.049854
        14        15     1        0.140685   283825.179443
        14        36     1        0.108584   318696.102295
        15        16     1        0.140685   283825.179443
        15        18     1        0.146859   235591.683203
        16        17     1        0.139531   320296.512939
        16        37     1        0.108584   318696.127832
        17        38     1        0.108704   315886.075391
        18        19     1        0.139499   320805.390918
        18        22     1        0.142378   259368.136572
        19        20     1        0.135856   314480.283057
        19        39     1        0.108071   337590.039111
        20        21     1        0.135354   242037.913574
        20        23     1        0.145314   224810.528516
        21        22     1        0.133400   358572.221973
        22        40     1        0.108233   332445.307520
        23        41     1        0.109196   305692.172070
        23        42     1        0.109196   305692.172070
        23        43     1        0.109196   305692.172070
        24        25     1        0.138229   274384.339941
        24        28     1        0.145787   218709.406641
        25        26     1        0.137949   360144.592871
        25        44     1        0.108036   339766.898926
        26        27     1        0.137258   265909.033008
        26        45     1        0.108197   334245.341748
        28        46     1        0.109170   305164.345557
        28        47     1        0.109170   305164.345557
        28        48     1        0.109170   305164.345557

[ angles ]
;       ai        aj        ak funct           theta             cth
         1         2         6     1      118.949417      673.350944
         1         2        29     1      120.241417      419.036544
         1         4         3     1      122.218140      637.875686
         1         4        31     1      118.598022      438.567262
         1        11        24     1      125.322594      438.069512
         1        11        27     1      124.047020      435.436380
         2         1         4     1      119.836708      612.984282
         2         1        11     1      120.364967      480.409560
         2         6         5     1      119.914650      752.394874
         2         6         7     1      135.468811      434.214685
         3         4        31     1      119.324120      406.025930
         3         5         6     1      121.700951      608.627332
         3         5         9     1      132.517258      480.594002
         4         1        11     1      119.856369      562.009148
         4         3         5     1      117.201378      765.049214
         4         3        30     1      121.056480      436.232627
         5         3        30     1      121.934250      435.840505
         5         6         7     1      104.801376      486.028969
         5         9         8     1      112.331261      425.906889
         5         9        32     1      128.741333      380.952542
         6         2        29     1      120.975609      409.747676
         6         5         9     1      105.782028      167.360000
         6         7         8     1      110.705711      357.671701
         6         7        10     1      127.838905      447.766463
         7         8         9     1      106.507202      543.698976
         7        10        12     1      113.108765      519.878440
         7        10        33     1      108.502419      514.091028
         7        10        34     1      108.502419      514.091028
         8         7        10     1      121.630432      449.408786
         8         9        32     1      118.789017      482.596877
        10        12        13     1      120.885033      486.548234
        10        12        17     1      120.885033      486.548234
        11        24        25     1      106.985214      167.360000
        11        24        28     1      128.483688      460.032575
        11        27        26     1      106.201988      442.625970
        12        10        33     1      109.614029      493.993834
        12        10        34     1      109.614029      493.993834
        12        13        14     1      120.959518      705.842064
        12        13        35     1      119.502907      394.245725
        12        17        16     1      120.959518      705.842064
        12        17        38     1      119.502907      394.245725
        13        12        17     1      118.250145      711.225989
        13        14        15     1      121.013084      708.028679
        13        14        36     1      119.370682      427.621195
        14        13        35     1      119.522682      426.792643
        14        15        16     1      117.633606      614.164480
        14        15        18     1      121.173790      498.107383
        15        14        36     1      119.674911      429.339523
        15        16        17     1      121.013084      708.028679
        15        16        37     1      119.674911      429.339523
        15        18        19     1      127.875488      501.485943
        15        18        22     1      128.618073      539.877859
        16        15        18     1      121.173790      498.107383
        16        17        38     1      119.522682      426.792643
        17        16        37     1      119.370682      427.621195
        18        19        20     1      107.253334      167.360000
        18        19        39     1      131.309311      330.526743
        18        22        21     1      111.985497      241.969059
        18        22        40     1      128.583298      361.836739
        19        18        22     1      103.527756      370.968905
        19        20        21     1      112.317947      213.505126
        19        20        23     1      128.036591      424.086540
        20        19        39     1      121.687912      464.045604
        20        21        22     1      104.970230      567.675768
        20        23        41     1      109.593666      496.372137
        20        23        42     1      109.593666      496.372137
        20        23        43     1      109.593666      496.372137
        21        20        23     1      119.401001      615.866145
        21        22        40     1      119.394226      391.030699
        24        11        27     1      110.760536      167.360000
        24        25        26     1      106.028854      167.360000
        24        25        44     1      121.668686      448.124493
        24        28        46     1      110.128807      486.459014
        24        28        47     1      110.128807      486.459014
        24        28        48     1      110.128807      486.459014
        25        24        28     1      124.638916      504.553365
        25        26        27     1      110.197365      255.182327
        25        26        45     1      128.213745      364.384002
        26        25        44     1      132.596817      308.055044
        27        26        45     1      121.626450      368.918435
        33        10        34     1      106.967346      364.175843
        41        23        42     1      109.444870      349.033358
        41        23        43     1      109.444870      349.033358
        42        23        43     1      109.444870      349.033358
        46        28        47     1      108.969093      348.669646
        46        28        48     1      108.969093      348.669646
        47        28        48     1      108.969093      348.669646

[ dihedrals ] ; propers for gromacs 4.5 or higher, use funct 9
;       ai        aj        ak        al funct           phase               k        pn
         1         2         6         5     9        0.000000       -0.006078         1
         1         2         6         5     9      180.000000       19.609872         2
         1         2         6         5     9        0.000000       -2.219042         3
         1         2         6         5     9      180.000000       -0.447818         4
         1         2         6         7     9        0.000000       -0.342132         1
         1         2         6         7     9      180.000000       13.541525         2
         1         2         6         7     9        0.000000       -0.922750         3
         1         2         6         7     9      180.000000       -0.212066         4
         1         4         3         5     9        0.000000       -0.145084         1
         1         4         3         5     9      180.000000       21.951450         2
         1         4         3         5     9        0.000000       -1.432507         3
         1         4         3         5     9      180.000000       -0.602227         4
         1         4         3        30     9        0.000000        0.000694         1
         1         4         3        30     9      180.000000       14.964213         2
         1         4         3        30     9        0.000000       -0.375565         3
         1         4         3        30     9      180.000000        0.133363         4
         1        11        24        25     9        0.000000        0.701372         1
         1        11        24        25     9      180.000000       16.060320         2
         1        11        24        25     9        0.000000        0.417056         3
         1        11        24        25     9      180.000000       -0.956945         4
         1        11        24        28     9        0.000000       -0.627098         1
         1        11        24        28     9      180.000000        4.178061         2
         1        11        24        28     9        0.000000        0.416031         3
         1        11        24        28     9      180.000000        0.027893         4
         1        11        27        26     9        0.000000        0.744327         1
         1        11        27        26     9      180.000000       28.740704         2
         1        11        27        26     9        0.000000        1.196645         3
         1        11        27        26     9      180.000000       -0.652957         4
         2         1         4         3     9        0.000000       -0.053639         1
         2         1         4         3     9      180.000000       16.549871         2
         2         1         4         3     9        0.000000       -1.149725         3
         2         1         4         3     9      180.000000       -0.266796         4
         2         1         4        31     9        0.000000        0.083636         1
         2         1         4        31     9      180.000000       12.646963         2
         2         1         4        31     9        0.000000       -0.673216         3
         2         1         4        31     9      180.000000        0.145583         4
         2         1        11        24     9        0.000000       -0.464492         1
         2         1        11        24     9      180.000000        3.052860         2
         2         1        11        24     9        0.000000       -0.180776         3
         2         1        11        24     9      180.000000       -0.019437         4
         2         1        11        27     9        0.000000        0.301462         1
         2         1        11        27     9      180.000000        3.456254         2
         2         1        11        27     9        0.000000        0.015376         3
         2         1        11        27     9      180.000000       -0.004927         4
         2         6         5         3     9        0.000000       -0.194976         1
         2         6         5         3     9      180.000000       10.551700         2
         2         6         5         3     9        0.000000       -1.572543         3
         2         6         5         3     9      180.000000       -0.068652         4
         2         6         5         9     9        0.000000        0.323132         1
         2         6         5         9     9      180.000000        8.897376         2
         2         6         5         9     9        0.000000       -1.810056         3
         2         6         5         9     9      180.000000        0.161644         4
         2         6         7         8     9        0.000000       -0.388052         1
         2         6         7         8     9      180.000000        3.988381         2
         2         6         7         8     9        0.000000       -0.732222         3
         2         6         7         8     9      180.000000        0.041882         4
         2         6         7        10     9        0.000000       -0.355019         1
         2         6         7        10     9      180.000000        4.213622         2
         2         6         7        10     9        0.000000        0.241406         3
         2         6         7        10     9      180.000000        0.087827         4
         3         4         1        11     9        0.000000        0.066496         1
         3         4         1        11     9      180.000000       15.085096         2
         3         4         1        11     9        0.000000       -0.289501         3
         3         4         1        11     9      180.000000       -0.256420         4
         3         5         6         7     9        0.000000       -0.043896         1
         3         5         6         7     9      180.000000       11.232524         2
         3         5         6         7     9        0.000000       -2.383798         3
         3         5         6         7     9      180.000000       -0.010170         4
         3         5         9         8     9        0.000000        1.355354         1
         3         5         9         8     9      180.000000        5.421697         2
         3         5         9         8     9        0.000000        0.426457         3
         3         5         9         8     9      180.000000       -0.030571         4
         3         5         9        32     9        0.000000       -0.120290         1
         3         5         9        32     9      180.000000        1.431778         2
         3         5         9        32     9        0.000000        0.096574         3
         3         5         9        32     9      180.000000       -0.113345         4
         4         1         2         6     9        0.000000       -0.100111         1
         4         1         2         6     9      180.000000       20.422693         2
         4         1         2         6     9        0.000000       -1.555229         3
         4         1         2         6     9      180.000000       -0.543553         4
         4         1         2        29     9        0.000000        0.088797         1
         4         1         2        29     9      180.000000       14.155916         2
         4         1         2        29     9        0.000000       -0.505487         3
         4         1         2        29     9      180.000000        0.010926         4
         4         1        11        24     9        0.000000        0.110520         1
         4         1        11        24     9      180.000000        3.107540         2
         4         1        11        24     9        0.000000        0.033749         3
         4         1        11        24     9      180.000000       -0.032328         4
         4         1        11        27     9        0.000000       -0.271985         1
         4         1        11        27     9      180.000000        3.562841         2
         4         1        11        27     9        0.000000       -0.075929         3
         4         1        11        27     9      180.000000        0.050510         4
         4         3         5         6     9        0.000000       -0.169930         1
         4         3         5         6     9      180.000000       16.965686         2
         4         3         5         6     9        0.000000       -1.732763         3
         4         3         5         6     9      180.000000       -0.340529         4
         4         3         5         9     9        0.000000        0.301839         1
         4         3         5         9     9      180.000000       13.154699         2
         4         3         5         9     9        0.000000       -0.044096         3
         4         3         5         9     9      180.000000       -0.099748         4
         5         3         4        31     9        0.000000        0.146732         1
         5         3         4        31     9      180.000000       17.482053         2
         5         3         4        31     9        0.000000       -0.457669         3
         5         3         4        31     9      180.000000       -0.079704         4
         5         6         2        29     9        0.000000        0.339910         1
         5         6         2        29     9      180.000000       14.575294         2
         5         6         2        29     9        0.000000       -0.281450         3
         5         6         2        29     9      180.000000       -0.164556         4
         5         6         7         8     9        0.000000       -0.154411         1
         5         6         7         8     9      180.000000       30.991720         2
         5         6         7         8     9        0.000000       -9.498976         3
         5         6         7         8     9      180.000000       -0.203823         4
         5         6         7        10     9        0.000000        0.937015         1
         5         6         7        10     9      180.000000       14.581185         2
         5         6         7        10     9        0.000000        0.074882         3
         5         6         7        10     9      180.000000       -0.581337         4
         5         9         8         7     9        0.000000       -0.232193         1
         5         9         8         7     9      180.000000       17.172106         2
         5         9         8         7     9        0.000000       -2.190252         3
         5         9         8         7     9      180.000000       -1.158860         4
         6         2         1        11     9        0.000000        0.155155         1
         6         2         1        11     9      180.000000       19.073184         2
         6         2         1        11     9        0.000000       -0.108464         3
         6         2         1        11     9      180.000000       -0.867335         4
         6         5         3        30     9        0.000000        0.117356         1
         6         5         3        30     9      180.000000       11.438382         2
         6         5         3        30     9        0.000000       -0.247773         3
         6         5         3        30     9      180.000000       -0.013651         4
         6         5         9         8     9        0.000000        0.356146         1
         6         5         9         8     9      180.000000       24.564624         2
         6         5         9         8     9        0.000000       -4.962797         3
         6         5         9         8     9      180.000000       -1.027215         4
         6         5         9        32     9        0.000000        0.358148         1
         6         5         9        32     9      180.000000        1.518526         2
         6         5         9        32     9        0.000000        0.519591         3
         6         5         9        32     9      180.000000        0.016582         4
         6         7         8         9     9        0.000000       -0.271830         1
         6         7         8         9     9      180.000000       41.450663         2
         6         7         8         9     9        0.000000       -4.749107         3
         6         7         8         9     9      180.000000       -0.124591         4
         6         7        10        12     9        0.000000        0.278557         1
         6         7        10        12     9      180.000000       -0.421801         2
         6         7        10        12     9        0.000000        0.584639         3
         6         7        10        12     9      180.000000        0.021417         4
         6         7        10        33     9        0.000000       -0.042307         1
         6         7        10        33     9      180.000000        0.144371         2
         6         7        10        33     9        0.000000        0.520077         3
         6         7        10        33     9      180.000000        0.010823         4
         6         7        10        34     9        0.000000       -0.042307         1
         6         7        10        34     9      180.000000        0.144371         2
         6         7        10        34     9        0.000000        0.520077         3
         6         7        10        34     9      180.000000        0.010823         4
         7         6         2        29     9        0.000000       -0.050155         1
         7         6         2        29     9      180.000000       10.105619         2
         7         6         2        29     9        0.000000       -0.012690         3
         7         6         2        29     9      180.000000        0.030657         4
         7         6         5         9     9        0.000000        0.211286         1
         7         6         5         9     9      180.000000       17.407430         2
         7         6         5         9     9        0.000000       -6.240916         3
         7         6         5         9     9      180.000000       -0.222277         4
         7         8         9        32     9        0.000000        2.382415         1
         7         8         9        32     9      180.000000        2.980484         2
         7         8         9        32     9        0.000000        0.442275         3
         7         8         9        32     9      180.000000        0.022859         4
         7        10        12        13     9        0.000000       -0.164965         1
         7        10        12        13     9      180.000000        0.174263         2
         7        10        12        13     9        0.000000        0.113500         3
         7        10        12        13     9      180.000000        0.021161         4
         7        10        12        17     9        0.000000       -0.164965         1
         7        10        12        17     9      180.000000        0.174263         2
         7        10        12        17     9        0.000000        0.113500         3
         7        10        12        17     9      180.000000        0.021161         4
         8         7        10        12     9        0.000000       -0.868534         1
         8         7        10        12     9      180.000000       -0.219800         2
         8         7        10        12     9        0.000000        0.024413         3
         8         7        10        12     9      180.000000        0.008496         4
         8         7        10        33     9        0.000000        0.220362         1
         8         7        10        33     9      180.000000        0.086328         2
         8         7        10        33     9        0.000000       -0.194498         3
         8         7        10        33     9      180.000000        0.039750         4
         8         7        10        34     9        0.000000        0.220362         1
         8         7        10        34     9      180.000000        0.086328         2
         8         7        10        34     9        0.000000       -0.194498         3
         8         7        10        34     9      180.000000        0.039750         4
         9         5         3        30     9        0.000000       -0.098066         1
         9         5         3        30     9      180.000000        9.679285         2
         9         5         3        30     9        0.000000       -0.060324         3
         9         5         3        30     9      180.000000        0.054142         4
         9         8         7        10     9        0.000000        0.485283         1
         9         8         7        10     9      180.000000       32.430804         2
         9         8         7        10     9        0.000000        0.796328         3
         9         8         7        10     9      180.000000       -0.858499         4
        10        12        13        14     9        0.000000        0.026860         1
        10        12        13        14     9      180.000000       15.135600         2
        10        12        13        14     9        0.000000       -0.170192         3
        10        12        13        14     9      180.000000       -0.215560         4
        10        12        13        35     9        0.000000       -0.086046         1
        10        12        13        35     9      180.000000       12.621826         2
        10        12        13        35     9        0.000000       -0.312532         3
        10        12        13        35     9      180.000000        0.160165         4
        10        12        17        16     9        0.000000        0.026860         1
        10        12        17        16     9      180.000000       15.135600         2
        10        12        17        16     9        0.000000       -0.170192         3
        10        12        17        16     9      180.000000       -0.215560         4
        10        12        17        38     9        0.000000       -0.086046         1
        10        12        17        38     9      180.000000       12.621826         2
        10        12        17        38     9        0.000000       -0.312532         3
        10        12        17        38     9      180.000000        0.160165         4
        11         1         2        29     9        0.000000       -0.088703         1
        11         1         2        29     9      180.000000       13.365179         2
        11         1         2        29     9        0.000000       -0.289827         3
        11         1         2        29     9      180.000000        0.100816         4
        11         1         4        31     9        0.000000       -0.108064         1
        11         1         4        31     9      180.000000       12.473343         2
        11         1         4        31     9        0.000000       -0.269981         3
        11         1         4        31     9      180.000000        0.121708         4
        11        24        25        26     9        0.000000       -0.055738         1
        11        24        25        26     9      180.000000       24.643370         2
        11        24        25        26     9        0.000000       -7.011838         3
        11        24        25        26     9      180.000000       -0.251723         4
        11        24        25        44     9        0.000000        0.266383         1
        11        24        25        44     9      180.000000        4.690489         2
        11        24        25        44     9        0.000000        0.275833         3
        11        24        25        44     9      180.000000        0.140869         4
        11        24        28        46     9        0.000000       -0.022495         1
        11        24        28        46     9      180.000000        0.047503         2
        11        24        28        46     9        0.000000        0.270624         3
        11        24        28        46     9      180.000000       -0.007042         4
        11        24        28        47     9        0.000000       -0.022495         1
        11        24        28        47     9      180.000000        0.047503         2
        11        24        28        47     9        0.000000        0.270624         3
        11        24        28        47     9      180.000000       -0.007042         4
        11        24        28        48     9        0.000000       -0.022495         1
        11        24        28        48     9      180.000000        0.047503         2
        11        24        28        48     9        0.000000        0.270624         3
        11        24        28        48     9      180.000000       -0.007042         4
        11        27        26        25     9        0.000000       -0.527872         1
        11        27        26        25     9      180.000000       31.914440         2
        11        27        26        25     9        0.000000       -5.297660         3
        11        27        26        25     9      180.000000        0.173325         4
        11        27        26        45     9        0.000000        1.010543         1
        11        27        26        45     9      180.000000       19.857820         2
        11        27        26        45     9        0.000000        0.434721         3
        11        27        26        45     9      180.000000       -0.338132         4
        12        13        14        15     9        0.000000       -0.033501         1
        12        13        14        15     9      180.000000       18.361802         2
        12        13        14        15     9        0.000000       -1.382122         3
        12        13        14        15     9      180.000000       -0.333748         4
        12        13        14        36     9        0.000000        0.009019         1
        12        13        14        36     9      180.000000       15.117729         2
        12        13        14        36     9        0.000000       -0.652997         3
        12        13        14        36     9      180.000000        0.089352         4
        12        17        16        15     9        0.000000       -0.033501         1
        12        17        16        15     9      180.000000       18.361802         2
        12        17        16        15     9        0.000000       -1.382122         3
        12        17        16        15     9      180.000000       -0.333748         4
        12        17        16        37     9        0.000000        0.009019         1
        12        17        16        37     9      180.000000       15.117731         2
        12        17        16        37     9        0.000000       -0.652997         3
        12        17        16        37     9      180.000000        0.089353         4
        13        12        10        33     9        0.000000        0.026652         1
        13        12        10        33     9      180.000000        0.014947         2
        13        12        10        33     9        0.000000        0.013547         3
        13        12        10        33     9      180.000000        0.009027         4
        13        12        10        34     9        0.000000        0.026652         1
        13        12        10        34     9      180.000000        0.014947         2
        13        12        10        34     9        0.000000        0.013547         3
        13        12        10        34     9      180.000000        0.009027         4
        13        12        17        16     9        0.000000       -0.017692         1
        13        12        17        16     9      180.000000       18.652768         2
        13        12        17        16     9        0.000000       -1.225804         3
        13        12        17        16     9      180.000000       -0.466466         4
        13        12        17        38     9        0.000000        0.019722         1
        13        12        17        38     9      180.000000       14.478142         2
        13        12        17        38     9        0.000000       -0.483578         3
        13        12        17        38     9      180.000000        0.000311         4
        13        14        15        16     9        0.000000       -0.080966         1
        13        14        15        16     9      180.000000       18.153112         2
        13        14        15        16     9        0.000000       -1.373641         3
        13        14        15        16     9      180.000000       -0.356348         4
        13        14        15        18     9        0.000000        0.345560         1
        13        14        15        18     9      180.000000       16.650203         2
        13        14        15        18     9        0.000000       -0.115710         3
        13        14        15        18     9      180.000000       -0.388262         4
        14        13        12        17     9        0.000000       -0.017692         1
        14        13        12        17     9      180.000000       18.652768         2
        14        13        12        17     9        0.000000       -1.225804         3
        14        13        12        17     9      180.000000       -0.466466         4
        14        15        16        17     9        0.000000       -0.080966         1
        14        15        16        17     9      180.000000       18.153112         2
        14        15        16        17     9        0.000000       -1.373641         3
        14        15        16        17     9      180.000000       -0.356348         4
        14        15        16        37     9        0.000000       -0.122536         1
        14        15        16        37     9      180.000000       13.854594         2
        14        15        16        37     9        0.000000       -0.550856         3
        14        15        16        37     9      180.000000        0.073352         4
        14        15        18        19     9        0.000000        0.226385         1
        14        15        18        19     9      180.000000        2.444068         2
        14        15        18        19     9        0.000000        0.075300         3
        14        15        18        19     9      180.000000       -0.310311         4
        14        15        18        22     9        0.000000       -0.000289         1
        14        15        18        22     9      180.000000        2.079647         2
        14        15        18        22     9        0.000000       -0.058954         3
        14        15        18        22     9      180.000000       -0.243068         4
        15        14        13        35     9        0.000000       -0.019661         1
        15        14        13        35     9      180.000000       14.564297         2
        15        14        13        35     9        0.000000       -0.438149         3
        15        14        13        35     9      180.000000        0.148899         4
        15        16        17        38     9        0.000000       -0.019661         1
        15        16        17        38     9      180.000000       14.564298         2
        15        16        17        38     9        0.000000       -0.438149         3
        15        16        17        38     9      180.000000        0.148899         4
        15        18        19        20     9        0.000000        0.183654         1
        15        18        19        20     9      180.000000       16.330189         2
        15        18        19        20     9        0.000000       -0.168639         3
        15        18        19        20     9      180.000000       -0.945094         4
        15        18        19        39     9        0.000000       -0.192731         1
        15        18        19        39     9      180.000000       10.764578         2
        15        18        19        39     9        0.000000       -0.137823         3
        15        18        19        39     9      180.000000       -0.003216         4
        15        18        22        21     9        0.000000        0.388880         1
        15        18        22        21     9      180.000000       15.245298         2
        15        18        22        21     9        0.000000       -0.357893         3
        15        18        22        21     9      180.000000       -0.981862         4
        15        18        22        40     9        0.000000       -0.157977         1
        15        18        22        40     9      180.000000       10.350387         2
        15        18        22        40     9        0.000000       -0.025513         3
        15        18        22        40     9      180.000000        0.047765         4
        16        15        14        36     9        0.000000       -0.122536         1
        16        15        14        36     9      180.000000       13.854592         2
        16        15        14        36     9        0.000000       -0.550856         3
        16        15        14        36     9      180.000000        0.073352         4
        16        15        18        19     9        0.000000        0.226385         1
        16        15        18        19     9      180.000000        2.444068         2
        16        15        18        19     9        0.000000        0.075300         3
        16        15        18        19     9      180.000000       -0.310311         4
        16        15        18        22     9        0.000000       -0.000289         1
        16        15        18        22     9      180.000000        2.079647         2
        16        15        18        22     9        0.000000       -0.058954         3
        16        15        18        22     9      180.000000       -0.243068         4
        17        12        10        33     9        0.000000        0.026652         1
        17        12        10        33     9      180.000000        0.014947         2
        17        12        10        33     9        0.000000        0.013547         3
        17        12        10        33     9      180.000000        0.009027         4
        17        12        10        34     9        0.000000        0.026652         1
        17        12        10        34     9      180.000000        0.014947         2
        17        12        10        34     9        0.000000        0.013547         3
        17        12        10        34     9      180.000000        0.009027         4
        17        12        13        35     9        0.000000        0.019722         1
        17        12        13        35     9      180.000000       14.478141         2
        17        12        13        35     9        0.000000       -0.483578         3
        17        12        13        35     9      180.000000        0.000311         4
        17        16        15        18     9        0.000000        0.345560         1
        17        16        15        18     9      180.000000       16.650203         2
        17        16        15        18     9        0.000000       -0.115710         3
        17        16        15        18     9      180.000000       -0.388262         4
        18        15        14        36     9        0.000000        0.146898         1
        18        15        14        36     9      180.000000       13.479037         2
        18        15        14        36     9        0.000000       -0.087547         3
        18        15        14        36     9      180.000000        0.132717         4
        18        15        16        37     9        0.000000        0.146898         1
        18        15        16        37     9      180.000000       13.479040         2
        18        15        16        37     9        0.000000       -0.087547         3
        18        15        16        37     9      180.000000        0.132717         4
        18        19        20        21     9        0.000000       -0.009121         1
        18        19        20        21     9      180.000000       30.745141         2
        18        19        20        21     9        0.000000       -6.250990         3
        18        19        20        21     9      180.000000       -0.578339         4
        18        19        20        23     9        0.000000        0.805845         1
        18        19        20        23     9      180.000000        7.183529         2
        18        19        20        23     9        0.000000        0.904760         3
        18        19        20        23     9      180.000000       -0.006099         4
        18        22        21        20     9        0.000000       -0.003186         1
        18        22        21        20     9      180.000000       40.723745         2
        18        22        21        20     9        0.000000       -5.801977         3
        18        22        21        20     9      180.000000       -0.138216         4
        19        18        22        21     9        0.000000       -0.184323         1
        19        18        22        21     9      180.000000       30.518446         2
        19        18        22        21     9        0.000000       -8.302201         3
        19        18        22        21     9      180.000000        0.056566         4
        19        18        22        40     9        0.000000        0.182830         1
        19        18        22        40     9      180.000000       14.435368         2
        19        18        22        40     9        0.000000       -0.577632         3
        19        18        22        40     9      180.000000       -0.486645         4
        19        20        21        22     9        0.000000       -0.276705         1
        19        20        21        22     9      180.000000       27.814030         2
        19        20        21        22     9        0.000000       -4.425871         3
        19        20        21        22     9      180.000000        0.073279         4
        19        20        23        41     9        0.000000       -0.025034         1
        19        20        23        41     9      180.000000       -0.009391         2
        19        20        23        41     9        0.000000        0.181958         3
        19        20        23        41     9      180.000000        0.012892         4
        19        20        23        42     9        0.000000       -0.025034         1
        19        20        23        42     9      180.000000       -0.009391         2
        19        20        23        42     9        0.000000        0.181958         3
        19        20        23        42     9      180.000000        0.012892         4
        19        20        23        43     9        0.000000       -0.025034         1
        19        20        23        43     9      180.000000       -0.009391         2
        19        20        23        43     9        0.000000        0.181958         3
        19        20        23        43     9      180.000000        0.012892         4
        20        19        18        22     9        0.000000       -0.206975         1
        20        19        18        22     9      180.000000       30.618729         2
        20        19        18        22     9        0.000000       -8.507334         3
        20        19        18        22     9      180.000000       -0.023863         4
        20        21        22        40     9        0.000000        1.030702         1
        20        21        22        40     9      180.000000       28.071183         2
        20        21        22        40     9        0.000000       -0.182231         3
        20        21        22        40     9      180.000000       -0.061982         4
        21        20        19        39     9        0.000000        1.067261         1
        21        20        19        39     9      180.000000       12.367244         2
        21        20        19        39     9        0.000000        0.213521         3
        21        20        19        39     9      180.000000       -0.400032         4
        21        20        23        41     9        0.000000       -0.002235         1
        21        20        23        41     9      180.000000        0.002811         2
        21        20        23        41     9        0.000000        0.198678         3
        21        20        23        41     9      180.000000        0.004453         4
        21        20        23        42     9        0.000000       -0.002235         1
        21        20        23        42     9      180.000000        0.002811         2
        21        20        23        42     9        0.000000        0.198678         3
        21        20        23        42     9      180.000000        0.004453         4
        21        20        23        43     9        0.000000       -0.002235         1
        21        20        23        43     9      180.000000        0.002811         2
        21        20        23        43     9        0.000000        0.198678         3
        21        20        23        43     9      180.000000        0.004453         4
        22        18        19        39     9        0.000000        0.010232         1
        22        18        19        39     9      180.000000       13.254580         2
        22        18        19        39     9        0.000000       -0.641023         3
        22        18        19        39     9      180.000000       -0.261573         4
        22        21        20        23     9        0.000000        0.586693         1
        22        21        20        23     9      180.000000       10.298364         2
        22        21        20        23     9        0.000000        0.792012         3
        22        21        20        23     9      180.000000       -0.113382         4
        23        20        19        39     9        0.000000       -0.493730         1
        23        20        19        39     9      180.000000        3.995450         2
        23        20        19        39     9        0.000000        0.087170         3
        23        20        19        39     9      180.000000        0.043642         4
        24        11        27        26     9        0.000000       -0.437350         1
        24        11        27        26     9      180.000000       39.983895         2
        24        11        27        26     9        0.000000       -5.930110         3
        24        11        27        26     9      180.000000       -0.003521         4
        24        25        26        27     9        0.000000       -0.345422         1
        24        25        26        27     9      180.000000       37.008989         2
        24        25        26        27     9        0.000000       -7.855139         3
        24        25        26        27     9      180.000000       -0.367017         4
        24        25        26        45     9        0.000000        0.241212         1
        24        25        26        45     9      180.000000       17.765217         2
        24        25        26        45     9        0.000000       -0.819811         3
        24        25        26        45     9      180.000000       -0.435126         4
        25        24        11        27     9        0.000000        0.057766         1
        25        24        11        27     9      180.000000       29.952926         2
        25        24        11        27     9        0.000000       -6.947651         3
        25        24        11        27     9      180.000000       -0.376562         4
        25        24        28        46     9        0.000000        0.015031         1
        25        24        28        46     9      180.000000        0.031386         2
        25        24        28        46     9        0.000000        0.373236         3
        25        24        28        46     9      180.000000        0.000825         4
        25        24        28        47     9        0.000000        0.015031         1
        25        24        28        47     9      180.000000        0.031386         2
        25        24        28        47     9        0.000000        0.373236         3
        25        24        28        47     9      180.000000        0.000825         4
        25        24        28        48     9        0.000000        0.015031         1
        25        24        28        48     9      180.000000        0.031386         2
        25        24        28        48     9        0.000000        0.373236         3
        25        24        28        48     9      180.000000        0.000825         4
        26        25        24        28     9        0.000000        0.551395         1
        26        25        24        28     9      180.000000        4.722126         2
        26        25        24        28     9        0.000000        0.834014         3
        26        25        24        28     9      180.000000        0.235284         4
        27        11        24        28     9        0.000000        0.331494         1
        27        11        24        28     9      180.000000        5.638193         2
        27        11        24        28     9        0.000000        0.914479         3
        27        11        24        28     9      180.000000        0.094159         4
        27        26        25        44     9        0.000000        0.493697         1
        27        26        25        44     9      180.000000       16.645581         2
        27        26        25        44     9        0.000000       -0.162764         3
        27        26        25        44     9      180.000000       -0.633054         4
        28        24        25        44     9        0.000000       -0.990696         1
        28        24        25        44     9      180.000000        2.528676         2
        28        24        25        44     9        0.000000        0.099626         3
        28        24        25        44     9      180.000000       -0.059893         4
        30         3         4        31     9        0.000000       -0.125029         1
        30         3         4        31     9      180.000000       12.615206         2
        30         3         4        31     9        0.000000       -0.630772         3
        30         3         4        31     9      180.000000        0.321406         4
        35        13        14        36     9        0.000000       -0.173270         1
        35        13        14        36     9      180.000000       12.433056         2
        35        13        14        36     9        0.000000       -0.660707         3
        35        13        14        36     9      180.000000        0.303153         4
        37        16        17        38     9        0.000000       -0.173269         1
        37        16        17        38     9      180.000000       12.433055         2
        37        16        17        38     9        0.000000       -0.660707         3
        37        16        17        38     9      180.000000        0.303153         4
        44        25        26        45     9        0.000000       -0.407618         1
        44        25        26        45     9      180.000000        8.397007         2
        44        25        26        45     9        0.000000       -0.388407         3
        44        25        26        45     9      180.000000        0.257661         4

[ dihedrals ] ; impropers
;       ai        aj        ak        al funct           phase               k        pn
         2         1         6        29     4      180.000000        0.175372         2
         2         6        29         1     4      180.000000        0.175372         2
         2        29         1         6     4      180.000000        0.175372         2
        13        12        14        35     4      180.000000        1.374161         2
        13        14        35        12     4      180.000000        1.374161         2
        13        35        12        14     4      180.000000        1.374161         2
        17        12        16        38     4      180.000000        1.374161         2
        17        16        38        12     4      180.000000        1.374161         2
        17        38        12        16     4      180.000000        1.374161         2

[ pairs ]
;       ai        aj funct
         1         5     1
         1         7     1
         1        25     1
         1        26     1
         1        28     1
         1        30     1
         2         3     1
         2         8     1
         2         9     1
         2        10     1
         2        24     1
         2        27     1
         2        31     1
         3         7     1
         3         8     1
         3        11     1
         3        32     1
         4         6     1
         4         9     1
         4        24     1
         4        27     1
         4        29     1
         5        10     1
         5        29     1
         5        31     1
         6        11     1
         6        12     1
         6        30     1
         6        32     1
         6        33     1
         6        34     1
         7        13     1
         7        17     1
         7        29     1
         7        32     1
         8        12     1
         8        33     1
         8        34     1
         9        10     1
         9        30     1
        10        14     1
        10        16     1
        10        35     1
        10        38     1
        11        29     1
        11        31     1
        11        44     1
        11        45     1
        11        46     1
        11        47     1
        11        48     1
        12        15     1
        12        36     1
        12        37     1
        13        16     1
        13        18     1
        13        33     1
        13        34     1
        13        38     1
        14        17     1
        14        19     1
        14        22     1
        14        37     1
        15        20     1
        15        21     1
        15        35     1
        15        38     1
        15        39     1
        15        40     1
        16        19     1
        16        22     1
        16        36     1
        17        18     1
        17        33     1
        17        34     1
        17        35     1
        18        23     1
        18        36     1
        18        37     1
        19        40     1
        19        41     1
        19        42     1
        19        43     1
        20        40     1
        21        39     1
        21        41     1
        21        42     1
        21        43     1
        22        23     1
        22        39     1
        23        39     1
        24        45     1
        25        46     1
        25        47     1
        25        48     1
        26        28     1
        27        28     1
        27        44     1
        28        44     1
        30        31     1
        35        36     1
        37        38     1
        44        45     1
