; ITP file created by ByteFF-ML, 2026-02-21 07:35:00.452879

[ atomtypes ]
;name           bonded.type        at.num        mass        charge   ptype           sigma         epsilon
 c0bf                                   6      0.0000       0.00000       A     3.31579e-01     4.13026e-01
 c1bf                                   6      0.0000       0.00000       A     3.31465e-01     4.13706e-01
 c2bf                                   6      0.0000       0.00000       A     3.31488e-01     4.12935e-01
 c3bf                                   6      0.0000       0.00000       A     3.31561e-01     4.13489e-01
 c4bf                                   6      0.0000       0.00000       A     3.31502e-01     4.12517e-01
 c5bf                                   6      0.0000       0.00000       A     3.31541e-01     4.13131e-01
 c6bf                                   6      0.0000       0.00000       A     3.31412e-01     4.11665e-01
 n7bf                                   7      0.0000       0.00000       A     3.38151e-01     3.91342e-01
 n8bf                                   7      0.0000       0.00000       A     3.20440e-01     8.58154e-01
 c9bf                                   6      0.0000       0.00000       A     3.39892e-01     4.51463e-01
 s10bf                                 16      0.0000       0.00000       A     4.06077e-01     2.56515e-01
 c11bf                                  6      0.0000       0.00000       A     3.39646e-01     4.50567e-01
 n12bf                                  7      0.0000       0.00000       A     3.28181e-01     6.40589e-01
 c13bf                                  6      0.0000       0.00000       A     3.31526e-01     4.13182e-01
 c14bf                                  6      0.0000       0.00000       A     3.31408e-01     4.13210e-01
 c15bf                                  6      0.0000       0.00000       A     3.31502e-01     4.12536e-01
 c16bf                                  6      0.0000       0.00000       A     3.31322e-01     4.13227e-01
 c17bf                                  6      0.0000       0.00000       A     3.31502e-01     4.12536e-01
 c18bf                                  6      0.0000       0.00000       A     3.31408e-01     4.13210e-01
 c19bf                                  6      0.0000       0.00000       A     3.31350e-01     4.11687e-01
 c20bf                                  6      0.0000       0.00000       A     3.31475e-01     4.11821e-01
 n21bf                                  7      0.0000       0.00000       A     3.20558e-01     8.54076e-01
 n22bf                                  7      0.0000       0.00000       A     3.38391e-01     3.93249e-01
 c23bf                                  6      0.0000       0.00000       A     3.31594e-01     4.13789e-01
 c24bf                                  6      0.0000       0.00000       A     3.39839e-01     4.51932e-01
 o25bf                                  8      0.0000       0.00000       A     3.04954e-01     6.12701e-01
 o26bf                                  8      0.0000       0.00000       A     3.04954e-01     6.12701e-01
 h27bf                                  1      0.0000       0.00000       A     2.62380e-01     6.81538e-02
 h28bf                                  1      0.0000       0.00000       A     2.62445e-01     6.71546e-02
 h29bf                                  1      0.0000       0.00000       A     2.62584e-01     6.71562e-02
 h30bf                                  1      0.0000       0.00000       A     1.10602e-01     4.12983e-02
 h31bf                                  1      0.0000       0.00000       A     2.60090e-01     8.80823e-02
 h32bf                                  1      0.0000       0.00000       A     2.60090e-01     8.80823e-02
 h33bf                                  1      0.0000       0.00000       A     2.42001e-01     8.67847e-02
 h34bf                                  1      0.0000       0.00000       A     2.42001e-01     8.67847e-02
 h35bf                                  1      0.0000       0.00000       A     2.42001e-01     8.67847e-02
 h36bf                                  1      0.0000       0.00000       A     1.10374e-01     4.11930e-02
 h37bf                                  1      0.0000       0.00000       A     2.62498e-01     6.75473e-02
 h38bf                                  1      0.0000       0.00000       A     2.62482e-01     6.74643e-02
 h39bf                                  1      0.0000       0.00000       A     2.62482e-01     6.74643e-02
 h40bf                                  1      0.0000       0.00000       A     2.62498e-01     6.75473e-02
 h41bf                                  1      0.0000       0.00000       A     2.53807e-01     6.74898e-02
 h42bf                                  1      0.0000       0.00000       A     2.53933e-01     6.69200e-02
 h43bf                                  1      0.0000       0.00000       A     2.41990e-01     8.77359e-02
 h44bf                                  1      0.0000       0.00000       A     2.41990e-01     8.77359e-02
 h45bf                                  1      0.0000       0.00000       A     2.41990e-01     8.77343e-02

[ moleculetype ]
;name             nrexcl
 25                    3

[ atoms ]
;       nr            type      resi   res      atom      cgnr      charge          mass ; qtot
         1            c0bf         1   UNL        c0         1     0.17012       12.0110 ; qtot    0.170
         2            c1bf         1   UNL        c1         2    -0.02481       12.0110 ; qtot    0.145
         3            c2bf         1   UNL        c2         3    -0.12303       12.0110 ; qtot    0.022
         4            c3bf         1   UNL        c3         4    -0.06271       12.0110 ; qtot   -0.040
         5            c4bf         1   UNL        c4         5    -0.02938       12.0110 ; qtot   -0.070
         6            c5bf         1   UNL        c5         6    -0.20261       12.0110 ; qtot   -0.272
         7            c6bf         1   UNL        c6         7     0.34931       12.0110 ; qtot    0.077
         8            n7bf         1   UNL        n7         8    -0.50676       14.0070 ; qtot   -0.430
         9            n8bf         1   UNL        n8         9    -0.07998       14.0070 ; qtot   -0.510
        10            c9bf         1   UNL        c9        10    -0.03873       12.0110 ; qtot   -0.549
        11           s10bf         1   UNL       s10        11     1.10552       32.0670 ; qtot    0.557
        12           c11bf         1   UNL       c11        12    -0.32054       12.0110 ; qtot    0.236
        13           n12bf         1   UNL       n12        13    -0.83629       14.0070 ; qtot   -0.600
        14           c13bf         1   UNL       c13        14    -0.08002       12.0110 ; qtot   -0.680
        15           c14bf         1   UNL       c14        15    -0.10203       12.0110 ; qtot   -0.782
        16           c15bf         1   UNL       c15        16    -0.11007       12.0110 ; qtot   -0.892
        17           c16bf         1   UNL       c16        17     0.00438       12.0110 ; qtot   -0.888
        18           c17bf         1   UNL       c17        18    -0.11007       12.0110 ; qtot   -0.998
        19           c18bf         1   UNL       c18        19    -0.10203       12.0110 ; qtot   -1.100
        20           c19bf         1   UNL       c19        20    -0.16403       12.0110 ; qtot   -1.264
        21           c20bf         1   UNL       c20        21    -0.14400       12.0110 ; qtot   -1.408
        22           n21bf         1   UNL       n21        22     0.11171       14.0070 ; qtot   -1.296
        23           n22bf         1   UNL       n22        23    -0.52174       14.0070 ; qtot   -1.818
        24           c23bf         1   UNL       c23        24     0.25349       12.0110 ; qtot   -1.564
        25           c24bf         1   UNL       c24        25     0.07027       12.0110 ; qtot   -1.494
        26           o25bf         1   UNL       o25        26    -0.51477       15.9990 ; qtot   -2.009
        27           o26bf         1   UNL       o26        27    -0.51477       15.9990 ; qtot   -2.524
        28           h27bf         1   UNL       h27        28     0.13450        1.0080 ; qtot   -2.389
        29           h28bf         1   UNL       h28        29     0.12677        1.0080 ; qtot   -2.262
        30           h29bf         1   UNL       h29        30     0.12734        1.0080 ; qtot   -2.135
        31           h30bf         1   UNL       h30        31     0.37621        1.0080 ; qtot   -1.759
        32           h31bf         1   UNL       h31        32     0.06255        1.0080 ; qtot   -1.696
        33           h32bf         1   UNL       h32        33     0.06255        1.0080 ; qtot   -1.634
        34           h33bf         1   UNL       h33        34     0.10601        1.0080 ; qtot   -1.528
        35           h34bf         1   UNL       h34        35     0.10601        1.0080 ; qtot   -1.422
        36           h35bf         1   UNL       h35        36     0.10601        1.0080 ; qtot   -1.316
        37           h36bf         1   UNL       h36        37     0.47775        1.0080 ; qtot   -0.838
        38           h37bf         1   UNL       h37        38     0.11797        1.0080 ; qtot   -0.720
        39           h38bf         1   UNL       h38        39     0.11784        1.0080 ; qtot   -0.602
        40           h39bf         1   UNL       h39        40     0.11784        1.0080 ; qtot   -0.484
        41           h40bf         1   UNL       h40        41     0.11797        1.0080 ; qtot   -0.366
        42           h41bf         1   UNL       h41        42     0.15375        1.0080 ; qtot   -0.213
        43           h42bf         1   UNL       h42        43     0.03800        1.0080 ; qtot   -0.175
        44           h43bf         1   UNL       h43        44     0.05817        1.0080 ; qtot   -0.116
        45           h44bf         1   UNL       h44        45     0.05817        1.0080 ; qtot   -0.058
        46           h45bf         1   UNL       h45        46     0.05816        1.0080 ; qtot   -0.000

[ bonds ]
;       ai        aj funct               r               k
         1         2     1        0.139109   312166.033594
         1         4     1        0.141987   259854.133301
         1        13     1        0.143539   219380.292041
         2         6     1        0.140571   303678.264551
         2        28     1        0.108522   321080.042529
         3         4     1        0.138696   345757.828174
         3         5     1        0.140493   302149.817480
         3        29     1        0.108570   320827.250684
         4        30     1        0.108539   320852.481348
         5         6     1        0.141807   251973.177051
         5         9     1        0.137161   286141.548486
         6         7     1        0.143743   233228.760010
         7         8     1        0.132754   368799.732129
         7        10     1        0.150288   213615.264062
         8         9     1        0.136401   241851.313916
         9        31     1        0.100927   434980.632227
        10        14     1        0.151889   191838.442969
        10        32     1        0.109486   294999.682227
        10        33     1        0.109486   294999.682227
        11        12     1        0.180399   146895.211743
        11        13     1        0.170765   131817.451172
        11        26     1        0.146436   526251.742285
        11        27     1        0.146436   526251.742285
        12        34     1        0.109008   319982.993848
        12        35     1        0.109008   319982.993848
        12        36     1        0.109008   319982.968311
        13        37     1        0.101826   405775.346924
        14        15     1        0.140132   290757.304395
        14        19     1        0.140132   290757.304395
        15        16     1        0.139531   320296.512939
        15        38     1        0.108704   315886.075391
        16        17     1        0.140685   283825.179443
        16        39     1        0.108584   318696.102295
        17        18     1        0.140685   283825.179443
        17        20     1        0.146859   235591.683203
        18        19     1        0.139531   320296.512939
        18        40     1        0.108584   318696.102295
        19        41     1        0.108704   315886.075391
        20        21     1        0.139499   320805.390918
        20        24     1        0.142378   259368.162109
        21        22     1        0.135856   314480.283057
        21        42     1        0.108071   337590.039111
        22        23     1        0.135354   242037.913574
        22        25     1        0.145314   224810.528516
        23        24     1        0.133400   358572.221973
        24        43     1        0.108233   332445.307520
        25        44     1        0.109196   305692.172070
        25        45     1        0.109196   305692.172070
        25        46     1        0.109196   305692.172070

[ angles ]
;       ai        aj        ak funct           theta             cth
         1         2         6     1      118.299362      654.530861
         1         2        28     1      120.407120      400.671724
         1         4         3     1      121.388535      604.606770
         1         4        30     1      118.891563      433.467852
         1        13        11     1      119.490860      502.067072
         1        13        37     1      114.804749      473.943053
         2         1         4     1      121.281265      607.397976
         2         1        13     1      120.052345      430.484224
         2         6         5     1      119.937599      754.920111
         2         6         7     1      135.466599      432.060981
         3         4        30     1      119.805176      408.984915
         3         5         6     1      121.721878      609.193171
         3         5         9     1      132.597458      484.721150
         4         1        13     1      118.877808      537.945210
         4         3         5     1      117.239197      773.253585
         4         3        29     1      120.939819      430.032760
         5         3        29     1      121.953186      426.992152
         5         6         7     1      104.731522      492.009856
         5         9         8     1      112.256363      421.800426
         5         9        31     1      128.675629      377.902135
         6         2        28     1      121.087234      405.615963
         6         5         9     1      105.863548      167.360000
         6         7         8     1      110.749619      365.503038
         6         7        10     1      127.894974      447.936891
         7         8         9     1      106.455811      541.166525
         7        10        14     1      113.172752      518.393872
         7        10        32     1      108.505692      512.636020
         7        10        33     1      108.505692      512.636020
         8         7        10     1      121.569580      449.382228
         8         9        31     1      118.789017      482.596877
        10        14        15     1      120.885033      486.548234
        10        14        19     1      120.885033      486.548234
        11        12        34     1      107.797226      587.204443
        11        12        35     1      107.797226      587.204443
        11        12        36     1      107.797226      587.204379
        11        13        37     1      108.017296      607.633556
        12        11        13     1      103.047729      618.756435
        12        11        26     1      108.139053      675.595720
        12        11        27     1      108.139053      675.595720
        13        11        26     1      106.823624      669.547575
        13        11        27     1      106.823624      669.547575
        14        10        32     1      109.614029      493.993834
        14        10        33     1      109.614029      493.993834
        14        15        16     1      120.959518      705.842064
        14        15        38     1      119.502907      394.245725
        14        19        18     1      120.959518      705.842064
        14        19        41     1      119.502907      394.245725
        15        14        19     1      118.250145      711.225989
        15        16        17     1      121.013084      708.028679
        15        16        39     1      119.370682      427.621195
        16        15        38     1      119.522682      426.792643
        16        17        18     1      117.633606      614.164480
        16        17        20     1      121.173790      498.107383
        17        16        39     1      119.674911      429.339523
        17        18        19     1      121.013084      708.028679
        17        18        40     1      119.674911      429.339523
        17        20        21     1      127.875488      501.485943
        17        20        24     1      128.618073      539.877859
        18        17        20     1      121.173790      498.107383
        18        19        41     1      119.522682      426.792643
        19        18        40     1      119.370682      427.621195
        20        21        22     1      107.253334      167.360000
        20        21        42     1      131.309311      330.526743
        20        24        23     1      111.985497      241.969059
        20        24        43     1      128.583298      361.836739
        21        20        24     1      103.527756      370.968937
        21        22        23     1      112.317947      213.505142
        21        22        25     1      128.036591      424.086540
        22        21        42     1      121.687912      464.045636
        22        23        24     1      104.970238      567.675768
        22        25        44     1      109.593666      496.372137
        22        25        45     1      109.593666      496.372137
        22        25        46     1      109.593666      496.372137
        23        22        25     1      119.401001      615.866209
        23        24        43     1      119.394226      391.030699
        26        11        27     1      121.706688      693.460077
        32        10        33     1      106.967346      364.175843
        34        12        35     1      111.167770      344.907072
        34        12        36     1      111.167770      344.907104
        35        12        36     1      111.167770      344.907104
        44        25        45     1      109.444870      349.033390
        44        25        46     1      109.444870      349.033390
        45        25        46     1      109.444870      349.033390

[ dihedrals ] ; propers for gromacs 4.5 or higher, use funct 9
;       ai        aj        ak        al funct           phase               k        pn
         1         2         6         5     9        0.000000        0.019869         1
         1         2         6         5     9      180.000000       19.024620         2
         1         2         6         5     9        0.000000       -2.035296         3
         1         2         6         5     9      180.000000       -0.478749         4
         1         2         6         7     9        0.000000       -0.260307         1
         1         2         6         7     9      180.000000       12.526374         2
         1         2         6         7     9        0.000000       -0.630130         3
         1         2         6         7     9      180.000000       -0.139502         4
         1         4         3         5     9        0.000000       -0.109653         1
         1         4         3         5     9      180.000000       22.297807         2
         1         4         3         5     9        0.000000       -1.671973         3
         1         4         3         5     9      180.000000       -0.752031         4
         1         4         3        29     9        0.000000        0.064295         1
         1         4         3        29     9      180.000000       15.183242         2
         1         4         3        29     9        0.000000       -0.372376         3
         1         4         3        29     9      180.000000       -0.001372         4
         1        13        11        12     9        0.000000       -2.901337         1
         1        13        11        12     9      180.000000       -6.129262         2
         1        13        11        12     9        0.000000        2.287697         3
         1        13        11        12     9      180.000000        1.034273         4
         1        13        11        26     9        0.000000        0.215479         1
         1        13        11        26     9      180.000000        0.589941         2
         1        13        11        26     9        0.000000        1.582029         3
         1        13        11        26     9      180.000000        0.000908         4
         1        13        11        27     9        0.000000        0.215479         1
         1        13        11        27     9      180.000000        0.589941         2
         1        13        11        27     9        0.000000        1.582029         3
         1        13        11        27     9      180.000000        0.000908         4
         2         1         4         3     9        0.000000        0.103006         1
         2         1         4         3     9      180.000000       16.515383         2
         2         1         4         3     9        0.000000       -1.228436         3
         2         1         4         3     9      180.000000       -0.265067         4
         2         1         4        30     9        0.000000        0.096236         1
         2         1         4        30     9      180.000000       12.447964         2
         2         1         4        30     9        0.000000       -0.517685         3
         2         1         4        30     9      180.000000        0.118469         4
         2         1        13        11     9        0.000000       -0.101273         1
         2         1        13        11     9      180.000000        2.001562         2
         2         1        13        11     9        0.000000       -0.153735         3
         2         1        13        11     9      180.000000       -0.057463         4
         2         1        13        37     9        0.000000        0.071750         1
         2         1        13        37     9      180.000000        1.171776         2
         2         1        13        37     9        0.000000       -0.285222         3
         2         1        13        37     9      180.000000        0.265554         4
         2         6         5         3     9        0.000000       -0.048933         1
         2         6         5         3     9      180.000000       11.204488         2
         2         6         5         3     9        0.000000       -1.715008         3
         2         6         5         3     9      180.000000       -0.124510         4
         2         6         5         9     9        0.000000        0.208395         1
         2         6         5         9     9      180.000000        9.913471         2
         2         6         5         9     9        0.000000       -1.971758         3
         2         6         5         9     9      180.000000        0.141528         4
         2         6         7         8     9        0.000000       -0.243338         1
         2         6         7         8     9      180.000000        4.404098         2
         2         6         7         8     9        0.000000       -0.961525         3
         2         6         7         8     9      180.000000        0.110724         4
         2         6         7        10     9        0.000000       -0.338398         1
         2         6         7        10     9      180.000000        4.554152         2
         2         6         7        10     9        0.000000        0.351521         3
         2         6         7        10     9      180.000000        0.111282         4
         3         4         1        13     9        0.000000        0.565257         1
         3         4         1        13     9      180.000000       17.196919         2
         3         4         1        13     9        0.000000        0.306642         3
         3         4         1        13     9      180.000000       -0.341907         4
         3         5         6         7     9        0.000000       -0.069552         1
         3         5         6         7     9      180.000000       11.236788         2
         3         5         6         7     9        0.000000       -2.507145         3
         3         5         6         7     9      180.000000       -0.003360         4
         3         5         9         8     9        0.000000        1.141310         1
         3         5         9         8     9      180.000000        4.420784         2
         3         5         9         8     9        0.000000        0.472556         3
         3         5         9         8     9      180.000000        0.029750         4
         3         5         9        31     9        0.000000       -0.123428         1
         3         5         9        31     9      180.000000        1.025741         2
         3         5         9        31     9        0.000000        0.094501         3
         3         5         9        31     9      180.000000       -0.078599         4
         4         1         2         6     9        0.000000        0.084368         1
         4         1         2         6     9      180.000000       19.664454         2
         4         1         2         6     9        0.000000       -1.115198         3
         4         1         2         6     9      180.000000       -0.548204         4
         4         1         2        28     9        0.000000        0.078169         1
         4         1         2        28     9      180.000000       13.828087         2
         4         1         2        28     9        0.000000       -0.381310         3
         4         1         2        28     9      180.000000        0.049447         4
         4         1        13        11     9        0.000000       -0.005347         1
         4         1        13        11     9      180.000000        1.879248         2
         4         1        13        11     9        0.000000        0.168969         3
         4         1        13        11     9      180.000000       -0.066346         4
         4         1        13        37     9        0.000000        0.243553         1
         4         1        13        37     9      180.000000        1.166385         2
         4         1        13        37     9        0.000000       -0.048680         3
         4         1        13        37     9      180.000000        0.253057         4
         4         3         5         6     9        0.000000       -0.187123         1
         4         3         5         6     9      180.000000       17.076841         2
         4         3         5         6     9        0.000000       -1.892473         3
         4         3         5         6     9      180.000000       -0.337119         4
         4         3         5         9     9        0.000000        0.193778         1
         4         3         5         9     9      180.000000       13.276226         2
         4         3         5         9     9        0.000000       -0.104352         3
         4         3         5         9     9      180.000000       -0.067688         4
         5         3         4        30     9        0.000000        0.214481         1
         5         3         4        30     9      180.000000       17.581352         2
         5         3         4        30     9        0.000000       -0.313796         3
         5         3         4        30     9      180.000000       -0.156319         4
         5         6         2        28     9        0.000000        0.393755         1
         5         6         2        28     9      180.000000       13.612737         2
         5         6         2        28     9        0.000000       -0.222263         3
         5         6         2        28     9      180.000000       -0.095798         4
         5         6         7         8     9        0.000000       -0.133122         1
         5         6         7         8     9      180.000000       30.855967         2
         5         6         7         8     9        0.000000       -9.355881         3
         5         6         7         8     9      180.000000       -0.198394         4
         5         6         7        10     9        0.000000        0.968507         1
         5         6         7        10     9      180.000000       14.318992         2
         5         6         7        10     9        0.000000        0.056099         3
         5         6         7        10     9      180.000000       -0.532481         4
         5         9         8         7     9        0.000000       -0.233179         1
         5         9         8         7     9      180.000000       17.562720         2
         5         9         8         7     9        0.000000       -2.100051         3
         5         9         8         7     9      180.000000       -1.152257         4
         6         2         1        13     9        0.000000        0.128169         1
         6         2         1        13     9      180.000000       22.103896         2
         6         2         1        13     9        0.000000        0.156035         3
         6         2         1        13     9      180.000000       -0.957548         4
         6         5         3        29     9        0.000000        0.159802         1
         6         5         3        29     9      180.000000       11.438330         2
         6         5         3        29     9        0.000000       -0.220772         3
         6         5         3        29     9      180.000000       -0.026375         4
         6         5         9         8     9        0.000000        0.362792         1
         6         5         9         8     9      180.000000       24.066503         2
         6         5         9         8     9        0.000000       -5.035199         3
         6         5         9         8     9      180.000000       -0.985721         4
         6         5         9        31     9        0.000000        0.472282         1
         6         5         9        31     9      180.000000        1.143122         2
         6         5         9        31     9        0.000000        0.455461         3
         6         5         9        31     9      180.000000        0.029085         4
         6         7         8         9     9        0.000000       -0.224905         1
         6         7         8         9     9      180.000000       41.507435         2
         6         7         8         9     9        0.000000       -4.786755         3
         6         7         8         9     9      180.000000       -0.102740         4
         6         7        10        14     9        0.000000        0.285124         1
         6         7        10        14     9      180.000000       -0.486647         2
         6         7        10        14     9        0.000000        0.543244         3
         6         7        10        14     9      180.000000        0.035292         4
         6         7        10        32     9        0.000000       -0.041433         1
         6         7        10        32     9      180.000000        0.144277         2
         6         7        10        32     9        0.000000        0.500241         3
         6         7        10        32     9      180.000000        0.009389         4
         6         7        10        33     9        0.000000       -0.041433         1
         6         7        10        33     9      180.000000        0.144277         2
         6         7        10        33     9        0.000000        0.500241         3
         6         7        10        33     9      180.000000        0.009389         4
         7         6         2        28     9        0.000000       -0.059203         1
         7         6         2        28     9      180.000000        9.436313         2
         7         6         2        28     9        0.000000        0.099597         3
         7         6         2        28     9      180.000000        0.096352         4
         7         6         5         9     9        0.000000        0.328415         1
         7         6         5         9     9      180.000000       17.369975         2
         7         6         5         9     9        0.000000       -6.212472         3
         7         6         5         9     9      180.000000       -0.242540         4
         7         8         9        31     9        0.000000        2.563273         1
         7         8         9        31     9      180.000000        2.869632         2
         7         8         9        31     9        0.000000        0.468937         3
         7         8         9        31     9      180.000000        0.035634         4
         7        10        14        15     9        0.000000       -0.180701         1
         7        10        14        15     9      180.000000        0.173470         2
         7        10        14        15     9        0.000000        0.112217         3
         7        10        14        15     9      180.000000        0.017183         4
         7        10        14        19     9        0.000000       -0.180701         1
         7        10        14        19     9      180.000000        0.173470         2
         7        10        14        19     9        0.000000        0.112217         3
         7        10        14        19     9      180.000000        0.017183         4
         8         7        10        14     9        0.000000       -0.818350         1
         8         7        10        14     9      180.000000       -0.248106         2
         8         7        10        14     9        0.000000        0.018052         3
         8         7        10        14     9      180.000000        0.013452         4
         8         7        10        32     9        0.000000        0.226284         1
         8         7        10        32     9      180.000000        0.087396         2
         8         7        10        32     9        0.000000       -0.197891         3
         8         7        10        32     9      180.000000        0.040435         4
         8         7        10        33     9        0.000000        0.226284         1
         8         7        10        33     9      180.000000        0.087396         2
         8         7        10        33     9        0.000000       -0.197891         3
         8         7        10        33     9      180.000000        0.040435         4
         9         5         3        29     9        0.000000       -0.044414         1
         9         5         3        29     9      180.000000        9.594821         2
         9         5         3        29     9        0.000000       -0.048648         3
         9         5         3        29     9      180.000000        0.021903         4
         9         8         7        10     9        0.000000        0.563823         1
         9         8         7        10     9      180.000000       32.275985         2
         9         8         7        10     9        0.000000        0.790079         3
         9         8         7        10     9      180.000000       -0.842806         4
        10        14        15        16     9        0.000000        0.026860         1
        10        14        15        16     9      180.000000       15.135600         2
        10        14        15        16     9        0.000000       -0.170192         3
        10        14        15        16     9      180.000000       -0.215560         4
        10        14        15        38     9        0.000000       -0.086046         1
        10        14        15        38     9      180.000000       12.621826         2
        10        14        15        38     9        0.000000       -0.312532         3
        10        14        15        38     9      180.000000        0.160165         4
        10        14        19        18     9        0.000000        0.026860         1
        10        14        19        18     9      180.000000       15.135600         2
        10        14        19        18     9        0.000000       -0.170192         3
        10        14        19        18     9      180.000000       -0.215560         4
        10        14        19        41     9        0.000000       -0.086046         1
        10        14        19        41     9      180.000000       12.621826         2
        10        14        19        41     9        0.000000       -0.312532         3
        10        14        19        41     9      180.000000        0.160165         4
        12        11        13        37     9        0.000000       -9.445614         1
        12        11        13        37     9      180.000000       -4.314558         2
        12        11        13        37     9        0.000000       -0.149102         3
        12        11        13        37     9      180.000000        0.823017         4
        13         1         2        28     9        0.000000       -0.004958         1
        13         1         2        28     9      180.000000       14.557738         2
        13         1         2        28     9        0.000000       -0.007292         3
        13         1         2        28     9      180.000000        0.098501         4
        13         1         4        30     9        0.000000       -0.007188         1
        13         1         4        30     9      180.000000       13.749512         2
        13         1         4        30     9        0.000000       -0.196822         3
        13         1         4        30     9      180.000000        0.129525         4
        13        11        12        34     9        0.000000        0.175893         1
        13        11        12        34     9      180.000000       -0.097369         2
        13        11        12        34     9        0.000000        0.320548         3
        13        11        12        34     9      180.000000       -0.001133         4
        13        11        12        35     9        0.000000        0.175893         1
        13        11        12        35     9      180.000000       -0.097369         2
        13        11        12        35     9        0.000000        0.320548         3
        13        11        12        35     9      180.000000       -0.001133         4
        13        11        12        36     9        0.000000        0.175892         1
        13        11        12        36     9      180.000000       -0.097370         2
        13        11        12        36     9        0.000000        0.320548         3
        13        11        12        36     9      180.000000       -0.001133         4
        14        15        16        17     9        0.000000       -0.033501         1
        14        15        16        17     9      180.000000       18.361802         2
        14        15        16        17     9        0.000000       -1.382122         3
        14        15        16        17     9      180.000000       -0.333748         4
        14        15        16        39     9        0.000000        0.009019         1
        14        15        16        39     9      180.000000       15.117731         2
        14        15        16        39     9        0.000000       -0.652997         3
        14        15        16        39     9      180.000000        0.089353         4
        14        19        18        17     9        0.000000       -0.033501         1
        14        19        18        17     9      180.000000       18.361802         2
        14        19        18        17     9        0.000000       -1.382122         3
        14        19        18        17     9      180.000000       -0.333748         4
        14        19        18        40     9        0.000000        0.009019         1
        14        19        18        40     9      180.000000       15.117731         2
        14        19        18        40     9        0.000000       -0.652997         3
        14        19        18        40     9      180.000000        0.089353         4
        15        14        10        32     9        0.000000        0.026652         1
        15        14        10        32     9      180.000000        0.014947         2
        15        14        10        32     9        0.000000        0.013547         3
        15        14        10        32     9      180.000000        0.009027         4
        15        14        10        33     9        0.000000        0.026652         1
        15        14        10        33     9      180.000000        0.014947         2
        15        14        10        33     9        0.000000        0.013547         3
        15        14        10        33     9      180.000000        0.009027         4
        15        14        19        18     9        0.000000       -0.017692         1
        15        14        19        18     9      180.000000       18.652768         2
        15        14        19        18     9        0.000000       -1.225804         3
        15        14        19        18     9      180.000000       -0.466466         4
        15        14        19        41     9        0.000000        0.019722         1
        15        14        19        41     9      180.000000       14.478142         2
        15        14        19        41     9        0.000000       -0.483578         3
        15        14        19        41     9      180.000000        0.000311         4
        15        16        17        18     9        0.000000       -0.080966         1
        15        16        17        18     9      180.000000       18.153112         2
        15        16        17        18     9        0.000000       -1.373641         3
        15        16        17        18     9      180.000000       -0.356348         4
        15        16        17        20     9        0.000000        0.345560         1
        15        16        17        20     9      180.000000       16.650203         2
        15        16        17        20     9        0.000000       -0.115710         3
        15        16        17        20     9      180.000000       -0.388262         4
        16        15        14        19     9        0.000000       -0.017692         1
        16        15        14        19     9      180.000000       18.652768         2
        16        15        14        19     9        0.000000       -1.225804         3
        16        15        14        19     9      180.000000       -0.466466         4
        16        17        18        19     9        0.000000       -0.080966         1
        16        17        18        19     9      180.000000       18.153112         2
        16        17        18        19     9        0.000000       -1.373641         3
        16        17        18        19     9      180.000000       -0.356348         4
        16        17        18        40     9        0.000000       -0.122536         1
        16        17        18        40     9      180.000000       13.854594         2
        16        17        18        40     9        0.000000       -0.550856         3
        16        17        18        40     9      180.000000        0.073352         4
        16        17        20        21     9        0.000000        0.226385         1
        16        17        20        21     9      180.000000        2.444068         2
        16        17        20        21     9        0.000000        0.075300         3
        16        17        20        21     9      180.000000       -0.310311         4
        16        17        20        24     9        0.000000       -0.000289         1
        16        17        20        24     9      180.000000        2.079647         2
        16        17        20        24     9        0.000000       -0.058954         3
        16        17        20        24     9      180.000000       -0.243068         4
        17        16        15        38     9        0.000000       -0.019661         1
        17        16        15        38     9      180.000000       14.564298         2
        17        16        15        38     9        0.000000       -0.438149         3
        17        16        15        38     9      180.000000        0.148899         4
        17        18        19        41     9        0.000000       -0.019661         1
        17        18        19        41     9      180.000000       14.564298         2
        17        18        19        41     9        0.000000       -0.438149         3
        17        18        19        41     9      180.000000        0.148899         4
        17        20        21        22     9        0.000000        0.183654         1
        17        20        21        22     9      180.000000       16.330189         2
        17        20        21        22     9        0.000000       -0.168639         3
        17        20        21        22     9      180.000000       -0.945094         4
        17        20        21        42     9        0.000000       -0.192731         1
        17        20        21        42     9      180.000000       10.764578         2
        17        20        21        42     9        0.000000       -0.137823         3
        17        20        21        42     9      180.000000       -0.003216         4
        17        20        24        23     9        0.000000        0.388880         1
        17        20        24        23     9      180.000000       15.245298         2
        17        20        24        23     9        0.000000       -0.357893         3
        17        20        24        23     9      180.000000       -0.981862         4
        17        20        24        43     9        0.000000       -0.157977         1
        17        20        24        43     9      180.000000       10.350387         2
        17        20        24        43     9        0.000000       -0.025513         3
        17        20        24        43     9      180.000000        0.047765         4
        18        17        16        39     9        0.000000       -0.122536         1
        18        17        16        39     9      180.000000       13.854594         2
        18        17        16        39     9        0.000000       -0.550856         3
        18        17        16        39     9      180.000000        0.073352         4
        18        17        20        21     9        0.000000        0.226385         1
        18        17        20        21     9      180.000000        2.444068         2
        18        17        20        21     9        0.000000        0.075300         3
        18        17        20        21     9      180.000000       -0.310311         4
        18        17        20        24     9        0.000000       -0.000289         1
        18        17        20        24     9      180.000000        2.079647         2
        18        17        20        24     9        0.000000       -0.058954         3
        18        17        20        24     9      180.000000       -0.243068         4
        19        14        10        32     9        0.000000        0.026652         1
        19        14        10        32     9      180.000000        0.014947         2
        19        14        10        32     9        0.000000        0.013547         3
        19        14        10        32     9      180.000000        0.009027         4
        19        14        10        33     9        0.000000        0.026652         1
        19        14        10        33     9      180.000000        0.014947         2
        19        14        10        33     9        0.000000        0.013547         3
        19        14        10        33     9      180.000000        0.009027         4
        19        14        15        38     9        0.000000        0.019722         1
        19        14        15        38     9      180.000000       14.478142         2
        19        14        15        38     9        0.000000       -0.483578         3
        19        14        15        38     9      180.000000        0.000311         4
        19        18        17        20     9        0.000000        0.345560         1
        19        18        17        20     9      180.000000       16.650203         2
        19        18        17        20     9        0.000000       -0.115710         3
        19        18        17        20     9      180.000000       -0.388262         4
        20        17        16        39     9        0.000000        0.146898         1
        20        17        16        39     9      180.000000       13.479040         2
        20        17        16        39     9        0.000000       -0.087547         3
        20        17        16        39     9      180.000000        0.132717         4
        20        17        18        40     9        0.000000        0.146898         1
        20        17        18        40     9      180.000000       13.479040         2
        20        17        18        40     9        0.000000       -0.087547         3
        20        17        18        40     9      180.000000        0.132717         4
        20        21        22        23     9        0.000000       -0.009121         1
        20        21        22        23     9      180.000000       30.745141         2
        20        21        22        23     9        0.000000       -6.250990         3
        20        21        22        23     9      180.000000       -0.578339         4
        20        21        22        25     9        0.000000        0.805846         1
        20        21        22        25     9      180.000000        7.183529         2
        20        21        22        25     9        0.000000        0.904760         3
        20        21        22        25     9      180.000000       -0.006099         4
        20        24        23        22     9        0.000000       -0.003186         1
        20        24        23        22     9      180.000000       40.723745         2
        20        24        23        22     9        0.000000       -5.801977         3
        20        24        23        22     9      180.000000       -0.138216         4
        21        20        24        23     9        0.000000       -0.184323         1
        21        20        24        23     9      180.000000       30.518446         2
        21        20        24        23     9        0.000000       -8.302201         3
        21        20        24        23     9      180.000000        0.056566         4
        21        20        24        43     9        0.000000        0.182830         1
        21        20        24        43     9      180.000000       14.435368         2
        21        20        24        43     9        0.000000       -0.577632         3
        21        20        24        43     9      180.000000       -0.486645         4
        21        22        23        24     9        0.000000       -0.276705         1
        21        22        23        24     9      180.000000       27.814030         2
        21        22        23        24     9        0.000000       -4.425871         3
        21        22        23        24     9      180.000000        0.073279         4
        21        22        25        44     9        0.000000       -0.025033         1
        21        22        25        44     9      180.000000       -0.009391         2
        21        22        25        44     9        0.000000        0.181958         3
        21        22        25        44     9      180.000000        0.012892         4
        21        22        25        45     9        0.000000       -0.025033         1
        21        22        25        45     9      180.000000       -0.009391         2
        21        22        25        45     9        0.000000        0.181958         3
        21        22        25        45     9      180.000000        0.012892         4
        21        22        25        46     9        0.000000       -0.025033         1
        21        22        25        46     9      180.000000       -0.009391         2
        21        22        25        46     9        0.000000        0.181958         3
        21        22        25        46     9      180.000000        0.012892         4
        22        21        20        24     9        0.000000       -0.206975         1
        22        21        20        24     9      180.000000       30.618729         2
        22        21        20        24     9        0.000000       -8.507334         3
        22        21        20        24     9      180.000000       -0.023863         4
        22        23        24        43     9        0.000000        1.030702         1
        22        23        24        43     9      180.000000       28.071183         2
        22        23        24        43     9        0.000000       -0.182231         3
        22        23        24        43     9      180.000000       -0.061982         4
        23        22        21        42     9        0.000000        1.067261         1
        23        22        21        42     9      180.000000       12.367244         2
        23        22        21        42     9        0.000000        0.213521         3
        23        22        21        42     9      180.000000       -0.400032         4
        23        22        25        44     9        0.000000       -0.002235         1
        23        22        25        44     9      180.000000        0.002810         2
        23        22        25        44     9        0.000000        0.198678         3
        23        22        25        44     9      180.000000        0.004453         4
        23        22        25        45     9        0.000000       -0.002235         1
        23        22        25        45     9      180.000000        0.002810         2
        23        22        25        45     9        0.000000        0.198678         3
        23        22        25        45     9      180.000000        0.004453         4
        23        22        25        46     9        0.000000       -0.002235         1
        23        22        25        46     9      180.000000        0.002810         2
        23        22        25        46     9        0.000000        0.198678         3
        23        22        25        46     9      180.000000        0.004453         4
        24        20        21        42     9        0.000000        0.010232         1
        24        20        21        42     9      180.000000       13.254580         2
        24        20        21        42     9        0.000000       -0.641023         3
        24        20        21        42     9      180.000000       -0.261573         4
        24        23        22        25     9        0.000000        0.586693         1
        24        23        22        25     9      180.000000       10.298364         2
        24        23        22        25     9        0.000000        0.792012         3
        24        23        22        25     9      180.000000       -0.113382         4
        25        22        21        42     9        0.000000       -0.493730         1
        25        22        21        42     9      180.000000        3.995450         2
        25        22        21        42     9        0.000000        0.087170         3
        25        22        21        42     9      180.000000        0.043642         4
        26        11        12        34     9        0.000000       -0.041406         1
        26        11        12        34     9      180.000000       -0.035486         2
        26        11        12        34     9        0.000000        0.352115         3
        26        11        12        34     9      180.000000       -0.002603         4
        26        11        12        35     9        0.000000       -0.041406         1
        26        11        12        35     9      180.000000       -0.035486         2
        26        11        12        35     9        0.000000        0.352115         3
        26        11        12        35     9      180.000000       -0.002603         4
        26        11        12        36     9        0.000000       -0.041406         1
        26        11        12        36     9      180.000000       -0.035485         2
        26        11        12        36     9        0.000000        0.352115         3
        26        11        12        36     9      180.000000       -0.002604         4
        26        11        13        37     9        0.000000        0.580953         1
        26        11        13        37     9      180.000000        0.361924         2
        26        11        13        37     9        0.000000       -0.366342         3
        26        11        13        37     9      180.000000       -0.114839         4
        27        11        12        34     9        0.000000       -0.041406         1
        27        11        12        34     9      180.000000       -0.035486         2
        27        11        12        34     9        0.000000        0.352115         3
        27        11        12        34     9      180.000000       -0.002603         4
        27        11        12        35     9        0.000000       -0.041406         1
        27        11        12        35     9      180.000000       -0.035486         2
        27        11        12        35     9        0.000000        0.352115         3
        27        11        12        35     9      180.000000       -0.002603         4
        27        11        12        36     9        0.000000       -0.041406         1
        27        11        12        36     9      180.000000       -0.035485         2
        27        11        12        36     9        0.000000        0.352115         3
        27        11        12        36     9      180.000000       -0.002604         4
        27        11        13        37     9        0.000000        0.580953         1
        27        11        13        37     9      180.000000        0.361924         2
        27        11        13        37     9        0.000000       -0.366342         3
        27        11        13        37     9      180.000000       -0.114839         4
        29         3         4        30     9        0.000000       -0.032631         1
        29         3         4        30     9      180.000000       12.704281         2
        29         3         4        30     9        0.000000       -0.673465         3
        29         3         4        30     9      180.000000        0.283103         4
        38        15        16        39     9        0.000000       -0.173269         1
        38        15        16        39     9      180.000000       12.433055         2
        38        15        16        39     9        0.000000       -0.660707         3
        38        15        16        39     9      180.000000        0.303153         4
        40        18        19        41     9        0.000000       -0.173269         1
        40        18        19        41     9      180.000000       12.433055         2
        40        18        19        41     9        0.000000       -0.660707         3
        40        18        19        41     9      180.000000        0.303153         4

[ dihedrals ] ; impropers
;       ai        aj        ak        al funct           phase               k        pn
         2         1         6        28     4      180.000000        0.532867         2
         2         6        28         1     4      180.000000        0.532867         2
         2        28         1         6     4      180.000000        0.532867         2
        15        14        16        38     4      180.000000        1.374161         2
        15        16        38        14     4      180.000000        1.374161         2
        15        38        14        16     4      180.000000        1.374161         2
        19        14        18        41     4      180.000000        1.374161         2
        19        18        41        14     4      180.000000        1.374161         2
        19        41        14        18     4      180.000000        1.374161         2

[ pairs ]
;       ai        aj funct
         1         5     1
         1         7     1
         1        12     1
         1        26     1
         1        27     1
         1        29     1
         2         3     1
         2         8     1
         2         9     1
         2        10     1
         2        11     1
         2        30     1
         2        37     1
         3         7     1
         3         8     1
         3        13     1
         3        31     1
         4         6     1
         4         9     1
         4        11     1
         4        28     1
         4        37     1
         5        10     1
         5        28     1
         5        30     1
         6        13     1
         6        14     1
         6        29     1
         6        31     1
         6        32     1
         6        33     1
         7        15     1
         7        19     1
         7        28     1
         7        31     1
         8        14     1
         8        32     1
         8        33     1
         9        10     1
         9        29     1
        10        16     1
        10        18     1
        10        38     1
        10        41     1
        12        37     1
        13        28     1
        13        30     1
        13        34     1
        13        35     1
        13        36     1
        14        17     1
        14        39     1
        14        40     1
        15        18     1
        15        20     1
        15        32     1
        15        33     1
        15        41     1
        16        19     1
        16        21     1
        16        24     1
        16        40     1
        17        22     1
        17        23     1
        17        38     1
        17        41     1
        17        42     1
        17        43     1
        18        21     1
        18        24     1
        18        39     1
        19        20     1
        19        32     1
        19        33     1
        19        38     1
        20        25     1
        20        39     1
        20        40     1
        21        43     1
        21        44     1
        21        45     1
        21        46     1
        22        43     1
        23        42     1
        23        44     1
        23        45     1
        23        46     1
        24        25     1
        24        42     1
        25        42     1
        26        34     1
        26        35     1
        26        36     1
        26        37     1
        27        34     1
        27        35     1
        27        36     1
        27        37     1
        29        30     1
        38        39     1
        40        41     1
