; ITP file created by ByteFF-ML, 2026-02-21 07:35:54.047523

[ atomtypes ]
;name           bonded.type        at.num        mass        charge   ptype           sigma         epsilon
 c0bf                                   6      0.0000       0.00000       A     3.31608e-01     4.12991e-01
 c1bf                                   6      0.0000       0.00000       A     3.31597e-01     4.12499e-01
 c2bf                                   6      0.0000       0.00000       A     3.31498e-01     4.13313e-01
 c3bf                                   6      0.0000       0.00000       A     3.31640e-01     4.13321e-01
 c4bf                                   6      0.0000       0.00000       A     3.31502e-01     4.12517e-01
 c5bf                                   6      0.0000       0.00000       A     3.31527e-01     4.13016e-01
 c6bf                                   6      0.0000       0.00000       A     3.31412e-01     4.11665e-01
 n7bf                                   7      0.0000       0.00000       A     3.38151e-01     3.91342e-01
 n8bf                                   7      0.0000       0.00000       A     3.20440e-01     8.58154e-01
 c9bf                                   6      0.0000       0.00000       A     3.39892e-01     4.51463e-01
 n10bf                                  7      0.0000       0.00000       A     3.27581e-01     6.46207e-01
 c11bf                                  6      0.0000       0.00000       A     3.31526e-01     4.13182e-01
 c12bf                                  6      0.0000       0.00000       A     3.31408e-01     4.13210e-01
 c13bf                                  6      0.0000       0.00000       A     3.31502e-01     4.12536e-01
 c14bf                                  6      0.0000       0.00000       A     3.31322e-01     4.13227e-01
 c15bf                                  6      0.0000       0.00000       A     3.31502e-01     4.12536e-01
 c16bf                                  6      0.0000       0.00000       A     3.31408e-01     4.13210e-01
 c17bf                                  6      0.0000       0.00000       A     3.31350e-01     4.11687e-01
 c18bf                                  6      0.0000       0.00000       A     3.31475e-01     4.11821e-01
 n19bf                                  7      0.0000       0.00000       A     3.20558e-01     8.54076e-01
 n20bf                                  7      0.0000       0.00000       A     3.38391e-01     3.93249e-01
 c21bf                                  6      0.0000       0.00000       A     3.31594e-01     4.13789e-01
 c22bf                                  6      0.0000       0.00000       A     3.39839e-01     4.51932e-01
 c23bf                                  6      0.0000       0.00000       A     3.39854e-01     4.50317e-01
 c24bf                                  6      0.0000       0.00000       A     3.39747e-01     4.51206e-01
 n25bf                                  7      0.0000       0.00000       A     3.27187e-01     4.88223e-01
 c26bf                                  6      0.0000       0.00000       A     3.31564e-01     4.14158e-01
 o27bf                                  8      0.0000       0.00000       A     3.04744e-01     6.12622e-01
 c28bf                                  6      0.0000       0.00000       A     3.39765e-01     4.49855e-01
 h29bf                                  1      0.0000       0.00000       A     2.62233e-01     6.74132e-02
 h30bf                                  1      0.0000       0.00000       A     2.62445e-01     6.71546e-02
 h31bf                                  1      0.0000       0.00000       A     2.62450e-01     6.73908e-02
 h32bf                                  1      0.0000       0.00000       A     1.10602e-01     4.12983e-02
 h33bf                                  1      0.0000       0.00000       A     2.60090e-01     8.80823e-02
 h34bf                                  1      0.0000       0.00000       A     2.60090e-01     8.80823e-02
 h35bf                                  1      0.0000       0.00000       A     1.10949e-01     4.01300e-02
 h36bf                                  1      0.0000       0.00000       A     2.62498e-01     6.75473e-02
 h37bf                                  1      0.0000       0.00000       A     2.62482e-01     6.74643e-02
 h38bf                                  1      0.0000       0.00000       A     2.62482e-01     6.74643e-02
 h39bf                                  1      0.0000       0.00000       A     2.62498e-01     6.75473e-02
 h40bf                                  1      0.0000       0.00000       A     2.53807e-01     6.74898e-02
 h41bf                                  1      0.0000       0.00000       A     2.53933e-01     6.69200e-02
 h42bf                                  1      0.0000       0.00000       A     2.41990e-01     8.77359e-02
 h43bf                                  1      0.0000       0.00000       A     2.41990e-01     8.77359e-02
 h44bf                                  1      0.0000       0.00000       A     2.41990e-01     8.77359e-02
 h45bf                                  1      0.0000       0.00000       A     2.42295e-01     8.80583e-02
 h46bf                                  1      0.0000       0.00000       A     2.42295e-01     8.80583e-02
 h47bf                                  1      0.0000       0.00000       A     2.42081e-01     8.68038e-02
 h48bf                                  1      0.0000       0.00000       A     2.42081e-01     8.68038e-02
 h49bf                                  1      0.0000       0.00000       A     1.10578e-01     4.02848e-02
 h50bf                                  1      0.0000       0.00000       A     2.60016e-01     8.70704e-02
 h51bf                                  1      0.0000       0.00000       A     2.60016e-01     8.70704e-02
 h52bf                                  1      0.0000       0.00000       A     2.60016e-01     8.70704e-02

[ moleculetype ]
;name             nrexcl
 27                    3

[ atoms ]
;       nr            type      resi   res      atom      cgnr      charge          mass ; qtot
         1            c0bf         1   UNL        c0         1     0.23808       12.0110 ; qtot    0.238
         2            c1bf         1   UNL        c1         2    -0.11194       12.0110 ; qtot    0.126
         3            c2bf         1   UNL        c2         3    -0.10565       12.0110 ; qtot    0.020
         4            c3bf         1   UNL        c3         4    -0.12080       12.0110 ; qtot   -0.100
         5            c4bf         1   UNL        c4         5    -0.05001       12.0110 ; qtot   -0.150
         6            c5bf         1   UNL        c5         6    -0.18383       12.0110 ; qtot   -0.334
         7            c6bf         1   UNL        c6         7     0.34340       12.0110 ; qtot    0.009
         8            n7bf         1   UNL        n7         8    -0.50676       14.0070 ; qtot   -0.498
         9            n8bf         1   UNL        n8         9    -0.07998       14.0070 ; qtot   -0.577
        10            c9bf         1   UNL        c9        10    -0.03873       12.0110 ; qtot   -0.616
        11           n10bf         1   UNL       n10        11    -0.91353       14.0070 ; qtot   -1.530
        12           c11bf         1   UNL       c11        12    -0.08002       12.0110 ; qtot   -1.610
        13           c12bf         1   UNL       c12        13    -0.10203       12.0110 ; qtot   -1.712
        14           c13bf         1   UNL       c13        14    -0.11007       12.0110 ; qtot   -1.822
        15           c14bf         1   UNL       c14        15     0.00438       12.0110 ; qtot   -1.817
        16           c15bf         1   UNL       c15        16    -0.11007       12.0110 ; qtot   -1.928
        17           c16bf         1   UNL       c16        17    -0.10203       12.0110 ; qtot   -2.030
        18           c17bf         1   UNL       c17        18    -0.16403       12.0110 ; qtot   -2.194
        19           c18bf         1   UNL       c18        19    -0.14400       12.0110 ; qtot   -2.338
        20           n19bf         1   UNL       n19        20     0.11171       14.0070 ; qtot   -2.226
        21           n20bf         1   UNL       n20        21    -0.52174       14.0070 ; qtot   -2.748
        22           c21bf         1   UNL       c21        22     0.25349       12.0110 ; qtot   -2.494
        23           c22bf         1   UNL       c22        23     0.07027       12.0110 ; qtot   -2.424
        24           c23bf         1   UNL       c23        24     0.16375       12.0110 ; qtot   -2.260
        25           c24bf         1   UNL       c24        25     0.08076       12.0110 ; qtot   -2.179
        26           n25bf         1   UNL       n25        26    -0.51535       14.0070 ; qtot   -2.695
        27           c26bf         1   UNL       c26        27     0.59677       12.0110 ; qtot   -2.098
        28           o27bf         1   UNL       o27        28    -0.61110       15.9990 ; qtot   -2.709
        29           c28bf         1   UNL       c28        29    -0.17649       12.0110 ; qtot   -2.886
        30           h29bf         1   UNL       h29        30     0.12089        1.0080 ; qtot   -2.765
        31           h30bf         1   UNL       h30        31     0.12002        1.0080 ; qtot   -2.645
        32           h31bf         1   UNL       h31        32     0.11666        1.0080 ; qtot   -2.528
        33           h32bf         1   UNL       h32        33     0.37621        1.0080 ; qtot   -2.152
        34           h33bf         1   UNL       h33        34     0.06255        1.0080 ; qtot   -2.089
        35           h34bf         1   UNL       h34        35     0.06255        1.0080 ; qtot   -2.027
        36           h35bf         1   UNL       h35        36     0.44966        1.0080 ; qtot   -1.577
        37           h36bf         1   UNL       h36        37     0.11797        1.0080 ; qtot   -1.459
        38           h37bf         1   UNL       h37        38     0.11784        1.0080 ; qtot   -1.341
        39           h38bf         1   UNL       h38        39     0.11784        1.0080 ; qtot   -1.223
        40           h39bf         1   UNL       h39        40     0.11797        1.0080 ; qtot   -1.105
        41           h40bf         1   UNL       h40        41     0.15375        1.0080 ; qtot   -0.952
        42           h41bf         1   UNL       h41        42     0.03800        1.0080 ; qtot   -0.914
        43           h42bf         1   UNL       h42        43     0.05817        1.0080 ; qtot   -0.855
        44           h43bf         1   UNL       h43        44     0.05817        1.0080 ; qtot   -0.797
        45           h44bf         1   UNL       h44        45     0.05817        1.0080 ; qtot   -0.739
        46           h45bf         1   UNL       h45        46     0.05508        1.0080 ; qtot   -0.684
        47           h46bf         1   UNL       h46        47     0.05508        1.0080 ; qtot   -0.629
        48           h47bf         1   UNL       h47        48     0.06353        1.0080 ; qtot   -0.565
        49           h48bf         1   UNL       h48        49     0.06353        1.0080 ; qtot   -0.502
        50           h49bf         1   UNL       h49        50     0.31599        1.0080 ; qtot   -0.186
        51           h50bf         1   UNL       h50        51     0.06198        1.0080 ; qtot   -0.124
        52           h51bf         1   UNL       h51        52     0.06198        1.0080 ; qtot   -0.062
        53           h52bf         1   UNL       h52        53     0.06196        1.0080 ; qtot    0.000

[ bonds ]
;       ai        aj funct               r               k
         1         2     1        0.139655   299130.667187
         1         4     1        0.142728   247272.612402
         1        11     1        0.140761   261022.915723
         2         6     1        0.140716   301740.202246
         2        30     1        0.108555   318954.052637
         3         4     1        0.138716   346178.960645
         3         5     1        0.140404   303741.698730
         3        31     1        0.108627   318793.602979
         4        32     1        0.108563   318873.866113
         5         6     1        0.141745   252877.011963
         5         9     1        0.137161   286141.548486
         6         7     1        0.143696   233708.985352
         7         8     1        0.132754   368799.732129
         7        10     1        0.150288   213615.264062
         8         9     1        0.136401   241851.313916
         9        33     1        0.100927   434980.632227
        10        12     1        0.151889   191838.442969
        10        34     1        0.109486   294999.682227
        10        35     1        0.109486   294999.682227
        11        24     1        0.145794   211994.640796
        11        36     1        0.101362   408621.381152
        12        13     1        0.140132   290757.355469
        12        17     1        0.140132   290757.355469
        13        14     1        0.139531   320296.512939
        13        37     1        0.108704   315886.049854
        14        15     1        0.140685   283825.179443
        14        38     1        0.108584   318696.127832
        15        16     1        0.140685   283825.179443
        15        18     1        0.146859   235591.683203
        16        17     1        0.139531   320296.512939
        16        39     1        0.108584   318696.102295
        17        40     1        0.108704   315886.075391
        18        19     1        0.139499   320805.390918
        18        22     1        0.142378   259368.136572
        19        20     1        0.135856   314480.283057
        19        41     1        0.108071   337590.039111
        20        21     1        0.135354   242037.913574
        20        23     1        0.145314   224810.528516
        21        22     1        0.133400   358572.221973
        22        42     1        0.108233   332445.307520
        23        43     1        0.109196   305692.172070
        23        44     1        0.109196   305692.172070
        23        45     1        0.109196   305692.172070
        24        25     1        0.153654   177674.438477
        24        46     1        0.109590   292169.710840
        24        47     1        0.109590   292169.710840
        25        26     1        0.145810   209561.911914
        25        48     1        0.109299   301877.847266
        25        49     1        0.109299   301877.847266
        26        27     1        0.136866   297628.012598
        26        50     1        0.101094   423530.303125
        27        28     1        0.123240   602127.652734
        27        29     1        0.151954   180836.443359
        29        51     1        0.109282   307195.694922
        29        52     1        0.109282   307195.694922
        29        53     1        0.109282   307195.694922

[ angles ]
;       ai        aj        ak funct           theta             cth
         1         2         6     1      119.082741      709.320921
         1         2        30     1      120.649292      410.805104
         1         4         3     1      122.244064      700.002302
         1         4        32     1      119.041603      442.531898
         1        11        24     1      119.787064      536.154037
         1        11        36     1      112.070351      501.434613
         2         1         4     1      119.421852      588.862631
         2         1        11     1      121.008080      528.368475
         2         6         5     1      120.179710      742.554404
         2         6         7     1      135.339569      433.547751
         3         4        32     1      118.892899      417.847983
         3         5         6     1      121.371910      601.189649
         3         5         9     1      132.849915      476.259844
         4         1        11     1      119.596764      672.701025
         4         3         5     1      117.516029      761.579104
         4         3        31     1      120.688744      429.303324
         5         3        31     1      121.933029      429.869993
         5         6         7     1      104.676147      501.457661
         5         9         8     1      112.256363      421.800426
         5         9        33     1      128.675629      377.902135
         6         2        30     1      120.354691      419.030926
         6         5         9     1      105.860924      167.360000
         6         7         8     1      110.822754      370.151430
         6         7        10     1      127.929382      444.967532
         7         8         9     1      106.455811      541.166525
         7        10        12     1      113.172752      518.393872
         7        10        34     1      108.505692      512.636020
         7        10        35     1      108.505692      512.636020
         8         7        10     1      121.569580      449.382228
         8         9        33     1      118.789017      482.596877
        10        12        13     1      120.885033      486.548234
        10        12        17     1      120.885033      486.548234
        11        24        25     1      111.793411      542.340594
        11        24        46     1      109.960526      471.266828
        11        24        47     1      109.960526      471.266828
        12        10        34     1      109.614029      493.993834
        12        10        35     1      109.614029      493.993834
        12        13        14     1      120.959518      705.842064
        12        13        37     1      119.502907      394.245725
        12        17        16     1      120.959518      705.842064
        12        17        40     1      119.502907      394.245725
        13        12        17     1      118.250145      711.225989
        13        14        15     1      121.013084      708.028679
        13        14        38     1      119.370682      427.621195
        14        13        37     1      119.522682      426.792643
        14        15        16     1      117.633606      614.164480
        14        15        18     1      121.173790      498.107383
        15        14        38     1      119.674911      429.339523
        15        16        17     1      121.013084      708.028679
        15        16        39     1      119.674911      429.339523
        15        18        19     1      127.875488      501.485943
        15        18        22     1      128.618073      539.877859
        16        15        18     1      121.173790      498.107383
        16        17        40     1      119.522682      426.792643
        17        16        39     1      119.370682      427.621227
        18        19        20     1      107.253334      167.360000
        18        19        41     1      131.309311      330.526743
        18        22        21     1      111.985497      241.969059
        18        22        42     1      128.583298      361.836739
        19        18        22     1      103.527756      370.968905
        19        20        21     1      112.317947      213.505126
        19        20        23     1      128.036591      424.086540
        20        19        41     1      121.687912      464.045604
        20        21        22     1      104.970230      567.675768
        20        23        43     1      109.593666      496.372137
        20        23        44     1      109.593666      496.372137
        20        23        45     1      109.593666      496.372137
        21        20        23     1      119.401001      615.866145
        21        22        42     1      119.394226      391.030667
        24        11        36     1      112.223183      483.172931
        24        25        26     1      112.067261      553.557960
        24        25        48     1      109.868370      483.068484
        24        25        49     1      109.868370      483.068484
        25        24        46     1      109.114220      485.313036
        25        24        47     1      109.114220      485.313036
        25        26        27     1      121.704002      550.321962
        25        26        50     1      118.114700      422.058734
        26        25        48     1      108.388351      519.942091
        26        25        49     1      108.388351      519.942091
        26        27        28     1      122.295898      624.874552
        26        27        29     1      115.794312      519.458578
        27        26        50     1      118.839638      439.247060
        27        29        51     1      110.325012      511.454992
        27        29        52     1      110.325012      511.454992
        27        29        53     1      110.325012      511.454992
        28        27        29     1      121.772293      495.336671
        34        10        35     1      106.967346      364.175843
        43        23        44     1      109.444870      349.033358
        43        23        45     1      109.444870      349.033358
        44        23        45     1      109.444870      349.033358
        46        24        47     1      107.195961      351.018996
        48        25        49     1      107.993668      348.425703
        51        29        52     1      108.604759      361.248907
        51        29        53     1      108.604759      361.248907
        52        29        53     1      108.604759      361.248907

[ dihedrals ] ; propers for gromacs 4.5 or higher, use funct 9
;       ai        aj        ak        al funct           phase               k        pn
         1         2         6         5     9        0.000000        0.078146         1
         1         2         6         5     9      180.000000       18.741812         2
         1         2         6         5     9        0.000000       -2.125983         3
         1         2         6         5     9      180.000000       -0.491590         4
         1         2         6         7     9        0.000000       -0.061032         1
         1         2         6         7     9      180.000000       11.657309         2
         1         2         6         7     9        0.000000       -0.493892         3
         1         2         6         7     9      180.000000       -0.151414         4
         1         4         3         5     9        0.000000       -0.023559         1
         1         4         3         5     9      180.000000       21.562264         2
         1         4         3         5     9        0.000000       -1.605835         3
         1         4         3         5     9      180.000000       -0.728883         4
         1         4         3        31     9        0.000000        0.042992         1
         1         4         3        31     9      180.000000       14.776582         2
         1         4         3        31     9        0.000000       -0.457883         3
         1         4         3        31     9      180.000000        0.047081         4
         1        11        24        25     9        0.000000        1.756188         1
         1        11        24        25     9      180.000000       -1.005288         2
         1        11        24        25     9        0.000000        0.966157         3
         1        11        24        25     9      180.000000       -0.043714         4
         1        11        24        46     9        0.000000       -0.149058         1
         1        11        24        46     9      180.000000        0.269507         2
         1        11        24        46     9        0.000000        1.203373         3
         1        11        24        46     9      180.000000        0.028872         4
         1        11        24        47     9        0.000000       -0.149058         1
         1        11        24        47     9      180.000000        0.269507         2
         1        11        24        47     9        0.000000        1.203373         3
         1        11        24        47     9      180.000000        0.028872         4
         2         1         4         3     9        0.000000        0.083908         1
         2         1         4         3     9      180.000000       14.502272         2
         2         1         4         3     9        0.000000       -0.814673         3
         2         1         4         3     9      180.000000       -0.148227         4
         2         1         4        32     9        0.000000        0.082144         1
         2         1         4        32     9      180.000000       11.742575         2
         2         1         4        32     9        0.000000       -0.407281         3
         2         1         4        32     9      180.000000        0.086805         4
         2         1        11        24     9        0.000000       -0.734639         1
         2         1        11        24     9      180.000000        3.856389         2
         2         1        11        24     9        0.000000       -0.294514         3
         2         1        11        24     9      180.000000        0.035894         4
         2         1        11        36     9        0.000000        0.214640         1
         2         1        11        36     9      180.000000        4.368140         2
         2         1        11        36     9        0.000000        0.043417         3
         2         1        11        36     9      180.000000       -0.135550         4
         2         6         5         3     9        0.000000       -0.056309         1
         2         6         5         3     9      180.000000       10.720635         2
         2         6         5         3     9        0.000000       -1.703342         3
         2         6         5         3     9      180.000000       -0.067408         4
         2         6         5         9     9        0.000000        0.094238         1
         2         6         5         9     9      180.000000       10.192218         2
         2         6         5         9     9        0.000000       -2.002725         3
         2         6         5         9     9      180.000000        0.071335         4
         2         6         7         8     9        0.000000       -0.333036         1
         2         6         7         8     9      180.000000        4.527633         2
         2         6         7         8     9        0.000000       -0.809466         3
         2         6         7         8     9      180.000000        0.059909         4
         2         6         7        10     9        0.000000       -0.305287         1
         2         6         7        10     9      180.000000        4.702918         2
         2         6         7        10     9        0.000000        0.349119         3
         2         6         7        10     9      180.000000        0.149077         4
         3         4         1        11     9        0.000000        0.454122         1
         3         4         1        11     9      180.000000       15.187632         2
         3         4         1        11     9        0.000000        0.240028         3
         3         4         1        11     9      180.000000       -0.178312         4
         3         5         6         7     9        0.000000       -0.093989         1
         3         5         6         7     9      180.000000       10.904317         2
         3         5         6         7     9        0.000000       -2.498408         3
         3         5         6         7     9      180.000000        0.060098         4
         3         5         9         8     9        0.000000        1.032554         1
         3         5         9         8     9      180.000000        4.046870         2
         3         5         9         8     9        0.000000        0.467202         3
         3         5         9         8     9      180.000000        0.053968         4
         3         5         9        33     9        0.000000       -0.116851         1
         3         5         9        33     9      180.000000        0.970370         2
         3         5         9        33     9        0.000000        0.054942         3
         3         5         9        33     9      180.000000       -0.042417         4
         4         1         2         6     9        0.000000        0.078539         1
         4         1         2         6     9      180.000000       18.686584         2
         4         1         2         6     9        0.000000       -0.972442         3
         4         1         2         6     9      180.000000       -0.506989         4
         4         1         2        30     9        0.000000        0.091928         1
         4         1         2        30     9      180.000000       13.100160         2
         4         1         2        30     9        0.000000       -0.310143         3
         4         1         2        30     9      180.000000        0.131989         4
         4         1        11        24     9        0.000000        0.129356         1
         4         1        11        24     9      180.000000        4.115280         2
         4         1        11        24     9        0.000000        0.445076         3
         4         1        11        24     9      180.000000       -0.130469         4
         4         1        11        36     9        0.000000       -0.180091         1
         4         1        11        36     9      180.000000        4.397059         2
         4         1        11        36     9        0.000000        0.085645         3
         4         1        11        36     9      180.000000       -0.177406         4
         4         3         5         6     9        0.000000       -0.163178         1
         4         3         5         6     9      180.000000       17.345196         2
         4         3         5         6     9        0.000000       -1.793480         3
         4         3         5         6     9      180.000000       -0.393244         4
         4         3         5         9     9        0.000000        0.115246         1
         4         3         5         9     9      180.000000       13.156552         2
         4         3         5         9     9        0.000000       -0.130585         3
         4         3         5         9     9      180.000000       -0.098317         4
         5         3         4        32     9        0.000000        0.147417         1
         5         3         4        32     9      180.000000       17.208656         2
         5         3         4        32     9        0.000000       -0.340474         3
         5         3         4        32     9      180.000000       -0.092724         4
         5         6         2        30     9        0.000000        0.300020         1
         5         6         2        30     9      180.000000       13.482426         2
         5         6         2        30     9        0.000000       -0.214866         3
         5         6         2        30     9      180.000000       -0.060407         4
         5         6         7         8     9        0.000000       -0.148267         1
         5         6         7         8     9      180.000000       30.906722         2
         5         6         7         8     9        0.000000       -9.345450         3
         5         6         7         8     9      180.000000       -0.201864         4
         5         6         7        10     9        0.000000        0.959527         1
         5         6         7        10     9      180.000000       14.012081         2
         5         6         7        10     9        0.000000        0.058895         3
         5         6         7        10     9      180.000000       -0.498119         4
         5         9         8         7     9        0.000000       -0.233179         1
         5         9         8         7     9      180.000000       17.562720         2
         5         9         8         7     9        0.000000       -2.100051         3
         5         9         8         7     9      180.000000       -1.152257         4
         6         2         1        11     9        0.000000        0.356691         1
         6         2         1        11     9      180.000000       20.604898         2
         6         2         1        11     9        0.000000        0.158856         3
         6         2         1        11     9      180.000000       -0.853595         4
         6         5         3        31     9        0.000000        0.140690         1
         6         5         3        31     9      180.000000       11.643107         2
         6         5         3        31     9        0.000000       -0.168096         3
         6         5         3        31     9      180.000000       -0.053662         4
         6         5         9         8     9        0.000000        0.344120         1
         6         5         9         8     9      180.000000       23.621778         2
         6         5         9         8     9        0.000000       -4.983454         3
         6         5         9         8     9      180.000000       -0.964625         4
         6         5         9        33     9        0.000000        0.593963         1
         6         5         9        33     9      180.000000        1.038268         2
         6         5         9        33     9        0.000000        0.473370         3
         6         5         9        33     9      180.000000        0.027631         4
         6         7         8         9     9        0.000000       -0.247968         1
         6         7         8         9     9      180.000000       41.473694         2
         6         7         8         9     9        0.000000       -4.759057         3
         6         7         8         9     9      180.000000       -0.125272         4
         6         7        10        12     9        0.000000        0.184951         1
         6         7        10        12     9      180.000000       -0.474139         2
         6         7        10        12     9        0.000000        0.508218         3
         6         7        10        12     9      180.000000        0.021635         4
         6         7        10        34     9        0.000000       -0.010889         1
         6         7        10        34     9      180.000000        0.142461         2
         6         7        10        34     9        0.000000        0.489271         3
         6         7        10        34     9      180.000000        0.011663         4
         6         7        10        35     9        0.000000       -0.010889         1
         6         7        10        35     9      180.000000        0.142461         2
         6         7        10        35     9        0.000000        0.489271         3
         6         7        10        35     9      180.000000        0.011663         4
         7         6         2        30     9        0.000000       -0.082203         1
         7         6         2        30     9      180.000000        8.562072         2
         7         6         2        30     9        0.000000        0.052776         3
         7         6         2        30     9      180.000000        0.122278         4
         7         6         5         9     9        0.000000        0.291052         1
         7         6         5         9     9      180.000000       17.588477         2
         7         6         5         9     9        0.000000       -6.213852         3
         7         6         5         9     9      180.000000       -0.254385         4
         7         8         9        33     9        0.000000        2.563273         1
         7         8         9        33     9      180.000000        2.869632         2
         7         8         9        33     9        0.000000        0.468937         3
         7         8         9        33     9      180.000000        0.035634         4
         7        10        12        13     9        0.000000       -0.180701         1
         7        10        12        13     9      180.000000        0.173470         2
         7        10        12        13     9        0.000000        0.112217         3
         7        10        12        13     9      180.000000        0.017183         4
         7        10        12        17     9        0.000000       -0.180701         1
         7        10        12        17     9      180.000000        0.173470         2
         7        10        12        17     9        0.000000        0.112217         3
         7        10        12        17     9      180.000000        0.017183         4
         8         7        10        12     9        0.000000       -0.818350         1
         8         7        10        12     9      180.000000       -0.248106         2
         8         7        10        12     9        0.000000        0.018052         3
         8         7        10        12     9      180.000000        0.013452         4
         8         7        10        34     9        0.000000        0.226284         1
         8         7        10        34     9      180.000000        0.087396         2
         8         7        10        34     9        0.000000       -0.197891         3
         8         7        10        34     9      180.000000        0.040435         4
         8         7        10        35     9        0.000000        0.226284         1
         8         7        10        35     9      180.000000        0.087396         2
         8         7        10        35     9        0.000000       -0.197891         3
         8         7        10        35     9      180.000000        0.040435         4
         9         5         3        31     9        0.000000       -0.018016         1
         9         5         3        31     9      180.000000        9.529274         2
         9         5         3        31     9        0.000000       -0.038683         3
         9         5         3        31     9      180.000000        0.001384         4
         9         8         7        10     9        0.000000        0.563823         1
         9         8         7        10     9      180.000000       32.275985         2
         9         8         7        10     9        0.000000        0.790079         3
         9         8         7        10     9      180.000000       -0.842806         4
        10        12        13        14     9        0.000000        0.026860         1
        10        12        13        14     9      180.000000       15.135600         2
        10        12        13        14     9        0.000000       -0.170192         3
        10        12        13        14     9      180.000000       -0.215560         4
        10        12        13        37     9        0.000000       -0.086046         1
        10        12        13        37     9      180.000000       12.621826         2
        10        12        13        37     9        0.000000       -0.312532         3
        10        12        13        37     9      180.000000        0.160165         4
        10        12        17        16     9        0.000000        0.026860         1
        10        12        17        16     9      180.000000       15.135600         2
        10        12        17        16     9        0.000000       -0.170192         3
        10        12        17        16     9      180.000000       -0.215560         4
        10        12        17        40     9        0.000000       -0.086046         1
        10        12        17        40     9      180.000000       12.621826         2
        10        12        17        40     9        0.000000       -0.312532         3
        10        12        17        40     9      180.000000        0.160165         4
        11         1         2        30     9        0.000000       -0.102922         1
        11         1         2        30     9      180.000000       14.614821         2
        11         1         2        30     9        0.000000       -0.060122         3
        11         1         2        30     9      180.000000        0.218746         4
        11         1         4        32     9        0.000000       -0.212017         1
        11         1         4        32     9      180.000000       13.721566         2
        11         1         4        32     9        0.000000       -0.121702         3
        11         1         4        32     9      180.000000        0.193683         4
        11        24        25        26     9        0.000000        2.076119         1
        11        24        25        26     9      180.000000        0.203731         2
        11        24        25        26     9        0.000000        0.136643         3
        11        24        25        26     9      180.000000       -0.140118         4
        11        24        25        48     9        0.000000       -0.086143         1
        11        24        25        48     9      180.000000        0.043327         2
        11        24        25        48     9        0.000000        0.630872         3
        11        24        25        48     9      180.000000        0.090935         4
        11        24        25        49     9        0.000000       -0.086143         1
        11        24        25        49     9      180.000000        0.043327         2
        11        24        25        49     9        0.000000        0.630872         3
        11        24        25        49     9      180.000000        0.090935         4
        12        13        14        15     9        0.000000       -0.033501         1
        12        13        14        15     9      180.000000       18.361802         2
        12        13        14        15     9        0.000000       -1.382122         3
        12        13        14        15     9      180.000000       -0.333748         4
        12        13        14        38     9        0.000000        0.009019         1
        12        13        14        38     9      180.000000       15.117729         2
        12        13        14        38     9        0.000000       -0.652997         3
        12        13        14        38     9      180.000000        0.089352         4
        12        17        16        15     9        0.000000       -0.033501         1
        12        17        16        15     9      180.000000       18.361802         2
        12        17        16        15     9        0.000000       -1.382122         3
        12        17        16        15     9      180.000000       -0.333748         4
        12        17        16        39     9        0.000000        0.009019         1
        12        17        16        39     9      180.000000       15.117729         2
        12        17        16        39     9        0.000000       -0.652997         3
        12        17        16        39     9      180.000000        0.089352         4
        13        12        10        34     9        0.000000        0.026652         1
        13        12        10        34     9      180.000000        0.014947         2
        13        12        10        34     9        0.000000        0.013547         3
        13        12        10        34     9      180.000000        0.009027         4
        13        12        10        35     9        0.000000        0.026652         1
        13        12        10        35     9      180.000000        0.014947         2
        13        12        10        35     9        0.000000        0.013547         3
        13        12        10        35     9      180.000000        0.009027         4
        13        12        17        16     9        0.000000       -0.017692         1
        13        12        17        16     9      180.000000       18.652768         2
        13        12        17        16     9        0.000000       -1.225804         3
        13        12        17        16     9      180.000000       -0.466466         4
        13        12        17        40     9        0.000000        0.019722         1
        13        12        17        40     9      180.000000       14.478141         2
        13        12        17        40     9        0.000000       -0.483578         3
        13        12        17        40     9      180.000000        0.000311         4
        13        14        15        16     9        0.000000       -0.080966         1
        13        14        15        16     9      180.000000       18.153112         2
        13        14        15        16     9        0.000000       -1.373641         3
        13        14        15        16     9      180.000000       -0.356348         4
        13        14        15        18     9        0.000000        0.345560         1
        13        14        15        18     9      180.000000       16.650203         2
        13        14        15        18     9        0.000000       -0.115710         3
        13        14        15        18     9      180.000000       -0.388262         4
        14        13        12        17     9        0.000000       -0.017692         1
        14        13        12        17     9      180.000000       18.652768         2
        14        13        12        17     9        0.000000       -1.225804         3
        14        13        12        17     9      180.000000       -0.466466         4
        14        15        16        17     9        0.000000       -0.080966         1
        14        15        16        17     9      180.000000       18.153112         2
        14        15        16        17     9        0.000000       -1.373641         3
        14        15        16        17     9      180.000000       -0.356348         4
        14        15        16        39     9        0.000000       -0.122536         1
        14        15        16        39     9      180.000000       13.854592         2
        14        15        16        39     9        0.000000       -0.550856         3
        14        15        16        39     9      180.000000        0.073352         4
        14        15        18        19     9        0.000000        0.226385         1
        14        15        18        19     9      180.000000        2.444068         2
        14        15        18        19     9        0.000000        0.075300         3
        14        15        18        19     9      180.000000       -0.310311         4
        14        15        18        22     9        0.000000       -0.000289         1
        14        15        18        22     9      180.000000        2.079647         2
        14        15        18        22     9        0.000000       -0.058954         3
        14        15        18        22     9      180.000000       -0.243068         4
        15        14        13        37     9        0.000000       -0.019661         1
        15        14        13        37     9      180.000000       14.564297         2
        15        14        13        37     9        0.000000       -0.438149         3
        15        14        13        37     9      180.000000        0.148899         4
        15        16        17        40     9        0.000000       -0.019661         1
        15        16        17        40     9      180.000000       14.564297         2
        15        16        17        40     9        0.000000       -0.438149         3
        15        16        17        40     9      180.000000        0.148899         4
        15        18        19        20     9        0.000000        0.183654         1
        15        18        19        20     9      180.000000       16.330189         2
        15        18        19        20     9        0.000000       -0.168639         3
        15        18        19        20     9      180.000000       -0.945094         4
        15        18        19        41     9        0.000000       -0.192731         1
        15        18        19        41     9      180.000000       10.764578         2
        15        18        19        41     9        0.000000       -0.137823         3
        15        18        19        41     9      180.000000       -0.003216         4
        15        18        22        21     9        0.000000        0.388880         1
        15        18        22        21     9      180.000000       15.245298         2
        15        18        22        21     9        0.000000       -0.357893         3
        15        18        22        21     9      180.000000       -0.981862         4
        15        18        22        42     9        0.000000       -0.157977         1
        15        18        22        42     9      180.000000       10.350387         2
        15        18        22        42     9        0.000000       -0.025513         3
        15        18        22        42     9      180.000000        0.047765         4
        16        15        14        38     9        0.000000       -0.122536         1
        16        15        14        38     9      180.000000       13.854592         2
        16        15        14        38     9        0.000000       -0.550856         3
        16        15        14        38     9      180.000000        0.073352         4
        16        15        18        19     9        0.000000        0.226385         1
        16        15        18        19     9      180.000000        2.444068         2
        16        15        18        19     9        0.000000        0.075300         3
        16        15        18        19     9      180.000000       -0.310311         4
        16        15        18        22     9        0.000000       -0.000289         1
        16        15        18        22     9      180.000000        2.079647         2
        16        15        18        22     9        0.000000       -0.058954         3
        16        15        18        22     9      180.000000       -0.243068         4
        17        12        10        34     9        0.000000        0.026652         1
        17        12        10        34     9      180.000000        0.014947         2
        17        12        10        34     9        0.000000        0.013547         3
        17        12        10        34     9      180.000000        0.009027         4
        17        12        10        35     9        0.000000        0.026652         1
        17        12        10        35     9      180.000000        0.014947         2
        17        12        10        35     9        0.000000        0.013547         3
        17        12        10        35     9      180.000000        0.009027         4
        17        12        13        37     9        0.000000        0.019722         1
        17        12        13        37     9      180.000000       14.478141         2
        17        12        13        37     9        0.000000       -0.483578         3
        17        12        13        37     9      180.000000        0.000311         4
        17        16        15        18     9        0.000000        0.345560         1
        17        16        15        18     9      180.000000       16.650203         2
        17        16        15        18     9        0.000000       -0.115710         3
        17        16        15        18     9      180.000000       -0.388262         4
        18        15        14        38     9        0.000000        0.146898         1
        18        15        14        38     9      180.000000       13.479037         2
        18        15        14        38     9        0.000000       -0.087547         3
        18        15        14        38     9      180.000000        0.132717         4
        18        15        16        39     9        0.000000        0.146898         1
        18        15        16        39     9      180.000000       13.479037         2
        18        15        16        39     9        0.000000       -0.087547         3
        18        15        16        39     9      180.000000        0.132717         4
        18        19        20        21     9        0.000000       -0.009121         1
        18        19        20        21     9      180.000000       30.745141         2
        18        19        20        21     9        0.000000       -6.250990         3
        18        19        20        21     9      180.000000       -0.578339         4
        18        19        20        23     9        0.000000        0.805845         1
        18        19        20        23     9      180.000000        7.183529         2
        18        19        20        23     9        0.000000        0.904760         3
        18        19        20        23     9      180.000000       -0.006099         4
        18        22        21        20     9        0.000000       -0.003186         1
        18        22        21        20     9      180.000000       40.723745         2
        18        22        21        20     9        0.000000       -5.801977         3
        18        22        21        20     9      180.000000       -0.138216         4
        19        18        22        21     9        0.000000       -0.184323         1
        19        18        22        21     9      180.000000       30.518446         2
        19        18        22        21     9        0.000000       -8.302201         3
        19        18        22        21     9      180.000000        0.056566         4
        19        18        22        42     9        0.000000        0.182830         1
        19        18        22        42     9      180.000000       14.435368         2
        19        18        22        42     9        0.000000       -0.577632         3
        19        18        22        42     9      180.000000       -0.486645         4
        19        20        21        22     9        0.000000       -0.276705         1
        19        20        21        22     9      180.000000       27.814030         2
        19        20        21        22     9        0.000000       -4.425871         3
        19        20        21        22     9      180.000000        0.073279         4
        19        20        23        43     9        0.000000       -0.025034         1
        19        20        23        43     9      180.000000       -0.009391         2
        19        20        23        43     9        0.000000        0.181958         3
        19        20        23        43     9      180.000000        0.012892         4
        19        20        23        44     9        0.000000       -0.025034         1
        19        20        23        44     9      180.000000       -0.009391         2
        19        20        23        44     9        0.000000        0.181958         3
        19        20        23        44     9      180.000000        0.012892         4
        19        20        23        45     9        0.000000       -0.025034         1
        19        20        23        45     9      180.000000       -0.009391         2
        19        20        23        45     9        0.000000        0.181958         3
        19        20        23        45     9      180.000000        0.012892         4
        20        19        18        22     9        0.000000       -0.206975         1
        20        19        18        22     9      180.000000       30.618729         2
        20        19        18        22     9        0.000000       -8.507334         3
        20        19        18        22     9      180.000000       -0.023863         4
        20        21        22        42     9        0.000000        1.030702         1
        20        21        22        42     9      180.000000       28.071183         2
        20        21        22        42     9        0.000000       -0.182231         3
        20        21        22        42     9      180.000000       -0.061982         4
        21        20        19        41     9        0.000000        1.067261         1
        21        20        19        41     9      180.000000       12.367244         2
        21        20        19        41     9        0.000000        0.213521         3
        21        20        19        41     9      180.000000       -0.400032         4
        21        20        23        43     9        0.000000       -0.002235         1
        21        20        23        43     9      180.000000        0.002811         2
        21        20        23        43     9        0.000000        0.198678         3
        21        20        23        43     9      180.000000        0.004453         4
        21        20        23        44     9        0.000000       -0.002235         1
        21        20        23        44     9      180.000000        0.002811         2
        21        20        23        44     9        0.000000        0.198678         3
        21        20        23        44     9      180.000000        0.004453         4
        21        20        23        45     9        0.000000       -0.002235         1
        21        20        23        45     9      180.000000        0.002811         2
        21        20        23        45     9        0.000000        0.198678         3
        21        20        23        45     9      180.000000        0.004453         4
        22        18        19        41     9        0.000000        0.010232         1
        22        18        19        41     9      180.000000       13.254580         2
        22        18        19        41     9        0.000000       -0.641023         3
        22        18        19        41     9      180.000000       -0.261573         4
        22        21        20        23     9        0.000000        0.586693         1
        22        21        20        23     9      180.000000       10.298364         2
        22        21        20        23     9        0.000000        0.792012         3
        22        21        20        23     9      180.000000       -0.113382         4
        23        20        19        41     9        0.000000       -0.493730         1
        23        20        19        41     9      180.000000        3.995450         2
        23        20        19        41     9        0.000000        0.087170         3
        23        20        19        41     9      180.000000        0.043642         4
        24        25        26        27     9        0.000000        0.587121         1
        24        25        26        27     9      180.000000       -0.532959         2
        24        25        26        27     9        0.000000        0.074614         3
        24        25        26        27     9      180.000000        0.101917         4
        24        25        26        50     9        0.000000       -0.466294         1
        24        25        26        50     9      180.000000       -2.314794         2
        24        25        26        50     9        0.000000        0.620635         3
        24        25        26        50     9      180.000000       -0.237343         4
        25        24        11        36     9        0.000000        0.947060         1
        25        24        11        36     9      180.000000       -1.793655         2
        25        24        11        36     9        0.000000       -0.018201         3
        25        24        11        36     9      180.000000       -0.114182         4
        25        26        27        28     9        0.000000        0.462279         1
        25        26        27        28     9      180.000000        8.952517         2
        25        26        27        28     9        0.000000        0.916820         3
        25        26        27        28     9      180.000000       -1.903775         4
        25        26        27        29     9        0.000000        2.922882         1
        25        26        27        29     9      180.000000       11.093627         2
        25        26        27        29     9        0.000000        2.557160         3
        25        26        27        29     9      180.000000        0.726479         4
        26        25        24        46     9        0.000000        0.092302         1
        26        25        24        46     9      180.000000        0.111263         2
        26        25        24        46     9        0.000000        0.678679         3
        26        25        24        46     9      180.000000        0.041038         4
        26        25        24        47     9        0.000000        0.092302         1
        26        25        24        47     9      180.000000        0.111263         2
        26        25        24        47     9        0.000000        0.678679         3
        26        25        24        47     9      180.000000        0.041038         4
        26        27        29        51     9        0.000000       -0.009057         1
        26        27        29        51     9      180.000000        0.036778         2
        26        27        29        51     9        0.000000       -0.542162         3
        26        27        29        51     9      180.000000        0.200744         4
        26        27        29        52     9        0.000000       -0.009057         1
        26        27        29        52     9      180.000000        0.036778         2
        26        27        29        52     9        0.000000       -0.542162         3
        26        27        29        52     9      180.000000        0.200744         4
        26        27        29        53     9        0.000000       -0.009057         1
        26        27        29        53     9      180.000000        0.036778         2
        26        27        29        53     9        0.000000       -0.542162         3
        26        27        29        53     9      180.000000        0.200744         4
        27        26        25        48     9        0.000000       -0.085743         1
        27        26        25        48     9      180.000000        0.079201         2
        27        26        25        48     9        0.000000        0.062160         3
        27        26        25        48     9      180.000000        0.061385         4
        27        26        25        49     9        0.000000       -0.085743         1
        27        26        25        49     9      180.000000        0.079201         2
        27        26        25        49     9        0.000000        0.062160         3
        27        26        25        49     9      180.000000        0.061385         4
        28        27        26        50     9        0.000000        0.577824         1
        28        27        26        50     9      180.000000       11.488931         2
        28        27        26        50     9        0.000000       -0.291811         3
        28        27        26        50     9      180.000000        0.833833         4
        28        27        29        51     9        0.000000        0.016275         1
        28        27        29        51     9      180.000000        0.104831         2
        28        27        29        51     9        0.000000       -0.530597         3
        28        27        29        51     9      180.000000        0.128735         4
        28        27        29        52     9        0.000000        0.016275         1
        28        27        29        52     9      180.000000        0.104831         2
        28        27        29        52     9        0.000000       -0.530597         3
        28        27        29        52     9      180.000000        0.128735         4
        28        27        29        53     9        0.000000        0.016275         1
        28        27        29        53     9      180.000000        0.104831         2
        28        27        29        53     9        0.000000       -0.530597         3
        28        27        29        53     9      180.000000        0.128735         4
        29        27        26        50     9        0.000000       -0.745940         1
        29        27        26        50     9      180.000000       10.190937         2
        29        27        26        50     9        0.000000        0.094251         3
        29        27        26        50     9      180.000000        0.987524         4
        31         3         4        32     9        0.000000       -0.087148         1
        31         3         4        32     9      180.000000       12.565082         2
        31         3         4        32     9        0.000000       -0.569782         3
        31         3         4        32     9      180.000000        0.245411         4
        36        11        24        46     9        0.000000       -0.004398         1
        36        11        24        46     9      180.000000        0.290831         2
        36        11        24        46     9        0.000000        0.061900         3
        36        11        24        46     9      180.000000       -0.098256         4
        36        11        24        47     9        0.000000       -0.004398         1
        36        11        24        47     9      180.000000        0.290831         2
        36        11        24        47     9        0.000000        0.061900         3
        36        11        24        47     9      180.000000       -0.098256         4
        37        13        14        38     9        0.000000       -0.173270         1
        37        13        14        38     9      180.000000       12.433057         2
        37        13        14        38     9        0.000000       -0.660707         3
        37        13        14        38     9      180.000000        0.303153         4
        39        16        17        40     9        0.000000       -0.173270         1
        39        16        17        40     9      180.000000       12.433057         2
        39        16        17        40     9        0.000000       -0.660707         3
        39        16        17        40     9      180.000000        0.303153         4
        46        24        25        48     9        0.000000       -0.048278         1
        46        24        25        48     9      180.000000        0.037455         2
        46        24        25        48     9        0.000000        0.693432         3
        46        24        25        48     9      180.000000       -0.040350         4
        46        24        25        49     9        0.000000       -0.048278         1
        46        24        25        49     9      180.000000        0.037455         2
        46        24        25        49     9        0.000000        0.693432         3
        46        24        25        49     9      180.000000       -0.040350         4
        47        24        25        48     9        0.000000       -0.048278         1
        47        24        25        48     9      180.000000        0.037455         2
        47        24        25        48     9        0.000000        0.693432         3
        47        24        25        48     9      180.000000       -0.040350         4
        47        24        25        49     9        0.000000       -0.048278         1
        47        24        25        49     9      180.000000        0.037455         2
        47        24        25        49     9        0.000000        0.693432         3
        47        24        25        49     9      180.000000       -0.040350         4
        48        25        26        50     9        0.000000        0.028755         1
        48        25        26        50     9      180.000000        0.141866         2
        48        25        26        50     9        0.000000        0.647170         3
        48        25        26        50     9      180.000000        0.204388         4
        49        25        26        50     9        0.000000        0.028755         1
        49        25        26        50     9      180.000000        0.141866         2
        49        25        26        50     9        0.000000        0.647170         3
        49        25        26        50     9      180.000000        0.204388         4

[ dihedrals ] ; impropers
;       ai        aj        ak        al funct           phase               k        pn
        13        12        14        37     4      180.000000        1.374161         2
        13        14        37        12     4      180.000000        1.374161         2
        13        37        12        14     4      180.000000        1.374161         2
        17        12        16        40     4      180.000000        1.374161         2
        17        16        40        12     4      180.000000        1.374161         2
        17        40        12        16     4      180.000000        1.374161         2
        27        26        28        29     4      180.000000       27.893333         2
        27        28        29        26     4      180.000000       27.893333         2
        27        29        26        28     4      180.000000       27.893333         2

[ pairs ]
;       ai        aj funct
         1         5     1
         1         7     1
         1        25     1
         1        31     1
         1        46     1
         1        47     1
         2         3     1
         2         8     1
         2         9     1
         2        10     1
         2        24     1
         2        32     1
         2        36     1
         3         7     1
         3         8     1
         3        11     1
         3        33     1
         4         6     1
         4         9     1
         4        24     1
         4        30     1
         4        36     1
         5        10     1
         5        30     1
         5        32     1
         6        11     1
         6        12     1
         6        31     1
         6        33     1
         6        34     1
         6        35     1
         7        13     1
         7        17     1
         7        30     1
         7        33     1
         8        12     1
         8        34     1
         8        35     1
         9        10     1
         9        31     1
        10        14     1
        10        16     1
        10        37     1
        10        40     1
        11        26     1
        11        30     1
        11        32     1
        11        48     1
        11        49     1
        12        15     1
        12        38     1
        12        39     1
        13        16     1
        13        18     1
        13        34     1
        13        35     1
        13        40     1
        14        17     1
        14        19     1
        14        22     1
        14        39     1
        15        20     1
        15        21     1
        15        37     1
        15        40     1
        15        41     1
        15        42     1
        16        19     1
        16        22     1
        16        38     1
        17        18     1
        17        34     1
        17        35     1
        17        37     1
        18        23     1
        18        38     1
        18        39     1
        19        42     1
        19        43     1
        19        44     1
        19        45     1
        20        42     1
        21        41     1
        21        43     1
        21        44     1
        21        45     1
        22        23     1
        22        41     1
        23        41     1
        24        27     1
        24        50     1
        25        28     1
        25        29     1
        25        36     1
        26        46     1
        26        47     1
        26        51     1
        26        52     1
        26        53     1
        27        48     1
        27        49     1
        28        50     1
        28        51     1
        28        52     1
        28        53     1
        29        50     1
        31        32     1
        36        46     1
        36        47     1
        37        38     1
        39        40     1
        46        48     1
        46        49     1
        47        48     1
        47        49     1
        48        50     1
        49        50     1
