; ITP file created by ByteFF-ML, 2026-02-21 07:34:54.845224

[ atomtypes ]
;name           bonded.type        at.num        mass        charge   ptype           sigma         epsilon
 c0bf                                   6      0.0000       0.00000       A     3.31376e-01     4.10935e-01
 c1bf                                   6      0.0000       0.00000       A     3.31340e-01     4.13937e-01
 c2bf                                   6      0.0000       0.00000       A     3.31422e-01     4.13878e-01
 c3bf                                   6      0.0000       0.00000       A     3.31519e-01     4.13249e-01
 c4bf                                   6      0.0000       0.00000       A     3.31542e-01     4.12273e-01
 c5bf                                   6      0.0000       0.00000       A     3.31573e-01     4.12632e-01
 c6bf                                   6      0.0000       0.00000       A     3.31439e-01     4.11977e-01
 n7bf                                   7      0.0000       0.00000       A     3.38151e-01     3.91342e-01
 n8bf                                   7      0.0000       0.00000       A     3.20440e-01     8.58154e-01
 c9bf                                   6      0.0000       0.00000       A     3.39892e-01     4.51463e-01
 s10bf                                 16      0.0000       0.00000       A     4.06411e-01     2.55042e-01
 c11bf                                  6      0.0000       0.00000       A     3.31526e-01     4.13182e-01
 c12bf                                  6      0.0000       0.00000       A     3.31408e-01     4.13210e-01
 c13bf                                  6      0.0000       0.00000       A     3.31502e-01     4.12536e-01
 c14bf                                  6      0.0000       0.00000       A     3.31322e-01     4.13227e-01
 c15bf                                  6      0.0000       0.00000       A     3.31502e-01     4.12536e-01
 c16bf                                  6      0.0000       0.00000       A     3.31408e-01     4.13210e-01
 c17bf                                  6      0.0000       0.00000       A     3.31350e-01     4.11687e-01
 c18bf                                  6      0.0000       0.00000       A     3.31475e-01     4.11821e-01
 n19bf                                  7      0.0000       0.00000       A     3.20558e-01     8.54076e-01
 n20bf                                  7      0.0000       0.00000       A     3.38391e-01     3.93249e-01
 c21bf                                  6      0.0000       0.00000       A     3.31594e-01     4.13789e-01
 c22bf                                  6      0.0000       0.00000       A     3.39839e-01     4.51932e-01
 o23bf                                  8      0.0000       0.00000       A     3.04935e-01     6.10892e-01
 o24bf                                  8      0.0000       0.00000       A     3.04935e-01     6.10892e-01
 n25bf                                  7      0.0000       0.00000       A     3.49356e-01     2.35072e-01
 c26bf                                  6      0.0000       0.00000       A     3.39972e-01     4.49769e-01
 c27bf                                  6      0.0000       0.00000       A     3.39744e-01     4.49823e-01
 c28bf                                  6      0.0000       0.00000       A     3.39744e-01     4.49823e-01
 h29bf                                  1      0.0000       0.00000       A     2.62463e-01     6.76574e-02
 h30bf                                  1      0.0000       0.00000       A     2.62433e-01     6.68785e-02
 h31bf                                  1      0.0000       0.00000       A     2.62618e-01     6.75856e-02
 h32bf                                  1      0.0000       0.00000       A     1.10602e-01     4.12983e-02
 h33bf                                  1      0.0000       0.00000       A     2.60090e-01     8.80823e-02
 h34bf                                  1      0.0000       0.00000       A     2.60090e-01     8.80823e-02
 h35bf                                  1      0.0000       0.00000       A     2.62498e-01     6.75473e-02
 h36bf                                  1      0.0000       0.00000       A     2.62482e-01     6.74643e-02
 h37bf                                  1      0.0000       0.00000       A     2.62482e-01     6.74643e-02
 h38bf                                  1      0.0000       0.00000       A     2.62498e-01     6.75473e-02
 h39bf                                  1      0.0000       0.00000       A     2.53807e-01     6.74898e-02
 h40bf                                  1      0.0000       0.00000       A     2.53933e-01     6.69200e-02
 h41bf                                  1      0.0000       0.00000       A     2.41990e-01     8.77359e-02
 h42bf                                  1      0.0000       0.00000       A     2.41990e-01     8.77359e-02
 h43bf                                  1      0.0000       0.00000       A     2.41990e-01     8.77359e-02
 h44bf                                  1      0.0000       0.00000       A     1.10244e-01     4.20101e-02
 h45bf                                  1      0.0000       0.00000       A     2.41973e-01     8.53434e-02
 h46bf                                  1      0.0000       0.00000       A     2.59958e-01     8.67496e-02
 h47bf                                  1      0.0000       0.00000       A     2.59958e-01     8.67496e-02
 h48bf                                  1      0.0000       0.00000       A     2.59958e-01     8.67496e-02
 h49bf                                  1      0.0000       0.00000       A     2.59958e-01     8.67496e-02

[ moleculetype ]
;name             nrexcl
 29                    3

[ atoms ]
;       nr            type      resi   res      atom      cgnr      charge          mass ; qtot
         1            c0bf         1   UNL        c0         1    -0.30924       12.0110 ; qtot   -0.309
         2            c1bf         1   UNL        c1         2     0.08559       12.0110 ; qtot   -0.224
         3            c2bf         1   UNL        c2         3    -0.14826       12.0110 ; qtot   -0.372
         4            c3bf         1   UNL        c3         4     0.01001       12.0110 ; qtot   -0.362
         5            c4bf         1   UNL        c4         5     0.00866       12.0110 ; qtot   -0.353
         6            c5bf         1   UNL        c5         6    -0.23732       12.0110 ; qtot   -0.591
         7            c6bf         1   UNL        c6         7     0.35845       12.0110 ; qtot   -0.232
         8            n7bf         1   UNL        n7         8    -0.50357       14.0070 ; qtot   -0.736
         9            n8bf         1   UNL        n8         9    -0.07945       14.0070 ; qtot   -0.815
        10            c9bf         1   UNL        c9        10    -0.03988       12.0110 ; qtot   -0.855
        11           s10bf         1   UNL       s10        11     1.08278       32.0670 ; qtot    0.228
        12           c11bf         1   UNL       c11        12    -0.08002       12.0110 ; qtot    0.148
        13           c12bf         1   UNL       c12        13    -0.10203       12.0110 ; qtot    0.046
        14           c13bf         1   UNL       c13        14    -0.11007       12.0110 ; qtot   -0.064
        15           c14bf         1   UNL       c14        15     0.00438       12.0110 ; qtot   -0.060
        16           c15bf         1   UNL       c15        16    -0.11007       12.0110 ; qtot   -0.170
        17           c16bf         1   UNL       c16        17    -0.10203       12.0110 ; qtot   -0.272
        18           c17bf         1   UNL       c17        18    -0.16403       12.0110 ; qtot   -0.436
        19           c18bf         1   UNL       c18        19    -0.14400       12.0110 ; qtot   -0.580
        20           n19bf         1   UNL       n19        20     0.11171       14.0070 ; qtot   -0.468
        21           n20bf         1   UNL       n20        21    -0.52174       14.0070 ; qtot   -0.990
        22           c21bf         1   UNL       c21        22     0.25349       12.0110 ; qtot   -0.737
        23           c22bf         1   UNL       c22        23     0.07027       12.0110 ; qtot   -0.666
        24           o23bf         1   UNL       o23        24    -0.52352       15.9990 ; qtot   -1.190
        25           o24bf         1   UNL       o24        25    -0.52352       15.9990 ; qtot   -1.713
        26           n25bf         1   UNL       n25        26    -0.80877       14.0070 ; qtot   -2.522
        27           c26bf         1   UNL       c26        27     0.10833       12.0110 ; qtot   -2.414
        28           c27bf         1   UNL       c27        28    -0.12508       12.0110 ; qtot   -2.539
        29           c28bf         1   UNL       c28        29    -0.12508       12.0110 ; qtot   -2.664
        30           h29bf         1   UNL       h29        30     0.14797        1.0080 ; qtot   -2.516
        31           h30bf         1   UNL       h30        31     0.13563        1.0080 ; qtot   -2.380
        32           h31bf         1   UNL       h31        32     0.14238        1.0080 ; qtot   -2.238
        33           h32bf         1   UNL       h32        33     0.37621        1.0080 ; qtot   -1.862
        34           h33bf         1   UNL       h33        34     0.06255        1.0080 ; qtot   -1.799
        35           h34bf         1   UNL       h34        35     0.06255        1.0080 ; qtot   -1.737
        36           h35bf         1   UNL       h35        36     0.11797        1.0080 ; qtot   -1.619
        37           h36bf         1   UNL       h36        37     0.11784        1.0080 ; qtot   -1.501
        38           h37bf         1   UNL       h37        38     0.11784        1.0080 ; qtot   -1.383
        39           h38bf         1   UNL       h38        39     0.11797        1.0080 ; qtot   -1.265
        40           h39bf         1   UNL       h39        40     0.15375        1.0080 ; qtot   -1.111
        41           h40bf         1   UNL       h40        41     0.03800        1.0080 ; qtot   -1.073
        42           h41bf         1   UNL       h41        42     0.05817        1.0080 ; qtot   -1.015
        43           h42bf         1   UNL       h42        43     0.05817        1.0080 ; qtot   -0.957
        44           h43bf         1   UNL       h43        44     0.05817        1.0080 ; qtot   -0.899
        45           h44bf         1   UNL       h44        45     0.47475        1.0080 ; qtot   -0.424
        46           h45bf         1   UNL       h45        46     0.09266        1.0080 ; qtot   -0.331
        47           h46bf         1   UNL       h46        47     0.08286        1.0080 ; qtot   -0.249
        48           h47bf         1   UNL       h47        48     0.08286        1.0080 ; qtot   -0.166
        49           h48bf         1   UNL       h48        49     0.08286        1.0080 ; qtot   -0.083
        50           h49bf         1   UNL       h49        50     0.08285        1.0080 ; qtot   -0.000

[ bonds ]
;       ai        aj funct               r               k
         1         2     1        0.138829   321589.022656
         1         4     1        0.141569   267979.964893
         1        11     1        0.178941   136443.204858
         2         6     1        0.140364   305318.589697
         2        30     1        0.108476   324515.217871
         3         4     1        0.138574   342603.126904
         3         5     1        0.140689   298533.635107
         3        31     1        0.108525   322948.209766
         4        32     1        0.108450   325813.320215
         5         6     1        0.141937   250434.617285
         5         9     1        0.136840   290507.015186
         6         7     1        0.143814   232121.905078
         7         8     1        0.132647   371179.560889
         7        10     1        0.150267   213715.305688
         8         9     1        0.136401   241851.313916
         9        33     1        0.100927   434980.632227
        10        12     1        0.151889   191838.442969
        10        34     1        0.109486   294999.682227
        10        35     1        0.109486   294999.682227
        11        24     1        0.146675   516531.296973
        11        25     1        0.146675   516531.296973
        11        26     1        0.169632   145284.637329
        12        13     1        0.140132   290757.355469
        12        17     1        0.140132   290757.355469
        13        14     1        0.139531   320296.512939
        13        36     1        0.108704   315886.049854
        14        15     1        0.140685   283825.179443
        14        37     1        0.108584   318696.127832
        15        16     1        0.140685   283825.179443
        15        18     1        0.146859   235591.683203
        16        17     1        0.139531   320296.512939
        16        38     1        0.108584   318696.102295
        17        39     1        0.108704   315886.075391
        18        19     1        0.139499   320805.390918
        18        22     1        0.142378   259368.136572
        19        20     1        0.135856   314480.283057
        19        40     1        0.108071   337590.039111
        20        21     1        0.135354   242037.913574
        20        23     1        0.145314   224810.528516
        21        22     1        0.133400   358572.221973
        22        41     1        0.108233   332445.307520
        23        42     1        0.109196   305692.172070
        23        43     1        0.109196   305692.172070
        23        44     1        0.109196   305692.172070
        26        27     1        0.144866   215247.034277
        26        45     1        0.101884   400514.063965
        27        28     1        0.151184   196297.796851
        27        29     1        0.151184   196297.796851
        27        46     1        0.108748   313983.611816
        28        29     1        0.151299   199717.432861
        28        47     1        0.108467   324318.607666
        28        48     1        0.108467   324318.607666
        29        49     1        0.108467   324318.607666
        29        50     1        0.108467   324318.607666

[ angles ]
;       ai        aj        ak funct           theta             cth
         1         2         6     1      117.308945      640.981190
         1         2        30     1      120.530884      340.441653
         1         4         3     1      120.497108      610.471942
         1         4        32     1      119.224243      358.268311
         1        11        24     1      108.401024      625.850389
         1        11        25     1      108.401024      625.850389
         1        11        26     1      102.630920      593.031309
         2         1         4     1      122.701096      646.844957
         2         1        11     1      118.827637      479.524604
         2         6         5     1      119.959862      754.829326
         2         6         7     1      135.275574      453.356057
         3         4        32     1      120.674728      398.080537
         3         5         6     1      122.156639      634.925703
         3         5         9     1      132.226364      490.757963
         4         1        11     1      118.602684      530.900064
         4         3         5     1      117.274536      784.727408
         4         3        31     1      121.062462      424.180293
         5         3        31     1      121.943588      418.420749
         5         6         7     1      104.814720      483.818605
         5         9         8     1      112.329735      420.539914
         5         9        33     1      128.730499      380.839860
         6         2        30     1      122.004028      385.831088
         6         5         9     1      105.760803      167.360000
         6         7         8     1      110.649742      355.071799
         6         7        10     1      127.876610      443.434220
         7         8         9     1      106.523293      543.560374
         7        10        12     1      113.088585      519.599159
         7        10        34     1      108.495079      513.832369
         7        10        35     1      108.495079      513.832433
         8         7        10     1      121.667252      449.153670
         8         9        33     1      118.789017      482.596877
        10        12        13     1      120.885033      486.548234
        10        12        17     1      120.885033      486.548234
        11        26        27     1      117.220482      577.386956
        11        26        45     1      108.399475      611.855351
        12        10        34     1      109.614029      493.993834
        12        10        35     1      109.614029      493.993834
        12        13        14     1      120.959518      705.842064
        12        13        36     1      119.502907      394.245725
        12        17        16     1      120.959518      705.842064
        12        17        39     1      119.502907      394.245725
        13        12        17     1      118.250145      711.225989
        13        14        15     1      121.013084      708.028679
        13        14        37     1      119.370682      427.621195
        14        13        36     1      119.522682      426.792643
        14        15        16     1      117.633606      614.164480
        14        15        18     1      121.173790      498.107383
        15        14        37     1      119.674911      429.339523
        15        16        17     1      121.013084      708.028679
        15        16        38     1      119.674911      429.339523
        15        18        19     1      127.875488      501.485943
        15        18        22     1      128.618073      539.877859
        16        15        18     1      121.173790      498.107383
        16        17        39     1      119.522682      426.792643
        17        16        38     1      119.370682      427.621227
        18        19        20     1      107.253334      167.360000
        18        19        40     1      131.309311      330.526743
        18        22        21     1      111.985497      241.969059
        18        22        41     1      128.583298      361.836739
        19        18        22     1      103.527756      370.968905
        19        20        21     1      112.317947      213.505126
        19        20        23     1      128.036591      424.086540
        20        19        40     1      121.687912      464.045604
        20        21        22     1      104.970230      567.675768
        20        23        42     1      109.593666      496.372137
        20        23        43     1      109.593666      496.372137
        20        23        44     1      109.593666      496.372137
        21        20        23     1      119.401001      615.866145
        21        22        41     1      119.394226      391.030667
        24        11        25     1      121.245621      721.270117
        24        11        26     1      107.205612      673.581928
        25        11        26     1      107.205612      673.581928
        26        27        28     1      118.434158      468.677652
        26        27        29     1      118.434158      468.677652
        26        27        46     1      114.819351      352.831109
        27        26        45     1      114.868202      474.435249
        27        28        29     1       59.992126      167.360000
        27        28        47     1      117.252785      381.006841
        27        28        48     1      117.252785      381.006841
        27        29        28     1       59.992126      167.360000
        27        29        49     1      117.252785      381.006841
        27        29        50     1      117.252785      381.006873
        28        27        29     1       60.085266      167.360000
        28        27        46     1      117.202805      350.574778
        28        29        49     1      118.148361      372.297920
        28        29        50     1      118.148361      372.297920
        29        27        46     1      117.202805      350.574778
        29        28        47     1      118.148361      372.297920
        29        28        48     1      118.148361      372.297920
        34        10        35     1      106.967346      364.175843
        42        23        43     1      109.444870      349.033358
        42        23        44     1      109.444870      349.033358
        43        23        44     1      109.444870      349.033358
        47        28        48     1      115.123657      307.288995
        49        29        50     1      115.123657      307.288995

[ dihedrals ] ; propers for gromacs 4.5 or higher, use funct 9
;       ai        aj        ak        al funct           phase               k        pn
         1         2         6         5     9        0.000000       -0.046219         1
         1         2         6         5     9      180.000000       19.338910         2
         1         2         6         5     9        0.000000       -2.493116         3
         1         2         6         5     9      180.000000       -0.470142         4
         1         2         6         7     9        0.000000       -0.303777         1
         1         2         6         7     9      180.000000       13.054636         2
         1         2         6         7     9        0.000000       -0.593610         3
         1         2         6         7     9      180.000000       -0.178341         4
         1         4         3         5     9        0.000000       -0.263847         1
         1         4         3         5     9      180.000000       21.592787         2
         1         4         3         5     9        0.000000       -1.602129         3
         1         4         3         5     9      180.000000       -0.587154         4
         1         4         3        31     9        0.000000       -0.020542         1
         1         4         3        31     9      180.000000       15.108841         2
         1         4         3        31     9        0.000000       -0.416634         3
         1         4         3        31     9      180.000000        0.054406         4
         1        11        26        27     9        0.000000       -2.536654         1
         1        11        26        27     9      180.000000       -6.307098         2
         1        11        26        27     9        0.000000        2.934426         3
         1        11        26        27     9      180.000000        0.369693         4
         1        11        26        45     9        0.000000       -7.401566         1
         1        11        26        45     9      180.000000       -4.244936         2
         1        11        26        45     9        0.000000       -0.208271         3
         1        11        26        45     9      180.000000        0.183226         4
         2         1         4         3     9        0.000000        0.114588         1
         2         1         4         3     9      180.000000       17.038180         2
         2         1         4         3     9        0.000000       -1.337027         3
         2         1         4         3     9      180.000000       -0.403957         4
         2         1         4        32     9        0.000000        0.152016         1
         2         1         4        32     9      180.000000       13.017667         2
         2         1         4        32     9        0.000000       -0.569341         3
         2         1         4        32     9      180.000000        0.084179         4
         2         1        11        24     9        0.000000        0.084564         1
         2         1        11        24     9      180.000000        0.259418         2
         2         1        11        24     9        0.000000       -0.036220         3
         2         1        11        24     9      180.000000        0.015420         4
         2         1        11        25     9        0.000000        0.084564         1
         2         1        11        25     9      180.000000        0.259418         2
         2         1        11        25     9        0.000000       -0.036220         3
         2         1        11        25     9      180.000000        0.015420         4
         2         1        11        26     9        0.000000       -0.380343         1
         2         1        11        26     9      180.000000       -0.417979         2
         2         1        11        26     9        0.000000        0.070385         3
         2         1        11        26     9      180.000000       -0.007403         4
         2         6         5         3     9        0.000000       -0.117859         1
         2         6         5         3     9      180.000000       11.291905         2
         2         6         5         3     9        0.000000       -1.537133         3
         2         6         5         3     9      180.000000       -0.181507         4
         2         6         5         9     9        0.000000        0.165598         1
         2         6         5         9     9      180.000000        9.948844         2
         2         6         5         9     9        0.000000       -2.279469         3
         2         6         5         9     9      180.000000        0.084575         4
         2         6         7         8     9        0.000000        0.064827         1
         2         6         7         8     9      180.000000        4.562122         2
         2         6         7         8     9        0.000000       -0.918659         3
         2         6         7         8     9      180.000000        0.065633         4
         2         6         7        10     9        0.000000       -0.207306         1
         2         6         7        10     9      180.000000        4.770063         2
         2         6         7        10     9        0.000000        0.341486         3
         2         6         7        10     9      180.000000        0.082039         4
         3         4         1        11     9        0.000000       -0.088041         1
         3         4         1        11     9      180.000000       12.481077         2
         3         4         1        11     9        0.000000        0.198163         3
         3         4         1        11     9      180.000000       -0.317773         4
         3         5         6         7     9        0.000000       -0.003157         1
         3         5         6         7     9      180.000000       11.331120         2
         3         5         6         7     9        0.000000       -2.267429         3
         3         5         6         7     9      180.000000       -0.064082         4
         3         5         9         8     9        0.000000        1.475259         1
         3         5         9         8     9      180.000000        5.504159         2
         3         5         9         8     9        0.000000        0.501848         3
         3         5         9         8     9      180.000000       -0.026350         4
         3         5         9        33     9        0.000000       -0.169621         1
         3         5         9        33     9      180.000000        1.407670         2
         3         5         9        33     9        0.000000        0.120795         3
         3         5         9        33     9      180.000000       -0.133107         4
         4         1         2         6     9        0.000000       -0.060049         1
         4         1         2         6     9      180.000000       20.328110         2
         4         1         2         6     9        0.000000       -1.471140         3
         4         1         2         6     9      180.000000       -0.726120         4
         4         1         2        30     9        0.000000        0.061854         1
         4         1         2        30     9      180.000000       14.908528         2
         4         1         2        30     9        0.000000       -0.478377         3
         4         1         2        30     9      180.000000       -0.142632         4
         4         1        11        24     9        0.000000       -0.035761         1
         4         1        11        24     9      180.000000        0.323246         2
         4         1        11        24     9        0.000000        0.274540         3
         4         1        11        24     9      180.000000       -0.011894         4
         4         1        11        25     9        0.000000       -0.035761         1
         4         1        11        25     9      180.000000        0.323246         2
         4         1        11        25     9        0.000000        0.274540         3
         4         1        11        25     9      180.000000       -0.011894         4
         4         1        11        26     9        0.000000        0.087119         1
         4         1        11        26     9      180.000000       -0.499734         2
         4         1        11        26     9        0.000000        0.503680         3
         4         1        11        26     9      180.000000       -0.091283         4
         4         3         5         6     9        0.000000       -0.208150         1
         4         3         5         6     9      180.000000       17.039229         2
         4         3         5         6     9        0.000000       -1.941111         3
         4         3         5         6     9      180.000000       -0.329703         4
         4         3         5         9     9        0.000000        0.139887         1
         4         3         5         9     9      180.000000       13.626907         2
         4         3         5         9     9        0.000000       -0.237638         3
         4         3         5         9     9      180.000000       -0.188629         4
         5         3         4        32     9        0.000000        0.130108         1
         5         3         4        32     9      180.000000       16.061308         2
         5         3         4        32     9        0.000000       -0.536906         3
         5         3         4        32     9      180.000000       -0.003243         4
         5         6         2        30     9        0.000000        0.639961         1
         5         6         2        30     9      180.000000       13.756804         2
         5         6         2        30     9        0.000000       -0.017298         3
         5         6         2        30     9      180.000000       -0.289297         4
         5         6         7         8     9        0.000000       -0.149769         1
         5         6         7         8     9      180.000000       31.514942         2
         5         6         7         8     9        0.000000       -9.636450         3
         5         6         7         8     9      180.000000       -0.255070         4
         5         6         7        10     9        0.000000        0.961316         1
         5         6         7        10     9      180.000000       14.583854         2
         5         6         7        10     9        0.000000        0.094466         3
         5         6         7        10     9      180.000000       -0.586992         4
         5         9         8         7     9        0.000000       -0.187932         1
         5         9         8         7     9      180.000000       17.392671         2
         5         9         8         7     9        0.000000       -2.163050         3
         5         9         8         7     9      180.000000       -1.139709         4
         6         2         1        11     9        0.000000        0.003867         1
         6         2         1        11     9      180.000000       14.542715         2
         6         2         1        11     9        0.000000        0.265717         3
         6         2         1        11     9      180.000000       -0.591112         4
         6         5         3        31     9        0.000000        0.151077         1
         6         5         3        31     9      180.000000       11.362800         2
         6         5         3        31     9        0.000000       -0.371781         3
         6         5         3        31     9      180.000000        0.035576         4
         6         5         9         8     9        0.000000        0.391211         1
         6         5         9         8     9      180.000000       24.791506         2
         6         5         9         8     9        0.000000       -5.030299         3
         6         5         9         8     9      180.000000       -1.032774         4
         6         5         9        33     9        0.000000        0.439971         1
         6         5         9        33     9      180.000000        1.658683         2
         6         5         9        33     9        0.000000        0.525096         3
         6         5         9        33     9      180.000000       -0.022923         4
         6         7         8         9     9        0.000000       -0.205221         1
         6         7         8         9     9      180.000000       41.365181         2
         6         7         8         9     9        0.000000       -4.742292         3
         6         7         8         9     9      180.000000       -0.119979         4
         6         7        10        12     9        0.000000        0.318004         1
         6         7        10        12     9      180.000000       -0.312861         2
         6         7        10        12     9        0.000000        0.524715         3
         6         7        10        12     9      180.000000        0.029684         4
         6         7        10        34     9        0.000000       -0.098111         1
         6         7        10        34     9      180.000000        0.176946         2
         6         7        10        34     9        0.000000        0.504156         3
         6         7        10        34     9      180.000000        0.011251         4
         6         7        10        35     9        0.000000       -0.098111         1
         6         7        10        35     9      180.000000        0.176946         2
         6         7        10        35     9        0.000000        0.504156         3
         6         7        10        35     9      180.000000        0.011251         4
         7         6         2        30     9        0.000000        0.294806         1
         7         6         2        30     9      180.000000        8.750299         2
         7         6         2        30     9        0.000000        0.321849         3
         7         6         2        30     9      180.000000        0.015692         4
         7         6         5         9     9        0.000000        0.245032         1
         7         6         5         9     9      180.000000       17.721144         2
         7         6         5         9     9        0.000000       -6.442324         3
         7         6         5         9     9      180.000000       -0.316190         4
         7         8         9        33     9        0.000000        2.338009         1
         7         8         9        33     9      180.000000        3.006375         2
         7         8         9        33     9        0.000000        0.455189         3
         7         8         9        33     9      180.000000        0.021618         4
         7        10        12        13     9        0.000000       -0.155875         1
         7        10        12        13     9      180.000000        0.169044         2
         7        10        12        13     9        0.000000        0.111908         3
         7        10        12        13     9      180.000000        0.024465         4
         7        10        12        17     9        0.000000       -0.155875         1
         7        10        12        17     9      180.000000        0.169044         2
         7        10        12        17     9        0.000000        0.111908         3
         7        10        12        17     9      180.000000        0.024465         4
         8         7        10        12     9        0.000000       -0.881773         1
         8         7        10        12     9      180.000000       -0.200960         2
         8         7        10        12     9        0.000000        0.015257         3
         8         7        10        12     9      180.000000        0.012075         4
         8         7        10        34     9        0.000000        0.214892         1
         8         7        10        34     9      180.000000        0.095005         2
         8         7        10        34     9        0.000000       -0.206865         3
         8         7        10        34     9      180.000000        0.040540         4
         8         7        10        35     9        0.000000        0.214892         1
         8         7        10        35     9      180.000000        0.095005         2
         8         7        10        35     9        0.000000       -0.206865         3
         8         7        10        35     9      180.000000        0.040540         4
         9         5         3        31     9        0.000000       -0.073470         1
         9         5         3        31     9      180.000000        9.500462         2
         9         5         3        31     9        0.000000       -0.020738         3
         9         5         3        31     9      180.000000        0.035199         4
         9         8         7        10     9        0.000000        0.457583         1
         9         8         7        10     9      180.000000       32.334932         2
         9         8         7        10     9        0.000000        0.797901         3
         9         8         7        10     9      180.000000       -0.843802         4
        10        12        13        14     9        0.000000        0.026860         1
        10        12        13        14     9      180.000000       15.135600         2
        10        12        13        14     9        0.000000       -0.170192         3
        10        12        13        14     9      180.000000       -0.215560         4
        10        12        13        36     9        0.000000       -0.086046         1
        10        12        13        36     9      180.000000       12.621826         2
        10        12        13        36     9        0.000000       -0.312532         3
        10        12        13        36     9      180.000000        0.160165         4
        10        12        17        16     9        0.000000        0.026860         1
        10        12        17        16     9      180.000000       15.135600         2
        10        12        17        16     9        0.000000       -0.170192         3
        10        12        17        16     9      180.000000       -0.215560         4
        10        12        17        39     9        0.000000       -0.086046         1
        10        12        17        39     9      180.000000       12.621826         2
        10        12        17        39     9        0.000000       -0.312532         3
        10        12        17        39     9      180.000000        0.160165         4
        11         1         2        30     9        0.000000        0.431257         1
        11         1         2        30     9      180.000000       12.241140         2
        11         1         2        30     9        0.000000        0.033821         3
        11         1         2        30     9      180.000000       -0.099197         4
        11         1         4        32     9        0.000000        0.237930         1
        11         1         4        32     9      180.000000       11.843917         2
        11         1         4        32     9        0.000000       -0.044192         3
        11         1         4        32     9      180.000000       -0.137177         4
        11        26        27        28     9        0.000000       -1.829115         1
        11        26        27        28     9      180.000000       -1.142501         2
        11        26        27        28     9        0.000000        1.084360         3
        11        26        27        28     9      180.000000       -0.140081         4
        11        26        27        29     9        0.000000       -1.829115         1
        11        26        27        29     9      180.000000       -1.142501         2
        11        26        27        29     9        0.000000        1.084360         3
        11        26        27        29     9      180.000000       -0.140081         4
        11        26        27        46     9        0.000000        4.821920         1
        11        26        27        46     9      180.000000       -3.004490         2
        11        26        27        46     9        0.000000        1.353191         3
        11        26        27        46     9      180.000000        0.109125         4
        12        13        14        15     9        0.000000       -0.033501         1
        12        13        14        15     9      180.000000       18.361802         2
        12        13        14        15     9        0.000000       -1.382122         3
        12        13        14        15     9      180.000000       -0.333748         4
        12        13        14        37     9        0.000000        0.009019         1
        12        13        14        37     9      180.000000       15.117729         2
        12        13        14        37     9        0.000000       -0.652997         3
        12        13        14        37     9      180.000000        0.089352         4
        12        17        16        15     9        0.000000       -0.033501         1
        12        17        16        15     9      180.000000       18.361802         2
        12        17        16        15     9        0.000000       -1.382122         3
        12        17        16        15     9      180.000000       -0.333748         4
        12        17        16        38     9        0.000000        0.009019         1
        12        17        16        38     9      180.000000       15.117729         2
        12        17        16        38     9        0.000000       -0.652997         3
        12        17        16        38     9      180.000000        0.089352         4
        13        12        10        34     9        0.000000        0.026652         1
        13        12        10        34     9      180.000000        0.014947         2
        13        12        10        34     9        0.000000        0.013547         3
        13        12        10        34     9      180.000000        0.009027         4
        13        12        10        35     9        0.000000        0.026652         1
        13        12        10        35     9      180.000000        0.014947         2
        13        12        10        35     9        0.000000        0.013547         3
        13        12        10        35     9      180.000000        0.009027         4
        13        12        17        16     9        0.000000       -0.017692         1
        13        12        17        16     9      180.000000       18.652768         2
        13        12        17        16     9        0.000000       -1.225804         3
        13        12        17        16     9      180.000000       -0.466466         4
        13        12        17        39     9        0.000000        0.019722         1
        13        12        17        39     9      180.000000       14.478142         2
        13        12        17        39     9        0.000000       -0.483578         3
        13        12        17        39     9      180.000000        0.000311         4
        13        14        15        16     9        0.000000       -0.080966         1
        13        14        15        16     9      180.000000       18.153112         2
        13        14        15        16     9        0.000000       -1.373641         3
        13        14        15        16     9      180.000000       -0.356348         4
        13        14        15        18     9        0.000000        0.345560         1
        13        14        15        18     9      180.000000       16.650203         2
        13        14        15        18     9        0.000000       -0.115710         3
        13        14        15        18     9      180.000000       -0.388262         4
        14        13        12        17     9        0.000000       -0.017692         1
        14        13        12        17     9      180.000000       18.652768         2
        14        13        12        17     9        0.000000       -1.225804         3
        14        13        12        17     9      180.000000       -0.466466         4
        14        15        16        17     9        0.000000       -0.080966         1
        14        15        16        17     9      180.000000       18.153112         2
        14        15        16        17     9        0.000000       -1.373641         3
        14        15        16        17     9      180.000000       -0.356348         4
        14        15        16        38     9        0.000000       -0.122536         1
        14        15        16        38     9      180.000000       13.854592         2
        14        15        16        38     9        0.000000       -0.550856         3
        14        15        16        38     9      180.000000        0.073352         4
        14        15        18        19     9        0.000000        0.226385         1
        14        15        18        19     9      180.000000        2.444068         2
        14        15        18        19     9        0.000000        0.075300         3
        14        15        18        19     9      180.000000       -0.310311         4
        14        15        18        22     9        0.000000       -0.000289         1
        14        15        18        22     9      180.000000        2.079647         2
        14        15        18        22     9        0.000000       -0.058954         3
        14        15        18        22     9      180.000000       -0.243068         4
        15        14        13        36     9        0.000000       -0.019661         1
        15        14        13        36     9      180.000000       14.564297         2
        15        14        13        36     9        0.000000       -0.438149         3
        15        14        13        36     9      180.000000        0.148899         4
        15        16        17        39     9        0.000000       -0.019661         1
        15        16        17        39     9      180.000000       14.564298         2
        15        16        17        39     9        0.000000       -0.438149         3
        15        16        17        39     9      180.000000        0.148899         4
        15        18        19        20     9        0.000000        0.183654         1
        15        18        19        20     9      180.000000       16.330189         2
        15        18        19        20     9        0.000000       -0.168639         3
        15        18        19        20     9      180.000000       -0.945094         4
        15        18        19        40     9        0.000000       -0.192731         1
        15        18        19        40     9      180.000000       10.764578         2
        15        18        19        40     9        0.000000       -0.137823         3
        15        18        19        40     9      180.000000       -0.003216         4
        15        18        22        21     9        0.000000        0.388880         1
        15        18        22        21     9      180.000000       15.245298         2
        15        18        22        21     9        0.000000       -0.357893         3
        15        18        22        21     9      180.000000       -0.981862         4
        15        18        22        41     9        0.000000       -0.157977         1
        15        18        22        41     9      180.000000       10.350387         2
        15        18        22        41     9        0.000000       -0.025513         3
        15        18        22        41     9      180.000000        0.047765         4
        16        15        14        37     9        0.000000       -0.122536         1
        16        15        14        37     9      180.000000       13.854592         2
        16        15        14        37     9        0.000000       -0.550856         3
        16        15        14        37     9      180.000000        0.073352         4
        16        15        18        19     9        0.000000        0.226385         1
        16        15        18        19     9      180.000000        2.444068         2
        16        15        18        19     9        0.000000        0.075300         3
        16        15        18        19     9      180.000000       -0.310311         4
        16        15        18        22     9        0.000000       -0.000289         1
        16        15        18        22     9      180.000000        2.079647         2
        16        15        18        22     9        0.000000       -0.058954         3
        16        15        18        22     9      180.000000       -0.243068         4
        17        12        10        34     9        0.000000        0.026652         1
        17        12        10        34     9      180.000000        0.014947         2
        17        12        10        34     9        0.000000        0.013547         3
        17        12        10        34     9      180.000000        0.009027         4
        17        12        10        35     9        0.000000        0.026652         1
        17        12        10        35     9      180.000000        0.014947         2
        17        12        10        35     9        0.000000        0.013547         3
        17        12        10        35     9      180.000000        0.009027         4
        17        12        13        36     9        0.000000        0.019722         1
        17        12        13        36     9      180.000000       14.478141         2
        17        12        13        36     9        0.000000       -0.483578         3
        17        12        13        36     9      180.000000        0.000311         4
        17        16        15        18     9        0.000000        0.345560         1
        17        16        15        18     9      180.000000       16.650203         2
        17        16        15        18     9        0.000000       -0.115710         3
        17        16        15        18     9      180.000000       -0.388262         4
        18        15        14        37     9        0.000000        0.146898         1
        18        15        14        37     9      180.000000       13.479037         2
        18        15        14        37     9        0.000000       -0.087547         3
        18        15        14        37     9      180.000000        0.132717         4
        18        15        16        38     9        0.000000        0.146898         1
        18        15        16        38     9      180.000000       13.479037         2
        18        15        16        38     9        0.000000       -0.087547         3
        18        15        16        38     9      180.000000        0.132717         4
        18        19        20        21     9        0.000000       -0.009121         1
        18        19        20        21     9      180.000000       30.745141         2
        18        19        20        21     9        0.000000       -6.250990         3
        18        19        20        21     9      180.000000       -0.578339         4
        18        19        20        23     9        0.000000        0.805845         1
        18        19        20        23     9      180.000000        7.183529         2
        18        19        20        23     9        0.000000        0.904760         3
        18        19        20        23     9      180.000000       -0.006099         4
        18        22        21        20     9        0.000000       -0.003186         1
        18        22        21        20     9      180.000000       40.723745         2
        18        22        21        20     9        0.000000       -5.801977         3
        18        22        21        20     9      180.000000       -0.138216         4
        19        18        22        21     9        0.000000       -0.184323         1
        19        18        22        21     9      180.000000       30.518446         2
        19        18        22        21     9        0.000000       -8.302201         3
        19        18        22        21     9      180.000000        0.056566         4
        19        18        22        41     9        0.000000        0.182830         1
        19        18        22        41     9      180.000000       14.435368         2
        19        18        22        41     9        0.000000       -0.577632         3
        19        18        22        41     9      180.000000       -0.486645         4
        19        20        21        22     9        0.000000       -0.276705         1
        19        20        21        22     9      180.000000       27.814030         2
        19        20        21        22     9        0.000000       -4.425871         3
        19        20        21        22     9      180.000000        0.073279         4
        19        20        23        42     9        0.000000       -0.025034         1
        19        20        23        42     9      180.000000       -0.009391         2
        19        20        23        42     9        0.000000        0.181958         3
        19        20        23        42     9      180.000000        0.012892         4
        19        20        23        43     9        0.000000       -0.025034         1
        19        20        23        43     9      180.000000       -0.009391         2
        19        20        23        43     9        0.000000        0.181958         3
        19        20        23        43     9      180.000000        0.012892         4
        19        20        23        44     9        0.000000       -0.025034         1
        19        20        23        44     9      180.000000       -0.009391         2
        19        20        23        44     9        0.000000        0.181958         3
        19        20        23        44     9      180.000000        0.012892         4
        20        19        18        22     9        0.000000       -0.206975         1
        20        19        18        22     9      180.000000       30.618729         2
        20        19        18        22     9        0.000000       -8.507334         3
        20        19        18        22     9      180.000000       -0.023863         4
        20        21        22        41     9        0.000000        1.030702         1
        20        21        22        41     9      180.000000       28.071183         2
        20        21        22        41     9        0.000000       -0.182231         3
        20        21        22        41     9      180.000000       -0.061982         4
        21        20        19        40     9        0.000000        1.067261         1
        21        20        19        40     9      180.000000       12.367244         2
        21        20        19        40     9        0.000000        0.213521         3
        21        20        19        40     9      180.000000       -0.400032         4
        21        20        23        42     9        0.000000       -0.002235         1
        21        20        23        42     9      180.000000        0.002811         2
        21        20        23        42     9        0.000000        0.198678         3
        21        20        23        42     9      180.000000        0.004453         4
        21        20        23        43     9        0.000000       -0.002235         1
        21        20        23        43     9      180.000000        0.002811         2
        21        20        23        43     9        0.000000        0.198678         3
        21        20        23        43     9      180.000000        0.004453         4
        21        20        23        44     9        0.000000       -0.002235         1
        21        20        23        44     9      180.000000        0.002811         2
        21        20        23        44     9        0.000000        0.198678         3
        21        20        23        44     9      180.000000        0.004453         4
        22        18        19        40     9        0.000000        0.010232         1
        22        18        19        40     9      180.000000       13.254580         2
        22        18        19        40     9        0.000000       -0.641023         3
        22        18        19        40     9      180.000000       -0.261573         4
        22        21        20        23     9        0.000000        0.586693         1
        22        21        20        23     9      180.000000       10.298364         2
        22        21        20        23     9        0.000000        0.792012         3
        22        21        20        23     9      180.000000       -0.113382         4
        23        20        19        40     9        0.000000       -0.493730         1
        23        20        19        40     9      180.000000        3.995450         2
        23        20        19        40     9        0.000000        0.087170         3
        23        20        19        40     9      180.000000        0.043642         4
        24        11        26        27     9        0.000000        0.436025         1
        24        11        26        27     9      180.000000       -0.391236         2
        24        11        26        27     9        0.000000        1.921035         3
        24        11        26        27     9      180.000000        0.042325         4
        24        11        26        45     9        0.000000        0.077542         1
        24        11        26        45     9      180.000000       -0.504471         2
        24        11        26        45     9        0.000000       -1.011552         3
        24        11        26        45     9      180.000000       -0.265256         4
        25        11        26        27     9        0.000000        0.436025         1
        25        11        26        27     9      180.000000       -0.391236         2
        25        11        26        27     9        0.000000        1.921035         3
        25        11        26        27     9      180.000000        0.042325         4
        25        11        26        45     9        0.000000        0.077542         1
        25        11        26        45     9      180.000000       -0.504471         2
        25        11        26        45     9        0.000000       -1.011552         3
        25        11        26        45     9      180.000000       -0.265256         4
        26        27        28        29     9        0.000000       55.568048         1
        26        27        28        29     9      180.000000        0.673198         2
        26        27        28        29     9        0.000000       -0.570147         3
        26        27        28        29     9      180.000000       15.742896         4
        26        27        28        47     9        0.000000       -1.392436         1
        26        27        28        47     9      180.000000       -2.007185         2
        26        27        28        47     9        0.000000       -0.055407         3
        26        27        28        47     9      180.000000        1.120651         4
        26        27        28        48     9        0.000000       -1.392436         1
        26        27        28        48     9      180.000000       -2.007185         2
        26        27        28        48     9        0.000000       -0.055407         3
        26        27        28        48     9      180.000000        1.120651         4
        26        27        29        28     9        0.000000       55.568048         1
        26        27        29        28     9      180.000000        0.673198         2
        26        27        29        28     9        0.000000       -0.570147         3
        26        27        29        28     9      180.000000       15.742896         4
        26        27        29        49     9        0.000000       -1.392436         1
        26        27        29        49     9      180.000000       -2.007185         2
        26        27        29        49     9        0.000000       -0.055407         3
        26        27        29        49     9      180.000000        1.120651         4
        26        27        29        50     9        0.000000       -1.392436         1
        26        27        29        50     9      180.000000       -2.007185         2
        26        27        29        50     9        0.000000       -0.055407         3
        26        27        29        50     9      180.000000        1.120651         4
        27        28        29        49     9        0.000000       19.701261         1
        27        28        29        49     9      180.000000        0.159927         2
        27        28        29        49     9        0.000000       -0.146309         3
        27        28        29        49     9      180.000000        4.682830         4
        27        28        29        50     9        0.000000       19.701261         1
        27        28        29        50     9      180.000000        0.159927         2
        27        28        29        50     9        0.000000       -0.146309         3
        27        28        29        50     9      180.000000        4.682830         4
        27        29        28        47     9        0.000000       19.701261         1
        27        29        28        47     9      180.000000        0.159927         2
        27        29        28        47     9        0.000000       -0.146309         3
        27        29        28        47     9      180.000000        4.682830         4
        27        29        28        48     9        0.000000       19.701261         1
        27        29        28        48     9      180.000000        0.159927         2
        27        29        28        48     9        0.000000       -0.146309         3
        27        29        28        48     9      180.000000        4.682830         4
        28        27        26        45     9        0.000000        0.103045         1
        28        27        26        45     9      180.000000       -1.793065         2
        28        27        26        45     9        0.000000        0.306710         3
        28        27        26        45     9      180.000000        0.074974         4
        28        27        29        49     9        0.000000       27.693842         1
        28        27        29        49     9      180.000000        1.802630         2
        28        27        29        49     9        0.000000        0.205430         3
        28        27        29        49     9      180.000000        5.692406         4
        28        27        29        50     9        0.000000       27.693842         1
        28        27        29        50     9      180.000000        1.802630         2
        28        27        29        50     9        0.000000        0.205430         3
        28        27        29        50     9      180.000000        5.692406         4
        28        29        27        46     9        0.000000       36.702811         1
        28        29        27        46     9      180.000000        1.873185         2
        28        29        27        46     9        0.000000        0.139149         3
        28        29        27        46     9      180.000000        8.287683         4
        29        27        26        45     9        0.000000        0.103045         1
        29        27        26        45     9      180.000000       -1.793065         2
        29        27        26        45     9        0.000000        0.306710         3
        29        27        26        45     9      180.000000        0.074974         4
        29        27        28        47     9        0.000000       27.693842         1
        29        27        28        47     9      180.000000        1.802630         2
        29        27        28        47     9        0.000000        0.205430         3
        29        27        28        47     9      180.000000        5.692406         4
        29        27        28        48     9        0.000000       27.693842         1
        29        27        28        48     9      180.000000        1.802630         2
        29        27        28        48     9        0.000000        0.205430         3
        29        27        28        48     9      180.000000        5.692406         4
        29        28        27        46     9        0.000000       36.702811         1
        29        28        27        46     9      180.000000        1.873185         2
        29        28        27        46     9        0.000000        0.139149         3
        29        28        27        46     9      180.000000        8.287683         4
        31         3         4        32     9        0.000000       -0.002920         1
        31         3         4        32     9      180.000000       12.751718         2
        31         3         4        32     9        0.000000       -0.706684         3
        31         3         4        32     9      180.000000        0.243163         4
        36        13        14        37     9        0.000000       -0.173270         1
        36        13        14        37     9      180.000000       12.433057         2
        36        13        14        37     9        0.000000       -0.660707         3
        36        13        14        37     9      180.000000        0.303153         4
        38        16        17        39     9        0.000000       -0.173270         1
        38        16        17        39     9      180.000000       12.433057         2
        38        16        17        39     9        0.000000       -0.660706         3
        38        16        17        39     9      180.000000        0.303154         4
        45        26        27        46     9        0.000000       -0.870852         1
        45        26        27        46     9      180.000000       -3.015095         2
        45        26        27        46     9        0.000000        0.248561         3
        45        26        27        46     9      180.000000        0.033360         4
        46        27        28        47     9        0.000000        0.411910         1
        46        27        28        47     9      180.000000       -0.757854         2
        46        27        28        47     9        0.000000       -0.159247         3
        46        27        28        47     9      180.000000        1.362116         4
        46        27        28        48     9        0.000000        0.411910         1
        46        27        28        48     9      180.000000       -0.757854         2
        46        27        28        48     9        0.000000       -0.159247         3
        46        27        28        48     9      180.000000        1.362116         4
        46        27        29        49     9        0.000000        0.411910         1
        46        27        29        49     9      180.000000       -0.757854         2
        46        27        29        49     9        0.000000       -0.159247         3
        46        27        29        49     9      180.000000        1.362116         4
        46        27        29        50     9        0.000000        0.411910         1
        46        27        29        50     9      180.000000       -0.757854         2
        46        27        29        50     9        0.000000       -0.159247         3
        46        27        29        50     9      180.000000        1.362116         4
        47        28        29        49     9        0.000000        0.260523         1
        47        28        29        49     9      180.000000       -1.355020         2
        47        28        29        49     9        0.000000       -0.033798         3
        47        28        29        49     9      180.000000        0.921244         4
        47        28        29        50     9        0.000000        0.260523         1
        47        28        29        50     9      180.000000       -1.355020         2
        47        28        29        50     9        0.000000       -0.033798         3
        47        28        29        50     9      180.000000        0.921244         4
        48        28        29        49     9        0.000000        0.260523         1
        48        28        29        49     9      180.000000       -1.355020         2
        48        28        29        49     9        0.000000       -0.033798         3
        48        28        29        49     9      180.000000        0.921244         4
        48        28        29        50     9        0.000000        0.260523         1
        48        28        29        50     9      180.000000       -1.355020         2
        48        28        29        50     9        0.000000       -0.033798         3
        48        28        29        50     9      180.000000        0.921244         4

[ dihedrals ] ; impropers
;       ai        aj        ak        al funct           phase               k        pn
         2         1         6        30     4      180.000000        5.587156         2
         2         6        30         1     4      180.000000        5.587156         2
         2        30         1         6     4      180.000000        5.587156         2
         3         4         5        31     4      180.000000        2.911770         2
         3         5        31         4     4      180.000000        2.911770         2
         3        31         4         5     4      180.000000        2.911770         2
         4         1         3        32     4      180.000000        0.319070         2
         4         3        32         1     4      180.000000        0.319070         2
         4        32         1         3     4      180.000000        0.319070         2
        13        12        14        36     4      180.000000        1.374161         2
        13        14        36        12     4      180.000000        1.374161         2
        13        36        12        14     4      180.000000        1.374161         2
        17        12        16        39     4      180.000000        1.374161         2
        17        16        39        12     4      180.000000        1.374161         2
        17        39        12        16     4      180.000000        1.374161         2

[ pairs ]
;       ai        aj funct
         1         5     1
         1         7     1
         1        27     1
         1        31     1
         1        45     1
         2         3     1
         2         8     1
         2         9     1
         2        10     1
         2        24     1
         2        25     1
         2        26     1
         2        32     1
         3         7     1
         3         8     1
         3        11     1
         3        33     1
         4         6     1
         4         9     1
         4        24     1
         4        25     1
         4        26     1
         4        30     1
         5        10     1
         5        30     1
         5        32     1
         6        11     1
         6        12     1
         6        31     1
         6        33     1
         6        34     1
         6        35     1
         7        13     1
         7        17     1
         7        30     1
         7        33     1
         8        12     1
         8        34     1
         8        35     1
         9        10     1
         9        31     1
        10        14     1
        10        16     1
        10        36     1
        10        39     1
        11        28     1
        11        29     1
        11        30     1
        11        32     1
        11        46     1
        12        15     1
        12        37     1
        12        38     1
        13        16     1
        13        18     1
        13        34     1
        13        35     1
        13        39     1
        14        17     1
        14        19     1
        14        22     1
        14        38     1
        15        20     1
        15        21     1
        15        36     1
        15        39     1
        15        40     1
        15        41     1
        16        19     1
        16        22     1
        16        37     1
        17        18     1
        17        34     1
        17        35     1
        17        36     1
        18        23     1
        18        37     1
        18        38     1
        19        41     1
        19        42     1
        19        43     1
        19        44     1
        20        41     1
        21        40     1
        21        42     1
        21        43     1
        21        44     1
        22        23     1
        22        40     1
        23        40     1
        24        27     1
        24        45     1
        25        27     1
        25        45     1
        26        47     1
        26        48     1
        26        49     1
        26        50     1
        28        45     1
        29        45     1
        31        32     1
        36        37     1
        38        39     1
        45        46     1
        46        47     1
        46        48     1
        46        49     1
        46        50     1
        47        49     1
        47        50     1
        48        49     1
        48        50     1
