; ITP file created by ByteFF-ML, 2026-02-21 07:35:59.450571

[ atomtypes ]
;name           bonded.type        at.num        mass        charge   ptype           sigma         epsilon
 c0bf                                   6      0.0000       0.00000       A     3.31405e-01     4.13712e-01
 c1bf                                   6      0.0000       0.00000       A     3.31399e-01     4.13778e-01
 c2bf                                   6      0.0000       0.00000       A     3.31517e-01     4.12482e-01
 c3bf                                   6      0.0000       0.00000       A     3.31564e-01     4.13151e-01
 c4bf                                   6      0.0000       0.00000       A     3.31529e-01     4.12453e-01
 c5bf                                   6      0.0000       0.00000       A     3.31500e-01     4.11950e-01
 c6bf                                   6      0.0000       0.00000       A     3.31450e-01     4.11740e-01
 n7bf                                   7      0.0000       0.00000       A     3.38151e-01     3.91342e-01
 n8bf                                   7      0.0000       0.00000       A     3.20440e-01     8.58154e-01
 c9bf                                   6      0.0000       0.00000       A     3.39892e-01     4.51463e-01
 n10bf                                  7      0.0000       0.00000       A     3.36024e-01     3.52256e-01
 c11bf                                  6      0.0000       0.00000       A     3.31598e-01     4.11566e-01
 o12bf                                  8      0.0000       0.00000       A     3.04708e-01     6.10832e-01
 c13bf                                  6      0.0000       0.00000       A     3.31526e-01     4.13182e-01
 c14bf                                  6      0.0000       0.00000       A     3.31408e-01     4.13210e-01
 c15bf                                  6      0.0000       0.00000       A     3.31502e-01     4.12536e-01
 c16bf                                  6      0.0000       0.00000       A     3.31322e-01     4.13227e-01
 c17bf                                  6      0.0000       0.00000       A     3.31502e-01     4.12536e-01
 c18bf                                  6      0.0000       0.00000       A     3.31408e-01     4.13210e-01
 c19bf                                  6      0.0000       0.00000       A     3.31350e-01     4.11687e-01
 c20bf                                  6      0.0000       0.00000       A     3.31475e-01     4.11821e-01
 n21bf                                  7      0.0000       0.00000       A     3.20558e-01     8.54076e-01
 n22bf                                  7      0.0000       0.00000       A     3.38391e-01     3.93249e-01
 c23bf                                  6      0.0000       0.00000       A     3.31594e-01     4.13789e-01
 c24bf                                  6      0.0000       0.00000       A     3.39839e-01     4.51932e-01
 h25bf                                  1      0.0000       0.00000       A     2.62417e-01     6.67524e-02
 h26bf                                  1      0.0000       0.00000       A     2.62471e-01     6.70892e-02
 h27bf                                  1      0.0000       0.00000       A     2.62589e-01     6.73302e-02
 h28bf                                  1      0.0000       0.00000       A     1.10602e-01     4.12983e-02
 h29bf                                  1      0.0000       0.00000       A     2.60090e-01     8.80823e-02
 h30bf                                  1      0.0000       0.00000       A     2.60090e-01     8.80823e-02
 h31bf                                  1      0.0000       0.00000       A     1.10424e-01     4.11499e-02
 h32bf                                  1      0.0000       0.00000       A     1.10424e-01     4.11499e-02
 h33bf                                  1      0.0000       0.00000       A     2.62498e-01     6.75473e-02
 h34bf                                  1      0.0000       0.00000       A     2.62482e-01     6.74643e-02
 h35bf                                  1      0.0000       0.00000       A     2.62482e-01     6.74643e-02
 h36bf                                  1      0.0000       0.00000       A     2.62498e-01     6.75473e-02
 h37bf                                  1      0.0000       0.00000       A     2.53807e-01     6.74898e-02
 h38bf                                  1      0.0000       0.00000       A     2.53933e-01     6.69200e-02
 h39bf                                  1      0.0000       0.00000       A     2.41990e-01     8.77359e-02
 h40bf                                  1      0.0000       0.00000       A     2.41990e-01     8.77359e-02
 h41bf                                  1      0.0000       0.00000       A     2.41990e-01     8.77343e-02

[ moleculetype ]
;name             nrexcl
 32                    3

[ atoms ]
;       nr            type      resi   res      atom      cgnr      charge          mass ; qtot
         1            c0bf         1   UNL        c0         1    -0.19933       12.0110 ; qtot   -0.199
         2            c1bf         1   UNL        c1         2     0.01931       12.0110 ; qtot   -0.180
         3            c2bf         1   UNL        c2         3    -0.14893       12.0110 ; qtot   -0.329
         4            c3bf         1   UNL        c3         4    -0.03820       12.0110 ; qtot   -0.367
         5            c4bf         1   UNL        c4         5    -0.00053       12.0110 ; qtot   -0.368
         6            c5bf         1   UNL        c5         6    -0.23535       12.0110 ; qtot   -0.603
         7            c6bf         1   UNL        c6         7     0.35947       12.0110 ; qtot   -0.244
         8            n7bf         1   UNL        n7         8    -0.50659       14.0070 ; qtot   -0.750
         9            n8bf         1   UNL        n8         9    -0.08032       14.0070 ; qtot   -0.830
        10            c9bf         1   UNL        c9        10    -0.03975       12.0110 ; qtot   -0.870
        11           n10bf         1   UNL       n10        11    -0.58462       14.0070 ; qtot   -1.455
        12           c11bf         1   UNL       c11        12     0.60517       12.0110 ; qtot   -0.850
        13           o12bf         1   UNL       o12        13    -0.59640       15.9990 ; qtot   -1.446
        14           c13bf         1   UNL       c13        14    -0.08002       12.0110 ; qtot   -1.526
        15           c14bf         1   UNL       c14        15    -0.10203       12.0110 ; qtot   -1.628
        16           c15bf         1   UNL       c15        16    -0.11007       12.0110 ; qtot   -1.738
        17           c16bf         1   UNL       c16        17     0.00438       12.0110 ; qtot   -1.734
        18           c17bf         1   UNL       c17        18    -0.11007       12.0110 ; qtot   -1.844
        19           c18bf         1   UNL       c18        19    -0.10203       12.0110 ; qtot   -1.946
        20           c19bf         1   UNL       c19        20    -0.16403       12.0110 ; qtot   -2.110
        21           c20bf         1   UNL       c20        21    -0.14400       12.0110 ; qtot   -2.254
        22           n21bf         1   UNL       n21        22     0.11171       14.0070 ; qtot   -2.142
        23           n22bf         1   UNL       n22        23    -0.52174       14.0070 ; qtot   -2.664
        24           c23bf         1   UNL       c23        24     0.25349       12.0110 ; qtot   -2.410
        25           c24bf         1   UNL       c24        25     0.07027       12.0110 ; qtot   -2.340
        26           h25bf         1   UNL       h25        26     0.13721        1.0080 ; qtot   -2.203
        27           h26bf         1   UNL       h26        27     0.12872        1.0080 ; qtot   -2.074
        28           h27bf         1   UNL       h27        28     0.12774        1.0080 ; qtot   -1.947
        29           h28bf         1   UNL       h28        29     0.37621        1.0080 ; qtot   -1.570
        30           h29bf         1   UNL       h29        30     0.06255        1.0080 ; qtot   -1.508
        31           h30bf         1   UNL       h30        31     0.06255        1.0080 ; qtot   -1.445
        32           h31bf         1   UNL       h31        32     0.30367        1.0080 ; qtot   -1.142
        33           h32bf         1   UNL       h32        33     0.30367        1.0080 ; qtot   -0.838
        34           h33bf         1   UNL       h33        34     0.11797        1.0080 ; qtot   -0.720
        35           h34bf         1   UNL       h34        35     0.11784        1.0080 ; qtot   -0.602
        36           h35bf         1   UNL       h35        36     0.11784        1.0080 ; qtot   -0.484
        37           h36bf         1   UNL       h36        37     0.11797        1.0080 ; qtot   -0.366
        38           h37bf         1   UNL       h37        38     0.15375        1.0080 ; qtot   -0.213
        39           h38bf         1   UNL       h38        39     0.03800        1.0080 ; qtot   -0.175
        40           h39bf         1   UNL       h39        40     0.05817        1.0080 ; qtot   -0.116
        41           h40bf         1   UNL       h40        41     0.05817        1.0080 ; qtot   -0.058
        42           h41bf         1   UNL       h41        42     0.05818        1.0080 ; qtot   -0.000

[ bonds ]
;       ai        aj funct               r               k
         1         2     1        0.139405   310503.899756
         1         4     1        0.142317   259880.666357
         1        12     1        0.149761   178640.456250
         2         6     1        0.140339   306276.537744
         2        26     1        0.108538   321765.024414
         3         4     1        0.138630   346571.006348
         3         5     1        0.140635   300350.677051
         3        27     1        0.108557   321190.184082
         4        28     1        0.108495   321939.008740
         5         6     1        0.141869   251815.842920
         5         9     1        0.136842   290575.199268
         6         7     1        0.143787   232823.613770
         7         8     1        0.132649   371345.986230
         7        10     1        0.150274   213625.644897
         8         9     1        0.136401   241851.313916
         9        29     1        0.100927   434980.632227
        10        14     1        0.151889   191838.442969
        10        30     1        0.109486   294999.682227
        10        31     1        0.109486   294999.682227
        11        12     1        0.138227   284195.697363
        11        32     1        0.101236   423627.803809
        11        33     1        0.101236   423627.803809
        12        13     1        0.123130   604120.262305
        14        15     1        0.140132   290757.304395
        14        19     1        0.140132   290757.304395
        15        16     1        0.139531   320296.512939
        15        34     1        0.108704   315886.075391
        16        17     1        0.140685   283825.179443
        16        35     1        0.108584   318696.127832
        17        18     1        0.140685   283825.179443
        17        20     1        0.146859   235591.683203
        18        19     1        0.139531   320296.512939
        18        36     1        0.108584   318696.102295
        19        37     1        0.108704   315886.075391
        20        21     1        0.139499   320805.390918
        20        24     1        0.142378   259368.136572
        21        22     1        0.135856   314480.283057
        21        38     1        0.108071   337590.039111
        22        23     1        0.135354   242037.913574
        22        25     1        0.145314   224810.528516
        23        24     1        0.133400   358572.196436
        24        39     1        0.108233   332445.307520
        25        40     1        0.109196   305692.172070
        25        41     1        0.109196   305692.172070
        25        42     1        0.109196   305692.172070

[ angles ]
;       ai        aj        ak funct           theta             cth
         1         2         6     1      118.891953      667.395882
         1         2        26     1      120.167725      402.086160
         1         4         3     1      122.055374      611.997975
         1         4        28     1      118.838417      418.761286
         1        12        11     1      116.218239      546.045645
         1        12        13     1      122.410324      586.119946
         2         1         4     1      120.200378      608.406181
         2         1        12     1      119.564171      514.519318
         2         6         5     1      119.750755      753.948041
         2         6         7     1      135.519073      435.060857
         3         4        28     1      119.243210      409.044672
         3         5         6     1      121.826454      612.816631
         3         5         9     1      132.490311      480.939423
         4         1        12     1      119.961754      593.695593
         4         3         5     1      117.039871      763.050552
         4         3        27     1      121.193008      439.848203
         5         3        27     1      121.912209      436.763288
         5         6         7     1      104.808472      488.138877
         5         9         8     1      112.338623      425.015069
         5         9        29     1      128.734390      380.960906
         6         2        26     1      120.977882      408.948460
         6         5         9     1      105.797852      167.360000
         6         7         8     1      110.702805      353.792805
         6         7        10     1      127.833115      446.834709
         7         8         9     1      106.500710      544.611736
         7        10        14     1      113.105606      519.623132
         7        10        30     1      108.500137      514.066289
         7        10        31     1      108.500137      514.066289
         8         7        10     1      121.625832      449.673829
         8         9        29     1      118.789017      482.596877
        10        14        15     1      120.885033      486.548234
        10        14        19     1      120.885033      486.548234
        11        12        13     1      121.142212      671.117916
        12        11        32     1      116.879433      452.603574
        12        11        33     1      116.879433      452.603574
        14        10        30     1      109.614029      493.993834
        14        10        31     1      109.614029      493.993834
        14        15        16     1      120.959518      705.842064
        14        15        34     1      119.502907      394.245725
        14        19        18     1      120.959518      705.842064
        14        19        37     1      119.502907      394.245725
        15        14        19     1      118.250145      711.225989
        15        16        17     1      121.013084      708.028679
        15        16        35     1      119.370682      427.621195
        16        15        34     1      119.522682      426.792643
        16        17        18     1      117.633606      614.164480
        16        17        20     1      121.173790      498.107383
        17        16        35     1      119.674911      429.339523
        17        18        19     1      121.013084      708.028679
        17        18        36     1      119.674911      429.339523
        17        20        21     1      127.875488      501.485943
        17        20        24     1      128.618073      539.877795
        18        17        20     1      121.173790      498.107383
        18        19        37     1      119.522682      426.792643
        19        18        36     1      119.370682      427.621195
        20        21        22     1      107.253334      167.360000
        20        21        38     1      131.309311      330.526743
        20        24        23     1      111.985497      241.969059
        20        24        39     1      128.583298      361.836739
        21        20        24     1      103.527756      370.968937
        21        22        23     1      112.317947      213.505110
        21        22        25     1      128.036591      424.086540
        22        21        38     1      121.687912      464.045604
        22        23        24     1      104.970230      567.675704
        22        25        40     1      109.593666      496.372137
        22        25        41     1      109.593666      496.372137
        22        25        42     1      109.593666      496.372137
        23        22        25     1      119.401016      615.866209
        23        24        39     1      119.394226      391.030699
        30        10        31     1      106.967346      364.175843
        32        11        33     1      116.076515      330.127342
        40        25        41     1      109.444870      349.033390
        40        25        42     1      109.444870      349.033390
        41        25        42     1      109.444870      349.033358

[ dihedrals ] ; propers for gromacs 4.5 or higher, use funct 9
;       ai        aj        ak        al funct           phase               k        pn
         1         2         6         5     9        0.000000       -0.118356         1
         1         2         6         5     9      180.000000       19.808830         2
         1         2         6         5     9        0.000000       -2.367029         3
         1         2         6         5     9      180.000000       -0.500560         4
         1         2         6         7     9        0.000000       -0.344922         1
         1         2         6         7     9      180.000000       14.217939         2
         1         2         6         7     9        0.000000       -1.069057         3
         1         2         6         7     9      180.000000       -0.272358         4
         1         4         3         5     9        0.000000       -0.041055         1
         1         4         3         5     9      180.000000       22.053852         2
         1         4         3         5     9        0.000000       -1.500018         3
         1         4         3         5     9      180.000000       -0.669082         4
         1         4         3        27     9        0.000000        0.030054         1
         1         4         3        27     9      180.000000       14.746161         2
         1         4         3        27     9        0.000000       -0.489106         3
         1         4         3        27     9      180.000000        0.118621         4
         1        12        11        32     9        0.000000       -0.886480         1
         1        12        11        32     9      180.000000        9.261197         2
         1        12        11        32     9        0.000000        1.016581         3
         1        12        11        32     9      180.000000       -1.238862         4
         1        12        11        33     9        0.000000       -0.886481         1
         1        12        11        33     9      180.000000        9.261196         2
         1        12        11        33     9        0.000000        1.016581         3
         1        12        11        33     9      180.000000       -1.238862         4
         2         1         4         3     9        0.000000        0.068850         1
         2         1         4         3     9      180.000000       16.882842         2
         2         1         4         3     9        0.000000       -1.243672         3
         2         1         4         3     9      180.000000       -0.355675         4
         2         1         4        28     9        0.000000        0.012931         1
         2         1         4        28     9      180.000000       12.683690         2
         2         1         4        28     9        0.000000       -0.639457         3
         2         1         4        28     9      180.000000        0.055058         4
         2         1        12        11     9        0.000000       -0.037373         1
         2         1        12        11     9      180.000000        2.918943         2
         2         1        12        11     9        0.000000        0.456331         3
         2         1        12        11     9      180.000000       -0.364484         4
         2         1        12        13     9        0.000000        0.384875         1
         2         1        12        13     9      180.000000        3.521347         2
         2         1        12        13     9        0.000000        0.110833         3
         2         1        12        13     9      180.000000       -0.078176         4
         2         6         5         3     9        0.000000       -0.270505         1
         2         6         5         3     9      180.000000       10.567160         2
         2         6         5         3     9        0.000000       -1.586052         3
         2         6         5         3     9      180.000000       -0.055013         4
         2         6         5         9     9        0.000000        0.317225         1
         2         6         5         9     9      180.000000        8.901847         2
         2         6         5         9     9        0.000000       -1.881076         3
         2         6         5         9     9      180.000000        0.117951         4
         2         6         7         8     9        0.000000       -0.229279         1
         2         6         7         8     9      180.000000        3.968644         2
         2         6         7         8     9        0.000000       -0.814110         3
         2         6         7         8     9      180.000000        0.031787         4
         2         6         7        10     9        0.000000       -0.406270         1
         2         6         7        10     9      180.000000        4.298746         2
         2         6         7        10     9        0.000000        0.245093         3
         2         6         7        10     9      180.000000        0.067561         4
         3         4         1        12     9        0.000000        0.179610         1
         3         4         1        12     9      180.000000       12.898952         2
         3         4         1        12     9        0.000000       -0.042624         3
         3         4         1        12     9      180.000000       -0.308145         4
         3         5         6         7     9        0.000000       -0.012435         1
         3         5         6         7     9      180.000000       11.284136         2
         3         5         6         7     9        0.000000       -2.379227         3
         3         5         6         7     9      180.000000       -0.022364         4
         3         5         9         8     9        0.000000        1.388441         1
         3         5         9         8     9      180.000000        5.518131         2
         3         5         9         8     9        0.000000        0.436876         3
         3         5         9         8     9      180.000000       -0.035399         4
         3         5         9        29     9        0.000000       -0.166869         1
         3         5         9        29     9      180.000000        1.510508         2
         3         5         9        29     9        0.000000        0.105208         3
         3         5         9        29     9      180.000000       -0.109495         4
         4         1         2         6     9        0.000000       -0.065610         1
         4         1         2         6     9      180.000000       20.806821         2
         4         1         2         6     9        0.000000       -1.506392         3
         4         1         2         6     9      180.000000       -0.648972         4
         4         1         2        26     9        0.000000        0.109315         1
         4         1         2        26     9      180.000000       14.784106         2
         4         1         2        26     9        0.000000       -0.431834         3
         4         1         2        26     9      180.000000       -0.023243         4
         4         1        12        11     9        0.000000        0.400340         1
         4         1        12        11     9      180.000000        3.106853         2
         4         1        12        11     9        0.000000        0.454886         3
         4         1        12        11     9      180.000000       -0.305719         4
         4         1        12        13     9        0.000000       -0.606706         1
         4         1        12        13     9      180.000000        3.739239         2
         4         1        12        13     9        0.000000        0.119804         3
         4         1        12        13     9      180.000000       -0.061017         4
         4         3         5         6     9        0.000000       -0.153591         1
         4         3         5         6     9      180.000000       16.960751         2
         4         3         5         6     9        0.000000       -1.850246         3
         4         3         5         6     9      180.000000       -0.340467         4
         4         3         5         9     9        0.000000        0.251489         1
         4         3         5         9     9      180.000000       13.447401         2
         4         3         5         9     9        0.000000       -0.029151         3
         4         3         5         9     9      180.000000       -0.097022         4
         5         3         4        28     9        0.000000        0.127927         1
         5         3         4        28     9      180.000000       17.188719         2
         5         3         4        28     9        0.000000       -0.516151         3
         5         3         4        28     9      180.000000       -0.107954         4
         5         6         2        26     9        0.000000        0.324606         1
         5         6         2        26     9      180.000000       14.406707         2
         5         6         2        26     9        0.000000       -0.320865         3
         5         6         2        26     9      180.000000       -0.196851         4
         5         6         7         8     9        0.000000       -0.158769         1
         5         6         7         8     9      180.000000       30.941356         2
         5         6         7         8     9        0.000000       -9.488855         3
         5         6         7         8     9      180.000000       -0.194582         4
         5         6         7        10     9        0.000000        0.905037         1
         5         6         7        10     9      180.000000       14.493631         2
         5         6         7        10     9        0.000000        0.102784         3
         5         6         7        10     9      180.000000       -0.591530         4
         5         9         8         7     9        0.000000       -0.211795         1
         5         9         8         7     9      180.000000       17.216046         2
         5         9         8         7     9        0.000000       -2.171080         3
         5         9         8         7     9      180.000000       -1.162629         4
         6         2         1        12     9        0.000000        0.240624         1
         6         2         1        12     9      180.000000       16.381459         2
         6         2         1        12     9        0.000000       -0.084395         3
         6         2         1        12     9      180.000000       -0.589231         4
         6         5         3        27     9        0.000000        0.120539         1
         6         5         3        27     9      180.000000       11.348855         2
         6         5         3        27     9        0.000000       -0.291248         3
         6         5         3        27     9      180.000000        0.001313         4
         6         5         9         8     9        0.000000        0.392748         1
         6         5         9         8     9      180.000000       24.691452         2
         6         5         9         8     9        0.000000       -5.027374         3
         6         5         9         8     9      180.000000       -1.038516         4
         6         5         9        29     9        0.000000        0.295809         1
         6         5         9        29     9      180.000000        1.575659         2
         6         5         9        29     9        0.000000        0.501314         3
         6         5         9        29     9      180.000000        0.027061         4
         6         7         8         9     9        0.000000       -0.266285         1
         6         7         8         9     9      180.000000       41.431550         2
         6         7         8         9     9        0.000000       -4.759238         3
         6         7         8         9     9      180.000000       -0.129972         4
         6         7        10        14     9        0.000000        0.317253         1
         6         7        10        14     9      180.000000       -0.413399         2
         6         7        10        14     9        0.000000        0.587270         3
         6         7        10        14     9      180.000000        0.020653         4
         6         7        10        30     9        0.000000       -0.066563         1
         6         7        10        30     9      180.000000        0.143377         2
         6         7        10        30     9        0.000000        0.524138         3
         6         7        10        30     9      180.000000        0.014895         4
         6         7        10        31     9        0.000000       -0.066563         1
         6         7        10        31     9      180.000000        0.143377         2
         6         7        10        31     9        0.000000        0.524138         3
         6         7        10        31     9      180.000000        0.014895         4
         7         6         2        26     9        0.000000       -0.055012         1
         7         6         2        26     9      180.000000        9.809759         2
         7         6         2        26     9        0.000000       -0.016209         3
         7         6         2        26     9      180.000000        0.045718         4
         7         6         5         9     9        0.000000        0.171340         1
         7         6         5         9     9      180.000000       17.413611         2
         7         6         5         9     9        0.000000       -6.321762         3
         7         6         5         9     9      180.000000       -0.232743         4
         7         8         9        29     9        0.000000        2.366235         1
         7         8         9        29     9      180.000000        2.975894         2
         7         8         9        29     9        0.000000        0.435105         3
         7         8         9        29     9      180.000000        0.026087         4
         7        10        14        15     9        0.000000       -0.162197         1
         7        10        14        15     9      180.000000        0.171147         2
         7        10        14        15     9        0.000000        0.114997         3
         7        10        14        15     9      180.000000        0.021335         4
         7        10        14        19     9        0.000000       -0.162197         1
         7        10        14        19     9      180.000000        0.171147         2
         7        10        14        19     9        0.000000        0.114997         3
         7        10        14        19     9      180.000000        0.021335         4
         8         7        10        14     9        0.000000       -0.862580         1
         8         7        10        14     9      180.000000       -0.216635         2
         8         7        10        14     9        0.000000        0.027906         3
         8         7        10        14     9      180.000000        0.006368         4
         8         7        10        30     9        0.000000        0.219474         1
         8         7        10        30     9      180.000000        0.093663         2
         8         7        10        30     9        0.000000       -0.190341         3
         8         7        10        30     9      180.000000        0.040522         4
         8         7        10        31     9        0.000000        0.219474         1
         8         7        10        31     9      180.000000        0.093663         2
         8         7        10        31     9        0.000000       -0.190341         3
         8         7        10        31     9      180.000000        0.040522         4
         9         5         3        27     9        0.000000       -0.114805         1
         9         5         3        27     9      180.000000        9.684382         2
         9         5         3        27     9        0.000000       -0.071654         3
         9         5         3        27     9      180.000000        0.059257         4
         9         8         7        10     9        0.000000        0.492327         1
         9         8         7        10     9      180.000000       32.362694         2
         9         8         7        10     9        0.000000        0.809139         3
         9         8         7        10     9      180.000000       -0.860767         4
        10        14        15        16     9        0.000000        0.026860         1
        10        14        15        16     9      180.000000       15.135600         2
        10        14        15        16     9        0.000000       -0.170192         3
        10        14        15        16     9      180.000000       -0.215560         4
        10        14        15        34     9        0.000000       -0.086046         1
        10        14        15        34     9      180.000000       12.621826         2
        10        14        15        34     9        0.000000       -0.312532         3
        10        14        15        34     9      180.000000        0.160165         4
        10        14        19        18     9        0.000000        0.026860         1
        10        14        19        18     9      180.000000       15.135600         2
        10        14        19        18     9        0.000000       -0.170192         3
        10        14        19        18     9      180.000000       -0.215560         4
        10        14        19        37     9        0.000000       -0.086046         1
        10        14        19        37     9      180.000000       12.621826         2
        10        14        19        37     9        0.000000       -0.312532         3
        10        14        19        37     9      180.000000        0.160165         4
        12         1         2        26     9        0.000000        0.174342         1
        12         1         2        26     9      180.000000       12.985184         2
        12         1         2        26     9        0.000000       -0.138912         3
        12         1         2        26     9      180.000000        0.023221         4
        12         1         4        28     9        0.000000        0.116052         1
        12         1         4        28     9      180.000000       11.851675         2
        12         1         4        28     9        0.000000       -0.229833         3
        12         1         4        28     9      180.000000       -0.052428         4
        13        12        11        32     9        0.000000        1.520035         1
        13        12        11        32     9      180.000000       10.242346         2
        13        12        11        32     9        0.000000       -0.055915         3
        13        12        11        32     9      180.000000       -0.709907         4
        13        12        11        33     9        0.000000        1.520035         1
        13        12        11        33     9      180.000000       10.242344         2
        13        12        11        33     9        0.000000       -0.055915         3
        13        12        11        33     9      180.000000       -0.709906         4
        14        15        16        17     9        0.000000       -0.033501         1
        14        15        16        17     9      180.000000       18.361802         2
        14        15        16        17     9        0.000000       -1.382122         3
        14        15        16        17     9      180.000000       -0.333748         4
        14        15        16        35     9        0.000000        0.009019         1
        14        15        16        35     9      180.000000       15.117731         2
        14        15        16        35     9        0.000000       -0.652997         3
        14        15        16        35     9      180.000000        0.089353         4
        14        19        18        17     9        0.000000       -0.033501         1
        14        19        18        17     9      180.000000       18.361802         2
        14        19        18        17     9        0.000000       -1.382122         3
        14        19        18        17     9      180.000000       -0.333748         4
        14        19        18        36     9        0.000000        0.009019         1
        14        19        18        36     9      180.000000       15.117731         2
        14        19        18        36     9        0.000000       -0.652997         3
        14        19        18        36     9      180.000000        0.089353         4
        15        14        10        30     9        0.000000        0.026652         1
        15        14        10        30     9      180.000000        0.014947         2
        15        14        10        30     9        0.000000        0.013547         3
        15        14        10        30     9      180.000000        0.009027         4
        15        14        10        31     9        0.000000        0.026652         1
        15        14        10        31     9      180.000000        0.014947         2
        15        14        10        31     9        0.000000        0.013547         3
        15        14        10        31     9      180.000000        0.009027         4
        15        14        19        18     9        0.000000       -0.017692         1
        15        14        19        18     9      180.000000       18.652768         2
        15        14        19        18     9        0.000000       -1.225804         3
        15        14        19        18     9      180.000000       -0.466466         4
        15        14        19        37     9        0.000000        0.019722         1
        15        14        19        37     9      180.000000       14.478142         2
        15        14        19        37     9        0.000000       -0.483578         3
        15        14        19        37     9      180.000000        0.000311         4
        15        16        17        18     9        0.000000       -0.080966         1
        15        16        17        18     9      180.000000       18.153112         2
        15        16        17        18     9        0.000000       -1.373641         3
        15        16        17        18     9      180.000000       -0.356348         4
        15        16        17        20     9        0.000000        0.345560         1
        15        16        17        20     9      180.000000       16.650203         2
        15        16        17        20     9        0.000000       -0.115710         3
        15        16        17        20     9      180.000000       -0.388262         4
        16        15        14        19     9        0.000000       -0.017692         1
        16        15        14        19     9      180.000000       18.652768         2
        16        15        14        19     9        0.000000       -1.225804         3
        16        15        14        19     9      180.000000       -0.466466         4
        16        17        18        19     9        0.000000       -0.080966         1
        16        17        18        19     9      180.000000       18.153112         2
        16        17        18        19     9        0.000000       -1.373641         3
        16        17        18        19     9      180.000000       -0.356348         4
        16        17        18        36     9        0.000000       -0.122536         1
        16        17        18        36     9      180.000000       13.854594         2
        16        17        18        36     9        0.000000       -0.550856         3
        16        17        18        36     9      180.000000        0.073352         4
        16        17        20        21     9        0.000000        0.226385         1
        16        17        20        21     9      180.000000        2.444068         2
        16        17        20        21     9        0.000000        0.075300         3
        16        17        20        21     9      180.000000       -0.310311         4
        16        17        20        24     9        0.000000       -0.000290         1
        16        17        20        24     9      180.000000        2.079647         2
        16        17        20        24     9        0.000000       -0.058953         3
        16        17        20        24     9      180.000000       -0.243068         4
        17        16        15        34     9        0.000000       -0.019661         1
        17        16        15        34     9      180.000000       14.564298         2
        17        16        15        34     9        0.000000       -0.438149         3
        17        16        15        34     9      180.000000        0.148899         4
        17        18        19        37     9        0.000000       -0.019661         1
        17        18        19        37     9      180.000000       14.564298         2
        17        18        19        37     9        0.000000       -0.438149         3
        17        18        19        37     9      180.000000        0.148899         4
        17        20        21        22     9        0.000000        0.183654         1
        17        20        21        22     9      180.000000       16.330189         2
        17        20        21        22     9        0.000000       -0.168639         3
        17        20        21        22     9      180.000000       -0.945094         4
        17        20        21        38     9        0.000000       -0.192731         1
        17        20        21        38     9      180.000000       10.764578         2
        17        20        21        38     9        0.000000       -0.137823         3
        17        20        21        38     9      180.000000       -0.003216         4
        17        20        24        23     9        0.000000        0.388882         1
        17        20        24        23     9      180.000000       15.245300         2
        17        20        24        23     9        0.000000       -0.357892         3
        17        20        24        23     9      180.000000       -0.981862         4
        17        20        24        39     9        0.000000       -0.157976         1
        17        20        24        39     9      180.000000       10.350387         2
        17        20        24        39     9        0.000000       -0.025512         3
        17        20        24        39     9      180.000000        0.047764         4
        18        17        16        35     9        0.000000       -0.122536         1
        18        17        16        35     9      180.000000       13.854594         2
        18        17        16        35     9        0.000000       -0.550856         3
        18        17        16        35     9      180.000000        0.073352         4
        18        17        20        21     9        0.000000        0.226385         1
        18        17        20        21     9      180.000000        2.444068         2
        18        17        20        21     9        0.000000        0.075300         3
        18        17        20        21     9      180.000000       -0.310311         4
        18        17        20        24     9        0.000000       -0.000290         1
        18        17        20        24     9      180.000000        2.079647         2
        18        17        20        24     9        0.000000       -0.058953         3
        18        17        20        24     9      180.000000       -0.243068         4
        19        14        10        30     9        0.000000        0.026652         1
        19        14        10        30     9      180.000000        0.014947         2
        19        14        10        30     9        0.000000        0.013547         3
        19        14        10        30     9      180.000000        0.009027         4
        19        14        10        31     9        0.000000        0.026652         1
        19        14        10        31     9      180.000000        0.014947         2
        19        14        10        31     9        0.000000        0.013547         3
        19        14        10        31     9      180.000000        0.009027         4
        19        14        15        34     9        0.000000        0.019722         1
        19        14        15        34     9      180.000000       14.478142         2
        19        14        15        34     9        0.000000       -0.483578         3
        19        14        15        34     9      180.000000        0.000311         4
        19        18        17        20     9        0.000000        0.345560         1
        19        18        17        20     9      180.000000       16.650203         2
        19        18        17        20     9        0.000000       -0.115710         3
        19        18        17        20     9      180.000000       -0.388262         4
        20        17        16        35     9        0.000000        0.146898         1
        20        17        16        35     9      180.000000       13.479040         2
        20        17        16        35     9        0.000000       -0.087547         3
        20        17        16        35     9      180.000000        0.132717         4
        20        17        18        36     9        0.000000        0.146898         1
        20        17        18        36     9      180.000000       13.479040         2
        20        17        18        36     9        0.000000       -0.087547         3
        20        17        18        36     9      180.000000        0.132717         4
        20        21        22        23     9        0.000000       -0.009121         1
        20        21        22        23     9      180.000000       30.745143         2
        20        21        22        23     9        0.000000       -6.250989         3
        20        21        22        23     9      180.000000       -0.578339         4
        20        21        22        25     9        0.000000        0.805846         1
        20        21        22        25     9      180.000000        7.183529         2
        20        21        22        25     9        0.000000        0.904760         3
        20        21        22        25     9      180.000000       -0.006099         4
        20        24        23        22     9        0.000000       -0.003186         1
        20        24        23        22     9      180.000000       40.723745         2
        20        24        23        22     9        0.000000       -5.801976         3
        20        24        23        22     9      180.000000       -0.138215         4
        21        20        24        23     9        0.000000       -0.184320         1
        21        20        24        23     9      180.000000       30.518446         2
        21        20        24        23     9        0.000000       -8.302201         3
        21        20        24        23     9      180.000000        0.056566         4
        21        20        24        39     9        0.000000        0.182829         1
        21        20        24        39     9      180.000000       14.435367         2
        21        20        24        39     9        0.000000       -0.577633         3
        21        20        24        39     9      180.000000       -0.486645         4
        21        22        23        24     9        0.000000       -0.276705         1
        21        22        23        24     9      180.000000       27.814030         2
        21        22        23        24     9        0.000000       -4.425872         3
        21        22        23        24     9      180.000000        0.073279         4
        21        22        25        40     9        0.000000       -0.025033         1
        21        22        25        40     9      180.000000       -0.009391         2
        21        22        25        40     9        0.000000        0.181958         3
        21        22        25        40     9      180.000000        0.012892         4
        21        22        25        41     9        0.000000       -0.025033         1
        21        22        25        41     9      180.000000       -0.009391         2
        21        22        25        41     9        0.000000        0.181958         3
        21        22        25        41     9      180.000000        0.012892         4
        21        22        25        42     9        0.000000       -0.025033         1
        21        22        25        42     9      180.000000       -0.009391         2
        21        22        25        42     9        0.000000        0.181958         3
        21        22        25        42     9      180.000000        0.012892         4
        22        21        20        24     9        0.000000       -0.206975         1
        22        21        20        24     9      180.000000       30.618723         2
        22        21        20        24     9        0.000000       -8.507332         3
        22        21        20        24     9      180.000000       -0.023862         4
        22        23        24        39     9        0.000000        1.030700         1
        22        23        24        39     9      180.000000       28.071179         2
        22        23        24        39     9        0.000000       -0.182233         3
        22        23        24        39     9      180.000000       -0.061982         4
        23        22        21        38     9        0.000000        1.067262         1
        23        22        21        38     9      180.000000       12.367244         2
        23        22        21        38     9        0.000000        0.213521         3
        23        22        21        38     9      180.000000       -0.400032         4
        23        22        25        40     9        0.000000       -0.002235         1
        23        22        25        40     9      180.000000        0.002811         2
        23        22        25        40     9        0.000000        0.198678         3
        23        22        25        40     9      180.000000        0.004453         4
        23        22        25        41     9        0.000000       -0.002235         1
        23        22        25        41     9      180.000000        0.002811         2
        23        22        25        41     9        0.000000        0.198678         3
        23        22        25        41     9      180.000000        0.004453         4
        23        22        25        42     9        0.000000       -0.002235         1
        23        22        25        42     9      180.000000        0.002811         2
        23        22        25        42     9        0.000000        0.198678         3
        23        22        25        42     9      180.000000        0.004453         4
        24        20        21        38     9        0.000000        0.010233         1
        24        20        21        38     9      180.000000       13.254580         2
        24        20        21        38     9        0.000000       -0.641024         3
        24        20        21        38     9      180.000000       -0.261572         4
        24        23        22        25     9        0.000000        0.586693         1
        24        23        22        25     9      180.000000       10.298365         2
        24        23        22        25     9        0.000000        0.792012         3
        24        23        22        25     9      180.000000       -0.113382         4
        25        22        21        38     9        0.000000       -0.493730         1
        25        22        21        38     9      180.000000        3.995450         2
        25        22        21        38     9        0.000000        0.087170         3
        25        22        21        38     9      180.000000        0.043642         4
        27         3         4        28     9        0.000000       -0.055355         1
        27         3         4        28     9      180.000000       12.568237         2
        27         3         4        28     9        0.000000       -0.658289         3
        27         3         4        28     9      180.000000        0.287260         4
        34        15        16        35     9        0.000000       -0.173269         1
        34        15        16        35     9      180.000000       12.433055         2
        34        15        16        35     9        0.000000       -0.660707         3
        34        15        16        35     9      180.000000        0.303153         4
        36        18        19        37     9        0.000000       -0.173269         1
        36        18        19        37     9      180.000000       12.433055         2
        36        18        19        37     9        0.000000       -0.660707         3
        36        18        19        37     9      180.000000        0.303153         4

[ dihedrals ] ; impropers
;       ai        aj        ak        al funct           phase               k        pn
         2         1         6        26     4      180.000000        0.316643         2
         2         6        26         1     4      180.000000        0.316643         2
         2        26         1         6     4      180.000000        0.316643         2
        12         1        11        13     4      180.000000       26.054467         2
        12        11        13         1     4      180.000000       26.054467         2
        12        13         1        11     4      180.000000       26.054467         2
        15        14        16        34     4      180.000000        1.374161         2
        15        16        34        14     4      180.000000        1.374161         2
        15        34        14        16     4      180.000000        1.374161         2
        19        14        18        37     4      180.000000        1.374160         2
        19        18        37        14     4      180.000000        1.374160         2
        19        37        14        18     4      180.000000        1.374160         2

[ pairs ]
;       ai        aj funct
         1         5     1
         1         7     1
         1        27     1
         1        32     1
         1        33     1
         2         3     1
         2         8     1
         2         9     1
         2        10     1
         2        11     1
         2        13     1
         2        28     1
         3         7     1
         3         8     1
         3        12     1
         3        29     1
         4         6     1
         4         9     1
         4        11     1
         4        13     1
         4        26     1
         5        10     1
         5        26     1
         5        28     1
         6        12     1
         6        14     1
         6        27     1
         6        29     1
         6        30     1
         6        31     1
         7        15     1
         7        19     1
         7        26     1
         7        29     1
         8        14     1
         8        30     1
         8        31     1
         9        10     1
         9        27     1
        10        16     1
        10        18     1
        10        34     1
        10        37     1
        12        26     1
        12        28     1
        13        32     1
        13        33     1
        14        17     1
        14        35     1
        14        36     1
        15        18     1
        15        20     1
        15        30     1
        15        31     1
        15        37     1
        16        19     1
        16        21     1
        16        24     1
        16        36     1
        17        22     1
        17        23     1
        17        34     1
        17        37     1
        17        38     1
        17        39     1
        18        21     1
        18        24     1
        18        35     1
        19        20     1
        19        30     1
        19        31     1
        19        34     1
        20        25     1
        20        35     1
        20        36     1
        21        39     1
        21        40     1
        21        41     1
        21        42     1
        22        39     1
        23        38     1
        23        40     1
        23        41     1
        23        42     1
        24        25     1
        24        38     1
        25        38     1
        27        28     1
        34        35     1
        36        37     1
