; ITP file created by ByteFF-ML, 2026-02-21 07:36:04.847942

[ atomtypes ]
;name           bonded.type        at.num        mass        charge   ptype           sigma         epsilon
 c0bf                                   6      0.0000       0.00000       A     3.31413e-01     4.12772e-01
 c1bf                                   6      0.0000       0.00000       A     3.31389e-01     4.13921e-01
 c2bf                                   6      0.0000       0.00000       A     3.31517e-01     4.12482e-01
 c3bf                                   6      0.0000       0.00000       A     3.31523e-01     4.12708e-01
 c4bf                                   6      0.0000       0.00000       A     3.31529e-01     4.12453e-01
 c5bf                                   6      0.0000       0.00000       A     3.31500e-01     4.11950e-01
 c6bf                                   6      0.0000       0.00000       A     3.31450e-01     4.11740e-01
 n7bf                                   7      0.0000       0.00000       A     3.38151e-01     3.91342e-01
 n8bf                                   7      0.0000       0.00000       A     3.20440e-01     8.58154e-01
 c9bf                                   6      0.0000       0.00000       A     3.39892e-01     4.51463e-01
 n10bf                                  7      0.0000       0.00000       A     3.27019e-01     4.93485e-01
 c11bf                                  6      0.0000       0.00000       A     3.31393e-01     4.12704e-01
 o12bf                                  8      0.0000       0.00000       A     3.04662e-01     6.12541e-01
 c13bf                                  6      0.0000       0.00000       A     3.31526e-01     4.13182e-01
 c14bf                                  6      0.0000       0.00000       A     3.31408e-01     4.13210e-01
 c15bf                                  6      0.0000       0.00000       A     3.31502e-01     4.12536e-01
 c16bf                                  6      0.0000       0.00000       A     3.31322e-01     4.13227e-01
 c17bf                                  6      0.0000       0.00000       A     3.31502e-01     4.12536e-01
 c18bf                                  6      0.0000       0.00000       A     3.31408e-01     4.13210e-01
 c19bf                                  6      0.0000       0.00000       A     3.31350e-01     4.11687e-01
 c20bf                                  6      0.0000       0.00000       A     3.31475e-01     4.11821e-01
 n21bf                                  7      0.0000       0.00000       A     3.20558e-01     8.54076e-01
 n22bf                                  7      0.0000       0.00000       A     3.38391e-01     3.93249e-01
 c23bf                                  6      0.0000       0.00000       A     3.31594e-01     4.13789e-01
 c24bf                                  6      0.0000       0.00000       A     3.39839e-01     4.51932e-01
 c25bf                                  6      0.0000       0.00000       A     3.39830e-01     4.50977e-01
 c26bf                                  6      0.0000       0.00000       A     3.39758e-01     4.52328e-01
 c27bf                                  6      0.0000       0.00000       A     3.39758e-01     4.52328e-01
 h28bf                                  1      0.0000       0.00000       A     2.62417e-01     6.67524e-02
 h29bf                                  1      0.0000       0.00000       A     2.62471e-01     6.70892e-02
 h30bf                                  1      0.0000       0.00000       A     2.62589e-01     6.73302e-02
 h31bf                                  1      0.0000       0.00000       A     1.10602e-01     4.12983e-02
 h32bf                                  1      0.0000       0.00000       A     2.60090e-01     8.80823e-02
 h33bf                                  1      0.0000       0.00000       A     2.60090e-01     8.80823e-02
 h34bf                                  1      0.0000       0.00000       A     1.10430e-01     3.92537e-02
 h35bf                                  1      0.0000       0.00000       A     2.62498e-01     6.75473e-02
 h36bf                                  1      0.0000       0.00000       A     2.62482e-01     6.74643e-02
 h37bf                                  1      0.0000       0.00000       A     2.62482e-01     6.74643e-02
 h38bf                                  1      0.0000       0.00000       A     2.62498e-01     6.75473e-02
 h39bf                                  1      0.0000       0.00000       A     2.53807e-01     6.74898e-02
 h40bf                                  1      0.0000       0.00000       A     2.53933e-01     6.69200e-02
 h41bf                                  1      0.0000       0.00000       A     2.41990e-01     8.77359e-02
 h42bf                                  1      0.0000       0.00000       A     2.41990e-01     8.77359e-02
 h43bf                                  1      0.0000       0.00000       A     2.41990e-01     8.77359e-02
 h44bf                                  1      0.0000       0.00000       A     2.41922e-01     8.52684e-02
 h45bf                                  1      0.0000       0.00000       A     2.60087e-01     8.68357e-02
 h46bf                                  1      0.0000       0.00000       A     2.60087e-01     8.68357e-02
 h47bf                                  1      0.0000       0.00000       A     2.60087e-01     8.68357e-02
 h48bf                                  1      0.0000       0.00000       A     2.60087e-01     8.68357e-02

[ moleculetype ]
;name             nrexcl
 33                    3

[ atoms ]
;       nr            type      resi   res      atom      cgnr      charge          mass ; qtot
         1            c0bf         1   UNL        c0         1    -0.19364       12.0110 ; qtot   -0.194
         2            c1bf         1   UNL        c1         2     0.01756       12.0110 ; qtot   -0.176
         3            c2bf         1   UNL        c2         3    -0.14907       12.0110 ; qtot   -0.325
         4            c3bf         1   UNL        c3         4    -0.03942       12.0110 ; qtot   -0.365
         5            c4bf         1   UNL        c4         5    -0.00053       12.0110 ; qtot   -0.365
         6            c5bf         1   UNL        c5         6    -0.23498       12.0110 ; qtot   -0.600
         7            c6bf         1   UNL        c6         7     0.35947       12.0110 ; qtot   -0.241
         8            n7bf         1   UNL        n7         8    -0.50659       14.0070 ; qtot   -0.747
         9            n8bf         1   UNL        n8         9    -0.08032       14.0070 ; qtot   -0.828
        10            c9bf         1   UNL        c9        10    -0.03975       12.0110 ; qtot   -0.867
        11           n10bf         1   UNL       n10        11    -0.48424       14.0070 ; qtot   -1.352
        12           c11bf         1   UNL       c11        12     0.61256       12.0110 ; qtot   -0.739
        13           o12bf         1   UNL       o12        13    -0.59504       15.9990 ; qtot   -1.334
        14           c13bf         1   UNL       c13        14    -0.08002       12.0110 ; qtot   -1.414
        15           c14bf         1   UNL       c14        15    -0.10203       12.0110 ; qtot   -1.516
        16           c15bf         1   UNL       c15        16    -0.11007       12.0110 ; qtot   -1.626
        17           c16bf         1   UNL       c16        17     0.00438       12.0110 ; qtot   -1.622
        18           c17bf         1   UNL       c17        18    -0.11007       12.0110 ; qtot   -1.732
        19           c18bf         1   UNL       c18        19    -0.10203       12.0110 ; qtot   -1.834
        20           c19bf         1   UNL       c19        20    -0.16403       12.0110 ; qtot   -1.998
        21           c20bf         1   UNL       c20        21    -0.14400       12.0110 ; qtot   -2.142
        22           n21bf         1   UNL       n21        22     0.11171       14.0070 ; qtot   -2.030
        23           n22bf         1   UNL       n22        23    -0.52174       14.0070 ; qtot   -2.552
        24           c23bf         1   UNL       c23        24     0.25349       12.0110 ; qtot   -2.298
        25           c24bf         1   UNL       c24        25     0.07027       12.0110 ; qtot   -2.228
        26           c25bf         1   UNL       c25        26     0.03611       12.0110 ; qtot   -2.192
        27           c26bf         1   UNL       c26        27    -0.13142       12.0110 ; qtot   -2.323
        28           c27bf         1   UNL       c27        28    -0.13142       12.0110 ; qtot   -2.455
        29           h28bf         1   UNL       h28        29     0.13764        1.0080 ; qtot   -2.317
        30           h29bf         1   UNL       h29        30     0.12872        1.0080 ; qtot   -2.188
        31           h30bf         1   UNL       h30        31     0.12762        1.0080 ; qtot   -2.061
        32           h31bf         1   UNL       h31        32     0.37621        1.0080 ; qtot   -1.685
        33           h32bf         1   UNL       h32        33     0.06255        1.0080 ; qtot   -1.622
        34           h33bf         1   UNL       h33        34     0.06255        1.0080 ; qtot   -1.560
        35           h34bf         1   UNL       h34        35     0.31673        1.0080 ; qtot   -1.243
        36           h35bf         1   UNL       h35        36     0.11797        1.0080 ; qtot   -1.125
        37           h36bf         1   UNL       h36        37     0.11784        1.0080 ; qtot   -1.007
        38           h37bf         1   UNL       h37        38     0.11784        1.0080 ; qtot   -0.889
        39           h38bf         1   UNL       h38        39     0.11797        1.0080 ; qtot   -0.771
        40           h39bf         1   UNL       h39        40     0.15375        1.0080 ; qtot   -0.617
        41           h40bf         1   UNL       h40        41     0.03800        1.0080 ; qtot   -0.579
        42           h41bf         1   UNL       h41        42     0.05817        1.0080 ; qtot   -0.521
        43           h42bf         1   UNL       h42        43     0.05817        1.0080 ; qtot   -0.463
        44           h43bf         1   UNL       h43        44     0.05817        1.0080 ; qtot   -0.405
        45           h44bf         1   UNL       h44        45     0.08714        1.0080 ; qtot   -0.318
        46           h45bf         1   UNL       h45        46     0.07945        1.0080 ; qtot   -0.238
        47           h46bf         1   UNL       h46        47     0.07945        1.0080 ; qtot   -0.159
        48           h47bf         1   UNL       h47        48     0.07945        1.0080 ; qtot   -0.079
        49           h48bf         1   UNL       h48        49     0.07947        1.0080 ; qtot   -0.000

[ bonds ]
;       ai        aj funct               r               k
         1         2     1        0.139368   311689.689893
         1         4     1        0.142224   260996.152832
         1        12     1        0.150069   175762.449561
         2         6     1        0.140337   306533.926270
         2        29     1        0.108521   322062.327441
         3         4     1        0.138637   346637.198535
         3         5     1        0.140635   300350.677051
         3        30     1        0.108557   321190.184082
         4        31     1        0.108487   321968.478564
         5         6     1        0.141869   251815.842920
         5         9     1        0.136842   290575.199268
         6         7     1        0.143787   232823.613770
         7         8     1        0.132649   371345.986230
         7        10     1        0.150274   213625.644897
         8         9     1        0.136401   241851.313916
         9        32     1        0.100927   434980.632227
        10        14     1        0.151889   191838.442969
        10        33     1        0.109486   294999.682227
        10        34     1        0.109486   294999.682227
        11        12     1        0.137511   283951.766895
        11        26     1        0.143897   233005.335840
        11        35     1        0.101078   422856.659717
        12        13     1        0.123278   594079.224121
        14        15     1        0.140132   290757.355469
        14        19     1        0.140132   290757.355469
        15        16     1        0.139531   320296.512939
        15        36     1        0.108704   315886.049854
        16        17     1        0.140685   283825.179443
        16        37     1        0.108584   318696.102295
        17        18     1        0.140685   283825.179443
        17        20     1        0.146859   235591.683203
        18        19     1        0.139531   320296.512939
        18        38     1        0.108584   318696.102295
        19        39     1        0.108704   315886.075391
        20        21     1        0.139499   320805.390918
        20        24     1        0.142378   259368.136572
        21        22     1        0.135856   314480.283057
        21        40     1        0.108071   337590.039111
        22        23     1        0.135354   242037.913574
        22        25     1        0.145314   224810.528516
        23        24     1        0.133400   358572.221973
        24        41     1        0.108233   332445.307520
        25        42     1        0.109196   305692.172070
        25        43     1        0.109196   305692.172070
        25        44     1        0.109196   305692.172070
        26        27     1        0.151064   198502.096289
        26        28     1        0.151064   198502.096289
        26        45     1        0.108727   315023.457373
        27        28     1        0.151597   196473.913525
        27        46     1        0.108486   323134.732813
        27        47     1        0.108486   323134.732813
        28        48     1        0.108486   323134.732813
        28        49     1        0.108486   323134.707275

[ angles ]
;       ai        aj        ak funct           theta             cth
         1         2         6     1      118.817116      665.429972
         1         2        29     1      120.120987      399.494240
         1         4         3     1      122.063309      616.359777
         1         4        31     1      118.810013      416.715828
         1        12        11     1      116.025597      494.650904
         1        12        13     1      121.919968      638.474914
         2         1         4     1      120.134789      614.723998
         2         1        12     1      119.586746      512.051220
         2         6         5     1      119.760208      753.236322
         2         6         7     1      135.523468      435.525345
         3         4        31     1      119.253296      406.815282
         3         5         6     1      121.826454      612.816631
         3         5         9     1      132.490311      480.939423
         4         1        12     1      120.195236      576.986535
         4         3         5     1      117.057335      763.302986
         4         3        30     1      121.182030      439.631393
         5         3        30     1      121.912209      436.763288
         5         6         7     1      104.808472      488.138877
         5         9         8     1      112.338623      425.015069
         5         9        32     1      128.734390      380.960906
         6         2        29     1      120.994911      407.829839
         6         5         9     1      105.797852      167.360000
         6         7         8     1      110.702805      353.792805
         6         7        10     1      127.833115      446.834709
         7         8         9     1      106.500710      544.611736
         7        10        14     1      113.105606      519.623132
         7        10        33     1      108.500137      514.066289
         7        10        34     1      108.500137      514.066289
         8         7        10     1      121.625832      449.673829
         8         9        32     1      118.789017      482.596877
        10        14        15     1      120.885033      486.548234
        10        14        19     1      120.885033      486.548234
        11        12        13     1      122.099182      593.619556
        11        26        27     1      118.748642      474.894726
        11        26        28     1      118.748642      474.894726
        11        26        45     1      114.523499      398.366712
        12        11        26     1      121.605591      516.342539
        12        11        35     1      118.325584      402.256525
        14        10        33     1      109.614029      493.993834
        14        10        34     1      109.614029      493.993834
        14        15        16     1      120.959518      705.842064
        14        15        36     1      119.502907      394.245725
        14        19        18     1      120.959518      705.842064
        14        19        39     1      119.502907      394.245725
        15        14        19     1      118.250145      711.225989
        15        16        17     1      121.013084      708.028679
        15        16        37     1      119.370682      427.621195
        16        15        36     1      119.522682      426.792643
        16        17        18     1      117.633606      614.164480
        16        17        20     1      121.173790      498.107383
        17        16        37     1      119.674911      429.339523
        17        18        19     1      121.013084      708.028679
        17        18        38     1      119.674911      429.339523
        17        20        21     1      127.875488      501.485943
        17        20        24     1      128.618073      539.877859
        18        17        20     1      121.173790      498.107383
        18        19        39     1      119.522682      426.792643
        19        18        38     1      119.370682      427.621195
        20        21        22     1      107.253334      167.360000
        20        21        40     1      131.309311      330.526743
        20        24        23     1      111.985497      241.969059
        20        24        41     1      128.583298      361.836739
        21        20        24     1      103.527756      370.968905
        21        22        23     1      112.317947      213.505126
        21        22        25     1      128.036591      424.086540
        22        21        40     1      121.687912      464.045636
        22        23        24     1      104.970238      567.675768
        22        25        42     1      109.593666      496.372137
        22        25        43     1      109.593666      496.372137
        22        25        44     1      109.593666      496.372137
        23        22        25     1      119.401001      615.866145
        23        24        41     1      119.394226      391.030699
        26        11        35     1      117.543114      407.776626
        26        27        28     1       59.935497      167.360000
        26        27        46     1      117.310379      382.577405
        26        27        47     1      117.310379      382.577405
        26        28        27     1       59.935497      167.360000
        26        28        48     1      117.310379      382.577405
        26        28        49     1      117.310379      382.577405
        27        26        28     1       60.293091      167.360000
        27        26        45     1      117.194580      350.914677
        27        28        48     1      118.140297      373.773646
        27        28        49     1      118.140297      373.773646
        28        26        45     1      117.194580      350.914677
        28        27        46     1      118.140297      373.773646
        28        27        47     1      118.140297      373.773646
        33        10        34     1      106.967346      364.175843
        42        25        43     1      109.444870      349.033358
        42        25        44     1      109.444870      349.033358
        43        25        44     1      109.444870      349.033358
        46        27        47     1      115.026657      308.290177
        48        28        49     1      115.026657      308.290177

[ dihedrals ] ; propers for gromacs 4.5 or higher, use funct 9
;       ai        aj        ak        al funct           phase               k        pn
         1         2         6         5     9        0.000000       -0.059087         1
         1         2         6         5     9      180.000000       19.627316         2
         1         2         6         5     9        0.000000       -2.339768         3
         1         2         6         5     9      180.000000       -0.489473         4
         1         2         6         7     9        0.000000       -0.353680         1
         1         2         6         7     9      180.000000       14.062667         2
         1         2         6         7     9        0.000000       -1.014600         3
         1         2         6         7     9      180.000000       -0.264259         4
         1         4         3         5     9        0.000000       -0.113460         1
         1         4         3         5     9      180.000000       22.271308         2
         1         4         3         5     9        0.000000       -1.524406         3
         1         4         3         5     9      180.000000       -0.681996         4
         1         4         3        30     9        0.000000        0.031480         1
         1         4         3        30     9      180.000000       14.768974         2
         1         4         3        30     9        0.000000       -0.463484         3
         1         4         3        30     9      180.000000        0.125784         4
         1        12        11        26     9        0.000000        1.705928         1
         1        12        11        26     9      180.000000       10.528781         2
         1        12        11        26     9        0.000000        1.271285         3
         1        12        11        26     9      180.000000        0.119847         4
         1        12        11        35     9        0.000000       -0.672318         1
         1        12        11        35     9      180.000000        9.615594         2
         1        12        11        35     9        0.000000        0.902122         3
         1        12        11        35     9      180.000000        0.188798         4
         2         1         4         3     9        0.000000        0.070259         1
         2         1         4         3     9      180.000000       16.974305         2
         2         1         4         3     9        0.000000       -1.222502         3
         2         1         4         3     9      180.000000       -0.344627         4
         2         1         4        31     9        0.000000        0.052744         1
         2         1         4        31     9      180.000000       12.730056         2
         2         1         4        31     9        0.000000       -0.655729         3
         2         1         4        31     9      180.000000        0.083510         4
         2         1        12        11     9        0.000000       -0.481215         1
         2         1        12        11     9      180.000000        2.963363         2
         2         1        12        11     9        0.000000        0.237604         3
         2         1        12        11     9      180.000000       -0.455322         4
         2         1        12        13     9        0.000000        0.516100         1
         2         1        12        13     9      180.000000        3.643641         2
         2         1        12        13     9        0.000000        0.028562         3
         2         1        12        13     9      180.000000       -0.006535         4
         2         6         5         3     9        0.000000       -0.267242         1
         2         6         5         3     9      180.000000       10.537823         2
         2         6         5         3     9        0.000000       -1.562511         3
         2         6         5         3     9      180.000000       -0.059345         4
         2         6         5         9     9        0.000000        0.322950         1
         2         6         5         9     9      180.000000        8.861308         2
         2         6         5         9     9        0.000000       -1.859093         3
         2         6         5         9     9      180.000000        0.118215         4
         2         6         7         8     9        0.000000       -0.196706         1
         2         6         7         8     9      180.000000        4.000281         2
         2         6         7         8     9        0.000000       -0.832860         3
         2         6         7         8     9      180.000000        0.038882         4
         2         6         7        10     9        0.000000       -0.430034         1
         2         6         7        10     9      180.000000        4.307912         2
         2         6         7        10     9        0.000000        0.231251         3
         2         6         7        10     9      180.000000        0.068886         4
         3         4         1        12     9        0.000000        0.186207         1
         3         4         1        12     9      180.000000       13.213066         2
         3         4         1        12     9        0.000000       -0.116428         3
         3         4         1        12     9      180.000000       -0.313399         4
         3         5         6         7     9        0.000000       -0.012435         1
         3         5         6         7     9      180.000000       11.284136         2
         3         5         6         7     9        0.000000       -2.379227         3
         3         5         6         7     9      180.000000       -0.022364         4
         3         5         9         8     9        0.000000        1.388441         1
         3         5         9         8     9      180.000000        5.518131         2
         3         5         9         8     9        0.000000        0.436876         3
         3         5         9         8     9      180.000000       -0.035399         4
         3         5         9        32     9        0.000000       -0.166869         1
         3         5         9        32     9      180.000000        1.510508         2
         3         5         9        32     9        0.000000        0.105208         3
         3         5         9        32     9      180.000000       -0.109495         4
         4         1         2         6     9        0.000000       -0.098222         1
         4         1         2         6     9      180.000000       20.762753         2
         4         1         2         6     9        0.000000       -1.579228         3
         4         1         2         6     9      180.000000       -0.639842         4
         4         1         2        29     9        0.000000        0.082397         1
         4         1         2        29     9      180.000000       14.854897         2
         4         1         2        29     9        0.000000       -0.451353         3
         4         1         2        29     9      180.000000       -0.031788         4
         4         1        12        11     9        0.000000        0.112115         1
         4         1        12        11     9      180.000000        3.152925         2
         4         1        12        11     9        0.000000        0.220595         3
         4         1        12        11     9      180.000000       -0.429372         4
         4         1        12        13     9        0.000000       -0.492868         1
         4         1        12        13     9      180.000000        3.864517         2
         4         1        12        13     9        0.000000        0.069284         3
         4         1        12        13     9      180.000000        0.014334         4
         4         3         5         6     9        0.000000       -0.145135         1
         4         3         5         6     9      180.000000       16.987991         2
         4         3         5         6     9        0.000000       -1.863685         3
         4         3         5         6     9      180.000000       -0.341172         4
         4         3         5         9     9        0.000000        0.245186         1
         4         3         5         9     9      180.000000       13.450465         2
         4         3         5         9     9        0.000000       -0.032454         3
         4         3         5         9     9      180.000000       -0.101446         4
         5         3         4        31     9        0.000000        0.130122         1
         5         3         4        31     9      180.000000       17.244238         2
         5         3         4        31     9        0.000000       -0.515137         3
         5         3         4        31     9      180.000000       -0.110977         4
         5         6         2        29     9        0.000000        0.329406         1
         5         6         2        29     9      180.000000       14.430244         2
         5         6         2        29     9        0.000000       -0.302438         3
         5         6         2        29     9      180.000000       -0.199396         4
         5         6         7         8     9        0.000000       -0.158769         1
         5         6         7         8     9      180.000000       30.941356         2
         5         6         7         8     9        0.000000       -9.488855         3
         5         6         7         8     9      180.000000       -0.194582         4
         5         6         7        10     9        0.000000        0.905037         1
         5         6         7        10     9      180.000000       14.493631         2
         5         6         7        10     9        0.000000        0.102784         3
         5         6         7        10     9      180.000000       -0.591530         4
         5         9         8         7     9        0.000000       -0.211795         1
         5         9         8         7     9      180.000000       17.216046         2
         5         9         8         7     9        0.000000       -2.171080         3
         5         9         8         7     9      180.000000       -1.162629         4
         6         2         1        12     9        0.000000        0.144637         1
         6         2         1        12     9      180.000000       17.179655         2
         6         2         1        12     9        0.000000       -0.224064         3
         6         2         1        12     9      180.000000       -0.671519         4
         6         5         3        30     9        0.000000        0.120539         1
         6         5         3        30     9      180.000000       11.348855         2
         6         5         3        30     9        0.000000       -0.291248         3
         6         5         3        30     9      180.000000        0.001313         4
         6         5         9         8     9        0.000000        0.392748         1
         6         5         9         8     9      180.000000       24.691452         2
         6         5         9         8     9        0.000000       -5.027374         3
         6         5         9         8     9      180.000000       -1.038516         4
         6         5         9        32     9        0.000000        0.295809         1
         6         5         9        32     9      180.000000        1.575659         2
         6         5         9        32     9        0.000000        0.501314         3
         6         5         9        32     9      180.000000        0.027061         4
         6         7         8         9     9        0.000000       -0.266285         1
         6         7         8         9     9      180.000000       41.431550         2
         6         7         8         9     9        0.000000       -4.759238         3
         6         7         8         9     9      180.000000       -0.129972         4
         6         7        10        14     9        0.000000        0.317253         1
         6         7        10        14     9      180.000000       -0.413399         2
         6         7        10        14     9        0.000000        0.587270         3
         6         7        10        14     9      180.000000        0.020653         4
         6         7        10        33     9        0.000000       -0.066563         1
         6         7        10        33     9      180.000000        0.143377         2
         6         7        10        33     9        0.000000        0.524138         3
         6         7        10        33     9      180.000000        0.014895         4
         6         7        10        34     9        0.000000       -0.066563         1
         6         7        10        34     9      180.000000        0.143377         2
         6         7        10        34     9        0.000000        0.524138         3
         6         7        10        34     9      180.000000        0.014895         4
         7         6         2        29     9        0.000000       -0.037490         1
         7         6         2        29     9      180.000000        9.785359         2
         7         6         2        29     9        0.000000       -0.001634         3
         7         6         2        29     9      180.000000        0.053388         4
         7         6         5         9     9        0.000000        0.171340         1
         7         6         5         9     9      180.000000       17.413611         2
         7         6         5         9     9        0.000000       -6.321762         3
         7         6         5         9     9      180.000000       -0.232743         4
         7         8         9        32     9        0.000000        2.366235         1
         7         8         9        32     9      180.000000        2.975894         2
         7         8         9        32     9        0.000000        0.435105         3
         7         8         9        32     9      180.000000        0.026087         4
         7        10        14        15     9        0.000000       -0.162197         1
         7        10        14        15     9      180.000000        0.171147         2
         7        10        14        15     9        0.000000        0.114997         3
         7        10        14        15     9      180.000000        0.021335         4
         7        10        14        19     9        0.000000       -0.162197         1
         7        10        14        19     9      180.000000        0.171147         2
         7        10        14        19     9        0.000000        0.114997         3
         7        10        14        19     9      180.000000        0.021335         4
         8         7        10        14     9        0.000000       -0.862580         1
         8         7        10        14     9      180.000000       -0.216635         2
         8         7        10        14     9        0.000000        0.027906         3
         8         7        10        14     9      180.000000        0.006368         4
         8         7        10        33     9        0.000000        0.219474         1
         8         7        10        33     9      180.000000        0.093663         2
         8         7        10        33     9        0.000000       -0.190341         3
         8         7        10        33     9      180.000000        0.040522         4
         8         7        10        34     9        0.000000        0.219474         1
         8         7        10        34     9      180.000000        0.093663         2
         8         7        10        34     9        0.000000       -0.190341         3
         8         7        10        34     9      180.000000        0.040522         4
         9         5         3        30     9        0.000000       -0.114805         1
         9         5         3        30     9      180.000000        9.684382         2
         9         5         3        30     9        0.000000       -0.071654         3
         9         5         3        30     9      180.000000        0.059257         4
         9         8         7        10     9        0.000000        0.492327         1
         9         8         7        10     9      180.000000       32.362694         2
         9         8         7        10     9        0.000000        0.809139         3
         9         8         7        10     9      180.000000       -0.860767         4
        10        14        15        16     9        0.000000        0.026860         1
        10        14        15        16     9      180.000000       15.135600         2
        10        14        15        16     9        0.000000       -0.170192         3
        10        14        15        16     9      180.000000       -0.215560         4
        10        14        15        36     9        0.000000       -0.086046         1
        10        14        15        36     9      180.000000       12.621826         2
        10        14        15        36     9        0.000000       -0.312532         3
        10        14        15        36     9      180.000000        0.160165         4
        10        14        19        18     9        0.000000        0.026860         1
        10        14        19        18     9      180.000000       15.135600         2
        10        14        19        18     9        0.000000       -0.170192         3
        10        14        19        18     9      180.000000       -0.215560         4
        10        14        19        39     9        0.000000       -0.086046         1
        10        14        19        39     9      180.000000       12.621826         2
        10        14        19        39     9        0.000000       -0.312532         3
        10        14        19        39     9      180.000000        0.160165         4
        11        26        27        28     9        0.000000       60.441199         1
        11        26        27        28     9      180.000000        2.932683         2
        11        26        27        28     9        0.000000       -0.355882         3
        11        26        27        28     9      180.000000       14.725875         4
        11        26        27        46     9        0.000000        1.328404         1
        11        26        27        46     9      180.000000       -1.078452         2
        11        26        27        46     9        0.000000        0.111283         3
        11        26        27        46     9      180.000000        1.369713         4
        11        26        27        47     9        0.000000        1.328404         1
        11        26        27        47     9      180.000000       -1.078452         2
        11        26        27        47     9        0.000000        0.111283         3
        11        26        27        47     9      180.000000        1.369713         4
        11        26        28        27     9        0.000000       60.441199         1
        11        26        28        27     9      180.000000        2.932683         2
        11        26        28        27     9        0.000000       -0.355882         3
        11        26        28        27     9      180.000000       14.725875         4
        11        26        28        48     9        0.000000        1.328404         1
        11        26        28        48     9      180.000000       -1.078452         2
        11        26        28        48     9        0.000000        0.111283         3
        11        26        28        48     9      180.000000        1.369713         4
        11        26        28        49     9        0.000000        1.328404         1
        11        26        28        49     9      180.000000       -1.078452         2
        11        26        28        49     9        0.000000        0.111283         3
        11        26        28        49     9      180.000000        1.369713         4
        12         1         2        29     9        0.000000        0.136634         1
        12         1         2        29     9      180.000000       13.162669         2
        12         1         2        29     9        0.000000       -0.182366         3
        12         1         2        29     9      180.000000        0.039409         4
        12         1         4        31     9        0.000000        0.093568         1
        12         1         4        31     9      180.000000       12.055050         2
        12         1         4        31     9        0.000000       -0.268897         3
        12         1         4        31     9      180.000000        0.002003         4
        12        11        26        27     9        0.000000       -0.524148         1
        12        11        26        27     9      180.000000        0.098909         2
        12        11        26        27     9        0.000000        0.351987         3
        12        11        26        27     9      180.000000        0.191991         4
        12        11        26        28     9        0.000000       -0.524148         1
        12        11        26        28     9      180.000000        0.098909         2
        12        11        26        28     9        0.000000        0.351987         3
        12        11        26        28     9      180.000000        0.191991         4
        12        11        26        45     9        0.000000        0.517693         1
        12        11        26        45     9      180.000000        0.753180         2
        12        11        26        45     9        0.000000        0.551802         3
        12        11        26        45     9      180.000000       -0.047604         4
        13        12        11        26     9        0.000000       -2.405837         1
        13        12        11        26     9      180.000000        8.028083         2
        13        12        11        26     9        0.000000        0.297230         3
        13        12        11        26     9      180.000000       -0.388414         4
        13        12        11        35     9        0.000000        0.175512         1
        13        12        11        35     9      180.000000        9.905425         2
        13        12        11        35     9        0.000000        0.237716         3
        13        12        11        35     9      180.000000       -0.204130         4
        14        15        16        17     9        0.000000       -0.033501         1
        14        15        16        17     9      180.000000       18.361802         2
        14        15        16        17     9        0.000000       -1.382122         3
        14        15        16        17     9      180.000000       -0.333748         4
        14        15        16        37     9        0.000000        0.009019         1
        14        15        16        37     9      180.000000       15.117729         2
        14        15        16        37     9        0.000000       -0.652997         3
        14        15        16        37     9      180.000000        0.089352         4
        14        19        18        17     9        0.000000       -0.033501         1
        14        19        18        17     9      180.000000       18.361802         2
        14        19        18        17     9        0.000000       -1.382122         3
        14        19        18        17     9      180.000000       -0.333748         4
        14        19        18        38     9        0.000000        0.009019         1
        14        19        18        38     9      180.000000       15.117731         2
        14        19        18        38     9        0.000000       -0.652997         3
        14        19        18        38     9      180.000000        0.089353         4
        15        14        10        33     9        0.000000        0.026652         1
        15        14        10        33     9      180.000000        0.014947         2
        15        14        10        33     9        0.000000        0.013547         3
        15        14        10        33     9      180.000000        0.009027         4
        15        14        10        34     9        0.000000        0.026652         1
        15        14        10        34     9      180.000000        0.014947         2
        15        14        10        34     9        0.000000        0.013547         3
        15        14        10        34     9      180.000000        0.009027         4
        15        14        19        18     9        0.000000       -0.017692         1
        15        14        19        18     9      180.000000       18.652768         2
        15        14        19        18     9        0.000000       -1.225804         3
        15        14        19        18     9      180.000000       -0.466466         4
        15        14        19        39     9        0.000000        0.019722         1
        15        14        19        39     9      180.000000       14.478142         2
        15        14        19        39     9        0.000000       -0.483578         3
        15        14        19        39     9      180.000000        0.000311         4
        15        16        17        18     9        0.000000       -0.080966         1
        15        16        17        18     9      180.000000       18.153112         2
        15        16        17        18     9        0.000000       -1.373641         3
        15        16        17        18     9      180.000000       -0.356348         4
        15        16        17        20     9        0.000000        0.345560         1
        15        16        17        20     9      180.000000       16.650203         2
        15        16        17        20     9        0.000000       -0.115710         3
        15        16        17        20     9      180.000000       -0.388262         4
        16        15        14        19     9        0.000000       -0.017692         1
        16        15        14        19     9      180.000000       18.652768         2
        16        15        14        19     9        0.000000       -1.225804         3
        16        15        14        19     9      180.000000       -0.466466         4
        16        17        18        19     9        0.000000       -0.080966         1
        16        17        18        19     9      180.000000       18.153112         2
        16        17        18        19     9        0.000000       -1.373641         3
        16        17        18        19     9      180.000000       -0.356348         4
        16        17        18        38     9        0.000000       -0.122536         1
        16        17        18        38     9      180.000000       13.854594         2
        16        17        18        38     9        0.000000       -0.550856         3
        16        17        18        38     9      180.000000        0.073352         4
        16        17        20        21     9        0.000000        0.226385         1
        16        17        20        21     9      180.000000        2.444068         2
        16        17        20        21     9        0.000000        0.075300         3
        16        17        20        21     9      180.000000       -0.310311         4
        16        17        20        24     9        0.000000       -0.000289         1
        16        17        20        24     9      180.000000        2.079647         2
        16        17        20        24     9        0.000000       -0.058954         3
        16        17        20        24     9      180.000000       -0.243068         4
        17        16        15        36     9        0.000000       -0.019661         1
        17        16        15        36     9      180.000000       14.564297         2
        17        16        15        36     9        0.000000       -0.438149         3
        17        16        15        36     9      180.000000        0.148899         4
        17        18        19        39     9        0.000000       -0.019661         1
        17        18        19        39     9      180.000000       14.564298         2
        17        18        19        39     9        0.000000       -0.438149         3
        17        18        19        39     9      180.000000        0.148899         4
        17        20        21        22     9        0.000000        0.183654         1
        17        20        21        22     9      180.000000       16.330189         2
        17        20        21        22     9        0.000000       -0.168639         3
        17        20        21        22     9      180.000000       -0.945094         4
        17        20        21        40     9        0.000000       -0.192731         1
        17        20        21        40     9      180.000000       10.764578         2
        17        20        21        40     9        0.000000       -0.137823         3
        17        20        21        40     9      180.000000       -0.003216         4
        17        20        24        23     9        0.000000        0.388880         1
        17        20        24        23     9      180.000000       15.245298         2
        17        20        24        23     9        0.000000       -0.357893         3
        17        20        24        23     9      180.000000       -0.981862         4
        17        20        24        41     9        0.000000       -0.157977         1
        17        20        24        41     9      180.000000       10.350387         2
        17        20        24        41     9        0.000000       -0.025513         3
        17        20        24        41     9      180.000000        0.047765         4
        18        17        16        37     9        0.000000       -0.122536         1
        18        17        16        37     9      180.000000       13.854592         2
        18        17        16        37     9        0.000000       -0.550856         3
        18        17        16        37     9      180.000000        0.073352         4
        18        17        20        21     9        0.000000        0.226385         1
        18        17        20        21     9      180.000000        2.444068         2
        18        17        20        21     9        0.000000        0.075300         3
        18        17        20        21     9      180.000000       -0.310311         4
        18        17        20        24     9        0.000000       -0.000289         1
        18        17        20        24     9      180.000000        2.079647         2
        18        17        20        24     9        0.000000       -0.058954         3
        18        17        20        24     9      180.000000       -0.243068         4
        19        14        10        33     9        0.000000        0.026652         1
        19        14        10        33     9      180.000000        0.014947         2
        19        14        10        33     9        0.000000        0.013547         3
        19        14        10        33     9      180.000000        0.009027         4
        19        14        10        34     9        0.000000        0.026652         1
        19        14        10        34     9      180.000000        0.014947         2
        19        14        10        34     9        0.000000        0.013547         3
        19        14        10        34     9      180.000000        0.009027         4
        19        14        15        36     9        0.000000        0.019722         1
        19        14        15        36     9      180.000000       14.478141         2
        19        14        15        36     9        0.000000       -0.483578         3
        19        14        15        36     9      180.000000        0.000311         4
        19        18        17        20     9        0.000000        0.345560         1
        19        18        17        20     9      180.000000       16.650203         2
        19        18        17        20     9        0.000000       -0.115710         3
        19        18        17        20     9      180.000000       -0.388262         4
        20        17        16        37     9        0.000000        0.146898         1
        20        17        16        37     9      180.000000       13.479037         2
        20        17        16        37     9        0.000000       -0.087547         3
        20        17        16        37     9      180.000000        0.132717         4
        20        17        18        38     9        0.000000        0.146898         1
        20        17        18        38     9      180.000000       13.479040         2
        20        17        18        38     9        0.000000       -0.087547         3
        20        17        18        38     9      180.000000        0.132717         4
        20        21        22        23     9        0.000000       -0.009121         1
        20        21        22        23     9      180.000000       30.745141         2
        20        21        22        23     9        0.000000       -6.250990         3
        20        21        22        23     9      180.000000       -0.578339         4
        20        21        22        25     9        0.000000        0.805845         1
        20        21        22        25     9      180.000000        7.183529         2
        20        21        22        25     9        0.000000        0.904760         3
        20        21        22        25     9      180.000000       -0.006099         4
        20        24        23        22     9        0.000000       -0.003186         1
        20        24        23        22     9      180.000000       40.723745         2
        20        24        23        22     9        0.000000       -5.801977         3
        20        24        23        22     9      180.000000       -0.138216         4
        21        20        24        23     9        0.000000       -0.184323         1
        21        20        24        23     9      180.000000       30.518446         2
        21        20        24        23     9        0.000000       -8.302201         3
        21        20        24        23     9      180.000000        0.056566         4
        21        20        24        41     9        0.000000        0.182830         1
        21        20        24        41     9      180.000000       14.435368         2
        21        20        24        41     9        0.000000       -0.577632         3
        21        20        24        41     9      180.000000       -0.486645         4
        21        22        23        24     9        0.000000       -0.276705         1
        21        22        23        24     9      180.000000       27.814030         2
        21        22        23        24     9        0.000000       -4.425871         3
        21        22        23        24     9      180.000000        0.073279         4
        21        22        25        42     9        0.000000       -0.025034         1
        21        22        25        42     9      180.000000       -0.009391         2
        21        22        25        42     9        0.000000        0.181958         3
        21        22        25        42     9      180.000000        0.012892         4
        21        22        25        43     9        0.000000       -0.025034         1
        21        22        25        43     9      180.000000       -0.009391         2
        21        22        25        43     9        0.000000        0.181958         3
        21        22        25        43     9      180.000000        0.012892         4
        21        22        25        44     9        0.000000       -0.025034         1
        21        22        25        44     9      180.000000       -0.009391         2
        21        22        25        44     9        0.000000        0.181958         3
        21        22        25        44     9      180.000000        0.012892         4
        22        21        20        24     9        0.000000       -0.206975         1
        22        21        20        24     9      180.000000       30.618729         2
        22        21        20        24     9        0.000000       -8.507334         3
        22        21        20        24     9      180.000000       -0.023863         4
        22        23        24        41     9        0.000000        1.030702         1
        22        23        24        41     9      180.000000       28.071183         2
        22        23        24        41     9        0.000000       -0.182231         3
        22        23        24        41     9      180.000000       -0.061982         4
        23        22        21        40     9        0.000000        1.067261         1
        23        22        21        40     9      180.000000       12.367244         2
        23        22        21        40     9        0.000000        0.213521         3
        23        22        21        40     9      180.000000       -0.400032         4
        23        22        25        42     9        0.000000       -0.002235         1
        23        22        25        42     9      180.000000        0.002811         2
        23        22        25        42     9        0.000000        0.198678         3
        23        22        25        42     9      180.000000        0.004453         4
        23        22        25        43     9        0.000000       -0.002235         1
        23        22        25        43     9      180.000000        0.002811         2
        23        22        25        43     9        0.000000        0.198678         3
        23        22        25        43     9      180.000000        0.004453         4
        23        22        25        44     9        0.000000       -0.002235         1
        23        22        25        44     9      180.000000        0.002811         2
        23        22        25        44     9        0.000000        0.198678         3
        23        22        25        44     9      180.000000        0.004453         4
        24        20        21        40     9        0.000000        0.010232         1
        24        20        21        40     9      180.000000       13.254580         2
        24        20        21        40     9        0.000000       -0.641023         3
        24        20        21        40     9      180.000000       -0.261573         4
        24        23        22        25     9        0.000000        0.586693         1
        24        23        22        25     9      180.000000       10.298364         2
        24        23        22        25     9        0.000000        0.792012         3
        24        23        22        25     9      180.000000       -0.113382         4
        25        22        21        40     9        0.000000       -0.493730         1
        25        22        21        40     9      180.000000        3.995450         2
        25        22        21        40     9        0.000000        0.087170         3
        25        22        21        40     9      180.000000        0.043642         4
        26        27        28        48     9        0.000000       19.608418         1
        26        27        28        48     9      180.000000       -0.400640         2
        26        27        28        48     9        0.000000       -0.226750         3
        26        27        28        48     9      180.000000        4.561220         4
        26        27        28        49     9        0.000000       19.608418         1
        26        27        28        49     9      180.000000       -0.400640         2
        26        27        28        49     9        0.000000       -0.226750         3
        26        27        28        49     9      180.000000        4.561220         4
        26        28        27        46     9        0.000000       19.608418         1
        26        28        27        46     9      180.000000       -0.400640         2
        26        28        27        46     9        0.000000       -0.226750         3
        26        28        27        46     9      180.000000        4.561220         4
        26        28        27        47     9        0.000000       19.608418         1
        26        28        27        47     9      180.000000       -0.400640         2
        26        28        27        47     9        0.000000       -0.226750         3
        26        28        27        47     9      180.000000        4.561220         4
        27        26        11        35     9        0.000000        1.465904         1
        27        26        11        35     9      180.000000       -0.797345         2
        27        26        11        35     9        0.000000        0.196089         3
        27        26        11        35     9      180.000000        0.141493         4
        27        26        28        48     9        0.000000       26.049597         1
        27        26        28        48     9      180.000000        1.758637         2
        27        26        28        48     9        0.000000       -0.363103         3
        27        26        28        48     9      180.000000        4.987176         4
        27        26        28        49     9        0.000000       26.049597         1
        27        26        28        49     9      180.000000        1.758637         2
        27        26        28        49     9        0.000000       -0.363103         3
        27        26        28        49     9      180.000000        4.987176         4
        27        28        26        45     9        0.000000       38.201832         1
        27        28        26        45     9      180.000000        3.257271         2
        27        28        26        45     9        0.000000       -0.182141         3
        27        28        26        45     9      180.000000        8.192610         4
        28        26        11        35     9        0.000000        1.465904         1
        28        26        11        35     9      180.000000       -0.797345         2
        28        26        11        35     9        0.000000        0.196089         3
        28        26        11        35     9      180.000000        0.141493         4
        28        26        27        46     9        0.000000       26.049597         1
        28        26        27        46     9      180.000000        1.758637         2
        28        26        27        46     9        0.000000       -0.363103         3
        28        26        27        46     9      180.000000        4.987176         4
        28        26        27        47     9        0.000000       26.049597         1
        28        26        27        47     9      180.000000        1.758637         2
        28        26        27        47     9        0.000000       -0.363103         3
        28        26        27        47     9      180.000000        4.987176         4
        28        27        26        45     9        0.000000       38.201832         1
        28        27        26        45     9      180.000000        3.257271         2
        28        27        26        45     9        0.000000       -0.182141         3
        28        27        26        45     9      180.000000        8.192610         4
        30         3         4        31     9        0.000000       -0.056763         1
        30         3         4        31     9      180.000000       12.561603         2
        30         3         4        31     9        0.000000       -0.659426         3
        30         3         4        31     9      180.000000        0.295012         4
        35        11        26        45     9        0.000000       -1.514255         1
        35        11        26        45     9      180.000000       -1.002019         2
        35        11        26        45     9        0.000000        0.243566         3
        35        11        26        45     9      180.000000       -0.049136         4
        36        15        16        37     9        0.000000       -0.173270         1
        36        15        16        37     9      180.000000       12.433057         2
        36        15        16        37     9        0.000000       -0.660707         3
        36        15        16        37     9      180.000000        0.303153         4
        38        18        19        39     9        0.000000       -0.173269         1
        38        18        19        39     9      180.000000       12.433055         2
        38        18        19        39     9        0.000000       -0.660707         3
        38        18        19        39     9      180.000000        0.303153         4
        45        26        27        46     9        0.000000        1.342530         1
        45        26        27        46     9      180.000000       -0.772558         2
        45        26        27        46     9        0.000000       -0.073916         3
        45        26        27        46     9      180.000000        1.519233         4
        45        26        27        47     9        0.000000        1.342530         1
        45        26        27        47     9      180.000000       -0.772558         2
        45        26        27        47     9        0.000000       -0.073916         3
        45        26        27        47     9      180.000000        1.519233         4
        45        26        28        48     9        0.000000        1.342530         1
        45        26        28        48     9      180.000000       -0.772558         2
        45        26        28        48     9        0.000000       -0.073916         3
        45        26        28        48     9      180.000000        1.519233         4
        45        26        28        49     9        0.000000        1.342530         1
        45        26        28        49     9      180.000000       -0.772558         2
        45        26        28        49     9        0.000000       -0.073916         3
        45        26        28        49     9      180.000000        1.519233         4
        46        27        28        48     9        0.000000       -0.110130         1
        46        27        28        48     9      180.000000       -1.453962         2
        46        27        28        48     9        0.000000        0.068384         3
        46        27        28        48     9      180.000000        0.890014         4
        46        27        28        49     9        0.000000       -0.110130         1
        46        27        28        49     9      180.000000       -1.453962         2
        46        27        28        49     9        0.000000        0.068384         3
        46        27        28        49     9      180.000000        0.890014         4
        47        27        28        48     9        0.000000       -0.110130         1
        47        27        28        48     9      180.000000       -1.453962         2
        47        27        28        48     9        0.000000        0.068384         3
        47        27        28        48     9      180.000000        0.890014         4
        47        27        28        49     9        0.000000       -0.110130         1
        47        27        28        49     9      180.000000       -1.453962         2
        47        27        28        49     9        0.000000        0.068384         3
        47        27        28        49     9      180.000000        0.890014         4

[ dihedrals ] ; impropers
;       ai        aj        ak        al funct           phase               k        pn
        12         1        11        13     4      180.000000       27.893333         2
        12        11        13         1     4      180.000000       27.893333         2
        12        13         1        11     4      180.000000       27.893333         2
        15        14        16        36     4      180.000000        1.374161         2
        15        16        36        14     4      180.000000        1.374161         2
        15        36        14        16     4      180.000000        1.374161         2
        19        14        18        39     4      180.000000        1.374160         2
        19        18        39        14     4      180.000000        1.374160         2
        19        39        14        18     4      180.000000        1.374160         2

[ pairs ]
;       ai        aj funct
         1         5     1
         1         7     1
         1        26     1
         1        30     1
         1        35     1
         2         3     1
         2         8     1
         2         9     1
         2        10     1
         2        11     1
         2        13     1
         2        31     1
         3         7     1
         3         8     1
         3        12     1
         3        32     1
         4         6     1
         4         9     1
         4        11     1
         4        13     1
         4        29     1
         5        10     1
         5        29     1
         5        31     1
         6        12     1
         6        14     1
         6        30     1
         6        32     1
         6        33     1
         6        34     1
         7        15     1
         7        19     1
         7        29     1
         7        32     1
         8        14     1
         8        33     1
         8        34     1
         9        10     1
         9        30     1
        10        16     1
        10        18     1
        10        36     1
        10        39     1
        11        46     1
        11        47     1
        11        48     1
        11        49     1
        12        27     1
        12        28     1
        12        29     1
        12        31     1
        12        45     1
        13        26     1
        13        35     1
        14        17     1
        14        37     1
        14        38     1
        15        18     1
        15        20     1
        15        33     1
        15        34     1
        15        39     1
        16        19     1
        16        21     1
        16        24     1
        16        38     1
        17        22     1
        17        23     1
        17        36     1
        17        39     1
        17        40     1
        17        41     1
        18        21     1
        18        24     1
        18        37     1
        19        20     1
        19        33     1
        19        34     1
        19        36     1
        20        25     1
        20        37     1
        20        38     1
        21        41     1
        21        42     1
        21        43     1
        21        44     1
        22        41     1
        23        40     1
        23        42     1
        23        43     1
        23        44     1
        24        25     1
        24        40     1
        25        40     1
        27        35     1
        28        35     1
        30        31     1
        35        45     1
        36        37     1
        38        39     1
        45        46     1
        45        47     1
        45        48     1
        45        49     1
        46        48     1
        46        49     1
        47        48     1
        47        49     1
