; ITP file created by ByteFF-ML, 2026-02-21 07:35:06.348482

[ atomtypes ]
;name           bonded.type        at.num        mass        charge   ptype           sigma         epsilon
 c0bf                                   6      0.0000       0.00000       A     3.31391e-01     4.10803e-01
 c1bf                                   6      0.0000       0.00000       A     3.31422e-01     4.13513e-01
 c2bf                                   6      0.0000       0.00000       A     3.31522e-01     4.12546e-01
 c3bf                                   6      0.0000       0.00000       A     3.31526e-01     4.12839e-01
 c4bf                                   6      0.0000       0.00000       A     3.31529e-01     4.12453e-01
 c5bf                                   6      0.0000       0.00000       A     3.31510e-01     4.11815e-01
 c6bf                                   6      0.0000       0.00000       A     3.31450e-01     4.11740e-01
 n7bf                                   7      0.0000       0.00000       A     3.38151e-01     3.91342e-01
 n8bf                                   7      0.0000       0.00000       A     3.20440e-01     8.58154e-01
 c9bf                                   6      0.0000       0.00000       A     3.39892e-01     4.51463e-01
 n10bf                                  7      0.0000       0.00000       A     3.18073e-01     6.83928e-01
 c11bf                                  6      0.0000       0.00000       A     3.31477e-01     4.09028e-01
 o12bf                                  8      0.0000       0.00000       A     3.04459e-01     6.16836e-01
 c13bf                                  6      0.0000       0.00000       A     3.31526e-01     4.13182e-01
 c14bf                                  6      0.0000       0.00000       A     3.31408e-01     4.13210e-01
 c15bf                                  6      0.0000       0.00000       A     3.31502e-01     4.12536e-01
 c16bf                                  6      0.0000       0.00000       A     3.31322e-01     4.13227e-01
 c17bf                                  6      0.0000       0.00000       A     3.31502e-01     4.12536e-01
 c18bf                                  6      0.0000       0.00000       A     3.31408e-01     4.13210e-01
 c19bf                                  6      0.0000       0.00000       A     3.31350e-01     4.11687e-01
 c20bf                                  6      0.0000       0.00000       A     3.31475e-01     4.11821e-01
 n21bf                                  7      0.0000       0.00000       A     3.20558e-01     8.54076e-01
 n22bf                                  7      0.0000       0.00000       A     3.38391e-01     3.93249e-01
 c23bf                                  6      0.0000       0.00000       A     3.31594e-01     4.13789e-01
 c24bf                                  6      0.0000       0.00000       A     3.39839e-01     4.51932e-01
 c25bf                                  6      0.0000       0.00000       A     3.40090e-01     4.50626e-01
 c26bf                                  6      0.0000       0.00000       A     3.39932e-01     4.53049e-01
 c27bf                                  6      0.0000       0.00000       A     3.40090e-01     4.50626e-01
 f28bf                                  9      0.0000       0.00000       A     3.03589e-01     3.50379e-01
 f29bf                                  9      0.0000       0.00000       A     3.03589e-01     3.50379e-01
 h30bf                                  1      0.0000       0.00000       A     2.62429e-01     6.67636e-02
 h31bf                                  1      0.0000       0.00000       A     2.62471e-01     6.70892e-02
 h32bf                                  1      0.0000       0.00000       A     2.62608e-01     6.72919e-02
 h33bf                                  1      0.0000       0.00000       A     1.10602e-01     4.12983e-02
 h34bf                                  1      0.0000       0.00000       A     2.60090e-01     8.80823e-02
 h35bf                                  1      0.0000       0.00000       A     2.60090e-01     8.80823e-02
 h36bf                                  1      0.0000       0.00000       A     2.62498e-01     6.75473e-02
 h37bf                                  1      0.0000       0.00000       A     2.62482e-01     6.74643e-02
 h38bf                                  1      0.0000       0.00000       A     2.62482e-01     6.74643e-02
 h39bf                                  1      0.0000       0.00000       A     2.62498e-01     6.75473e-02
 h40bf                                  1      0.0000       0.00000       A     2.53807e-01     6.74898e-02
 h41bf                                  1      0.0000       0.00000       A     2.53933e-01     6.69200e-02
 h42bf                                  1      0.0000       0.00000       A     2.41990e-01     8.77359e-02
 h43bf                                  1      0.0000       0.00000       A     2.41990e-01     8.77359e-02
 h44bf                                  1      0.0000       0.00000       A     2.41990e-01     8.77359e-02
 h45bf                                  1      0.0000       0.00000       A     2.41942e-01     8.63697e-02
 h46bf                                  1      0.0000       0.00000       A     2.41942e-01     8.63697e-02
 h47bf                                  1      0.0000       0.00000       A     2.41942e-01     8.63697e-02
 h48bf                                  1      0.0000       0.00000       A     2.41942e-01     8.63697e-02

[ moleculetype ]
;name             nrexcl
 34                    3

[ atoms ]
;       nr            type      resi   res      atom      cgnr      charge          mass ; qtot
         1            c0bf         1   UNL        c0         1    -0.19122       12.0110 ; qtot   -0.191
         2            c1bf         1   UNL        c1         2     0.02156       12.0110 ; qtot   -0.170
         3            c2bf         1   UNL        c2         3    -0.15413       12.0110 ; qtot   -0.324
         4            c3bf         1   UNL        c3         4    -0.03939       12.0110 ; qtot   -0.363
         5            c4bf         1   UNL        c4         5     0.00053       12.0110 ; qtot   -0.363
         6            c5bf         1   UNL        c5         6    -0.23750       12.0110 ; qtot   -0.600
         7            c6bf         1   UNL        c6         7     0.35992       12.0110 ; qtot   -0.240
         8            n7bf         1   UNL        n7         8    -0.50659       14.0070 ; qtot   -0.747
         9            n8bf         1   UNL        n8         9    -0.08032       14.0070 ; qtot   -0.827
        10            c9bf         1   UNL        c9        10    -0.03975       12.0110 ; qtot   -0.867
        11           n10bf         1   UNL       n10        11    -0.39243       14.0070 ; qtot   -1.259
        12           c11bf         1   UNL       c11        12     0.61167       12.0110 ; qtot   -0.648
        13           o12bf         1   UNL       o12        13    -0.58657       15.9990 ; qtot   -1.234
        14           c13bf         1   UNL       c13        14    -0.08002       12.0110 ; qtot   -1.314
        15           c14bf         1   UNL       c14        15    -0.10203       12.0110 ; qtot   -1.416
        16           c15bf         1   UNL       c15        16    -0.11007       12.0110 ; qtot   -1.526
        17           c16bf         1   UNL       c16        17     0.00438       12.0110 ; qtot   -1.522
        18           c17bf         1   UNL       c17        18    -0.11007       12.0110 ; qtot   -1.632
        19           c18bf         1   UNL       c18        19    -0.10203       12.0110 ; qtot   -1.734
        20           c19bf         1   UNL       c19        20    -0.16403       12.0110 ; qtot   -1.898
        21           c20bf         1   UNL       c20        21    -0.14400       12.0110 ; qtot   -2.042
        22           n21bf         1   UNL       n21        22     0.11171       14.0070 ; qtot   -1.930
        23           n22bf         1   UNL       n22        23    -0.52174       14.0070 ; qtot   -2.452
        24           c23bf         1   UNL       c23        24     0.25349       12.0110 ; qtot   -2.199
        25           c24bf         1   UNL       c24        25     0.07027       12.0110 ; qtot   -2.128
        26           c25bf         1   UNL       c25        26     0.04686       12.0110 ; qtot   -2.082
        27           c26bf         1   UNL       c26        27     0.14532       12.0110 ; qtot   -1.936
        28           c27bf         1   UNL       c27        28     0.04686       12.0110 ; qtot   -1.889
        29           f28bf         1   UNL       f28        29    -0.08940       18.9980 ; qtot   -1.979
        30           f29bf         1   UNL       f29        30    -0.08940       18.9980 ; qtot   -2.068
        31           h30bf         1   UNL       h30        31     0.13718        1.0080 ; qtot   -1.931
        32           h31bf         1   UNL       h31        32     0.12888        1.0080 ; qtot   -1.802
        33           h32bf         1   UNL       h32        33     0.12791        1.0080 ; qtot   -1.674
        34           h33bf         1   UNL       h33        34     0.37621        1.0080 ; qtot   -1.298
        35           h34bf         1   UNL       h34        35     0.06255        1.0080 ; qtot   -1.235
        36           h35bf         1   UNL       h35        36     0.06255        1.0080 ; qtot   -1.173
        37           h36bf         1   UNL       h36        37     0.11797        1.0080 ; qtot   -1.055
        38           h37bf         1   UNL       h37        38     0.11784        1.0080 ; qtot   -0.937
        39           h38bf         1   UNL       h38        39     0.11784        1.0080 ; qtot   -0.819
        40           h39bf         1   UNL       h39        40     0.11797        1.0080 ; qtot   -0.701
        41           h40bf         1   UNL       h40        41     0.15375        1.0080 ; qtot   -0.547
        42           h41bf         1   UNL       h41        42     0.03800        1.0080 ; qtot   -0.509
        43           h42bf         1   UNL       h42        43     0.05817        1.0080 ; qtot   -0.451
        44           h43bf         1   UNL       h43        44     0.05817        1.0080 ; qtot   -0.393
        45           h44bf         1   UNL       h44        45     0.05817        1.0080 ; qtot   -0.335
        46           h45bf         1   UNL       h45        46     0.08374        1.0080 ; qtot   -0.251
        47           h46bf         1   UNL       h46        47     0.08374        1.0080 ; qtot   -0.167
        48           h47bf         1   UNL       h47        48     0.08374        1.0080 ; qtot   -0.084
        49           h48bf         1   UNL       h48        49     0.08374        1.0080 ; qtot   -0.000

[ bonds ]
;       ai        aj funct               r               k
         1         2     1        0.139357   311309.876465
         1         4     1        0.142249   259563.010254
         1        12     1        0.149639   184502.040039
         2         6     1        0.140332   306846.296191
         2        31     1        0.108520   322135.108203
         3         4     1        0.138653   345314.963623
         3         5     1        0.140635   300193.368457
         3        32     1        0.108556   321290.723682
         4        33     1        0.108493   322313.484912
         5         6     1        0.141873   251630.647803
         5         9     1        0.136842   290575.199268
         6         7     1        0.143779   232936.845313
         7         8     1        0.132649   371345.986230
         7        10     1        0.150274   213625.644897
         8         9     1        0.136401   241851.313916
         9        34     1        0.100927   434980.632227
        10        14     1        0.151889   191838.442969
        10        35     1        0.109486   294999.682227
        10        36     1        0.109486   294999.682227
        11        12     1        0.137881   264191.764551
        11        26     1        0.148309   182602.411084
        11        28     1        0.148309   182602.411084
        12        13     1        0.123444   586930.314648
        14        15     1        0.140132   290757.355469
        14        19     1        0.140132   290757.355469
        15        16     1        0.139531   320296.512939
        15        37     1        0.108704   315886.049854
        16        17     1        0.140685   283825.179443
        16        38     1        0.108584   318696.127832
        17        18     1        0.140685   283825.179443
        17        20     1        0.146859   235591.683203
        18        19     1        0.139531   320296.512939
        18        39     1        0.108584   318696.102295
        19        40     1        0.108704   315886.075391
        20        21     1        0.139499   320805.390918
        20        24     1        0.142378   259368.136572
        21        22     1        0.135856   314480.283057
        21        41     1        0.108071   337590.039111
        22        23     1        0.135354   242037.913574
        22        25     1        0.145314   224810.528516
        23        24     1        0.133400   358572.221973
        24        42     1        0.108233   332445.307520
        25        43     1        0.109196   305692.172070
        25        44     1        0.109196   305692.172070
        25        45     1        0.109196   305692.172070
        26        27     1        0.154082   176662.939111
        26        46     1        0.109230   304142.146143
        26        47     1        0.109230   304142.146143
        27        28     1        0.154082   176662.939111
        27        29     1        0.136430   248874.095605
        27        30     1        0.136430   248874.095605
        28        48     1        0.109230   304142.146143
        28        49     1        0.109230   304142.146143

[ angles ]
;       ai        aj        ak funct           theta             cth
         1         2         6     1      118.827896      674.192711
         1         2        31     1      119.847092      388.882613
         1         4         3     1      122.050552      626.922564
         1         4        33     1      118.422363      407.169769
         1        12        11     1      116.943222      492.523854
         1        12        13     1      122.205971      587.144686
         2         1         4     1      120.287613      654.190898
         2         1        12     1      119.576004      505.919600
         2         6         5     1      119.784508      754.697491
         2         6         7     1      135.507675      442.850665
         3         4        33     1      119.513954      404.770813
         3         5         6     1      121.840965      617.375835
         3         5         9     1      132.464661      482.201850
         4         1        12     1      120.194778      565.011737
         4         3         5     1      117.072189      766.238668
         4         3        32     1      121.230942      435.699604
         5         3        32     1      121.942848      434.269781
         5         6         7     1      104.819130      486.273136
         5         9         8     1      112.338623      425.015069
         5         9        34     1      128.734390      380.960906
         6         2        31     1      121.219933      400.169983
         6         5         9     1      105.800415      167.360000
         6         7         8     1      110.705887      353.382966
         6         7        10     1      127.823593      446.580264
         7         8         9     1      106.500710      544.611736
         7        10        14     1      113.105606      519.623132
         7        10        35     1      108.500137      514.066289
         7        10        36     1      108.500137      514.066289
         8         7        10     1      121.625832      449.673829
         8         9        34     1      118.789017      482.596877
        10        14        15     1      120.885033      486.548234
        10        14        19     1      120.885033      486.548234
        11        12        13     1      120.664551      645.958500
        11        26        27     1       87.832657      746.849490
        11        26        46     1      114.073959      392.032807
        11        26        47     1      114.073959      392.032807
        11        28        27     1       87.832657      746.849490
        11        28        48     1      114.073959      392.032807
        11        28        49     1      114.073959      392.032807
        12        11        26     1      125.112938      424.937755
        12        11        28     1      125.112938      424.937755
        14        10        35     1      109.614029      493.993834
        14        10        36     1      109.614029      493.993834
        14        15        16     1      120.959518      705.842064
        14        15        37     1      119.502907      394.245725
        14        19        18     1      120.959518      705.842064
        14        19        40     1      119.502907      394.245725
        15        14        19     1      118.250145      711.225989
        15        16        17     1      121.013084      708.028679
        15        16        38     1      119.370682      427.621195
        16        15        37     1      119.522682      426.792643
        16        17        18     1      117.633606      614.164480
        16        17        20     1      121.173790      498.107383
        17        16        38     1      119.674911      429.339523
        17        18        19     1      121.013084      708.028679
        17        18        39     1      119.674911      429.339523
        17        20        21     1      127.875488      501.485943
        17        20        24     1      128.618073      539.877859
        18        17        20     1      121.173790      498.107383
        18        19        40     1      119.522682      426.792643
        19        18        39     1      119.370682      427.621195
        20        21        22     1      107.253334      167.360000
        20        21        41     1      131.309311      330.526743
        20        24        23     1      111.985497      241.969059
        20        24        42     1      128.583298      361.836739
        21        20        24     1      103.527756      370.968937
        21        22        23     1      112.317947      213.505142
        21        22        25     1      128.036591      424.086540
        22        21        41     1      121.687912      464.045636
        22        23        24     1      104.970238      567.675768
        22        25        43     1      109.593666      496.372137
        22        25        44     1      109.593666      496.372137
        22        25        45     1      109.593666      496.372137
        23        22        25     1      119.401001      615.866145
        23        24        42     1      119.394226      391.030699
        26        11        28     1       93.970619      505.949447
        26        27        28     1       90.160011      597.828136
        26        27        29     1      114.837891      526.812244
        26        27        30     1      114.837891      526.812244
        27        26        46     1      114.102356      448.595589
        27        26        47     1      114.102356      448.595589
        27        28        48     1      114.102356      448.595589
        27        28        49     1      114.102356      448.595589
        28        27        29     1      114.837891      526.812244
        28        27        30     1      114.837891      526.812244
        29        27        30     1      107.059044      688.474340
        35        10        36     1      106.967346      364.175843
        43        25        44     1      109.444870      349.033358
        43        25        45     1      109.444870      349.033358
        44        25        45     1      109.444870      349.033358
        46        26        47     1      110.483421      335.299756
        48        28        49     1      110.483421      335.299756

[ dihedrals ] ; propers for gromacs 4.5 or higher, use funct 9
;       ai        aj        ak        al funct           phase               k        pn
         1         2         6         5     9        0.000000       -0.084436         1
         1         2         6         5     9      180.000000       19.068807         2
         1         2         6         5     9        0.000000       -2.419288         3
         1         2         6         5     9      180.000000       -0.470411         4
         1         2         6         7     9        0.000000       -0.579553         1
         1         2         6         7     9      180.000000       13.406246         2
         1         2         6         7     9        0.000000       -0.956799         3
         1         2         6         7     9      180.000000       -0.226736         4
         1         4         3         5     9        0.000000       -0.218081         1
         1         4         3         5     9      180.000000       21.877859         2
         1         4         3         5     9        0.000000       -1.551413         3
         1         4         3         5     9      180.000000       -0.631483         4
         1         4         3        32     9        0.000000        0.117095         1
         1         4         3        32     9      180.000000       14.733774         2
         1         4         3        32     9        0.000000       -0.499614         3
         1         4         3        32     9      180.000000        0.119286         4
         1        12        11        26     9        0.000000        2.880642         1
         1        12        11        26     9      180.000000       15.492245         2
         1        12        11        26     9        0.000000        3.601895         3
         1        12        11        26     9      180.000000       -2.181818         4
         1        12        11        28     9        0.000000        2.880642         1
         1        12        11        28     9      180.000000       15.492245         2
         1        12        11        28     9        0.000000        3.601895         3
         1        12        11        28     9      180.000000       -2.181818         4
         2         1         4         3     9        0.000000        0.115652         1
         2         1         4         3     9      180.000000       17.007258         2
         2         1         4         3     9        0.000000       -1.155248         3
         2         1         4         3     9      180.000000       -0.307939         4
         2         1         4        33     9        0.000000        0.146013         1
         2         1         4        33     9      180.000000       12.423433         2
         2         1         4        33     9        0.000000       -0.592569         3
         2         1         4        33     9      180.000000        0.106716         4
         2         1        12        11     9        0.000000       -0.334319         1
         2         1        12        11     9      180.000000        4.786404         2
         2         1        12        11     9        0.000000       -0.164265         3
         2         1        12        11     9      180.000000        0.271550         4
         2         1        12        13     9        0.000000        0.932584         1
         2         1        12        13     9      180.000000        2.876964         2
         2         1        12        13     9        0.000000        0.129648         3
         2         1        12        13     9      180.000000        0.099686         4
         2         6         5         3     9        0.000000       -0.195762         1
         2         6         5         3     9      180.000000       10.749530         2
         2         6         5         3     9        0.000000       -1.572919         3
         2         6         5         3     9      180.000000       -0.082469         4
         2         6         5         9     9        0.000000        0.274159         1
         2         6         5         9     9      180.000000        9.238163         2
         2         6         5         9     9        0.000000       -1.953803         3
         2         6         5         9     9      180.000000        0.148151         4
         2         6         7         8     9        0.000000       -0.208992         1
         2         6         7         8     9      180.000000        4.080416         2
         2         6         7         8     9        0.000000       -0.841960         3
         2         6         7         8     9      180.000000        0.057176         4
         2         6         7        10     9        0.000000       -0.350408         1
         2         6         7        10     9      180.000000        4.346947         2
         2         6         7        10     9        0.000000        0.255291         3
         2         6         7        10     9      180.000000        0.060164         4
         3         4         1        12     9        0.000000        0.133953         1
         3         4         1        12     9      180.000000       13.284801         2
         3         4         1        12     9        0.000000       -0.124634         3
         3         4         1        12     9      180.000000       -0.310091         4
         3         5         6         7     9        0.000000        0.013159         1
         3         5         6         7     9      180.000000       11.368108         2
         3         5         6         7     9        0.000000       -2.393343         3
         3         5         6         7     9      180.000000       -0.031461         4
         3         5         9         8     9        0.000000        1.391886         1
         3         5         9         8     9      180.000000        5.500433         2
         3         5         9         8     9        0.000000        0.460508         3
         3         5         9         8     9      180.000000       -0.031759         4
         3         5         9        34     9        0.000000       -0.155130         1
         3         5         9        34     9      180.000000        1.489668         2
         3         5         9        34     9        0.000000        0.111269         3
         3         5         9        34     9      180.000000       -0.115684         4
         4         1         2         6     9        0.000000       -0.048396         1
         4         1         2         6     9      180.000000       20.809983         2
         4         1         2         6     9        0.000000       -1.418066         3
         4         1         2         6     9      180.000000       -0.624534         4
         4         1         2        31     9        0.000000        0.121159         1
         4         1         2        31     9      180.000000       14.290878         2
         4         1         2        31     9        0.000000       -0.423232         3
         4         1         2        31     9      180.000000       -0.012774         4
         4         1        12        11     9        0.000000       -0.144387         1
         4         1        12        11     9      180.000000        4.992764         2
         4         1        12        11     9        0.000000       -0.100428         3
         4         1        12        11     9      180.000000        0.287054         4
         4         1        12        13     9        0.000000       -0.159609         1
         4         1        12        13     9      180.000000        3.054128         2
         4         1        12        13     9        0.000000        0.062734         3
         4         1        12        13     9      180.000000        0.115771         4
         4         3         5         6     9        0.000000       -0.196973         1
         4         3         5         6     9      180.000000       16.821023         2
         4         3         5         6     9        0.000000       -1.839915         3
         4         3         5         6     9      180.000000       -0.310841         4
         4         3         5         9     9        0.000000        0.221937         1
         4         3         5         9     9      180.000000       13.228857         2
         4         3         5         9     9        0.000000       -0.056407         3
         4         3         5         9     9      180.000000       -0.094443         4
         5         3         4        33     9        0.000000        0.123305         1
         5         3         4        33     9      180.000000       16.883736         2
         5         3         4        33     9        0.000000       -0.538778         3
         5         3         4        33     9      180.000000       -0.056855         4
         5         6         2        31     9        0.000000        0.310052         1
         5         6         2        31     9      180.000000       14.131912         2
         5         6         2        31     9        0.000000       -0.275931         3
         5         6         2        31     9      180.000000       -0.176272         4
         5         6         7         8     9        0.000000       -0.159697         1
         5         6         7         8     9      180.000000       30.949265         2
         5         6         7         8     9        0.000000       -9.484346         3
         5         6         7         8     9      180.000000       -0.194531         4
         5         6         7        10     9        0.000000        0.899813         1
         5         6         7        10     9      180.000000       14.535784         2
         5         6         7        10     9        0.000000        0.086804         3
         5         6         7        10     9      180.000000       -0.591458         4
         5         9         8         7     9        0.000000       -0.211795         1
         5         9         8         7     9      180.000000       17.216046         2
         5         9         8         7     9        0.000000       -2.171080         3
         5         9         8         7     9      180.000000       -1.162629         4
         6         2         1        12     9        0.000000        0.056571         1
         6         2         1        12     9      180.000000       16.781915         2
         6         2         1        12     9        0.000000       -0.157914         3
         6         2         1        12     9      180.000000       -0.606854         4
         6         5         3        32     9        0.000000        0.118704         1
         6         5         3        32     9      180.000000       11.302316         2
         6         5         3        32     9        0.000000       -0.309522         3
         6         5         3        32     9      180.000000        0.009496         4
         6         5         9         8     9        0.000000        0.393208         1
         6         5         9         8     9      180.000000       24.565269         2
         6         5         9         8     9        0.000000       -5.044677         3
         6         5         9         8     9      180.000000       -1.045598         4
         6         5         9        34     9        0.000000        0.311195         1
         6         5         9        34     9      180.000000        1.569059         2
         6         5         9        34     9        0.000000        0.500088         3
         6         5         9        34     9      180.000000        0.027770         4
         6         7         8         9     9        0.000000       -0.261824         1
         6         7         8         9     9      180.000000       41.404624         2
         6         7         8         9     9        0.000000       -4.755438         3
         6         7         8         9     9      180.000000       -0.129751         4
         6         7        10        14     9        0.000000        0.306941         1
         6         7        10        14     9      180.000000       -0.401788         2
         6         7        10        14     9        0.000000        0.587163         3
         6         7        10        14     9      180.000000        0.021290         4
         6         7        10        35     9        0.000000       -0.069793         1
         6         7        10        35     9      180.000000        0.146389         2
         6         7        10        35     9        0.000000        0.521246         3
         6         7        10        35     9      180.000000        0.014600         4
         6         7        10        36     9        0.000000       -0.069793         1
         6         7        10        36     9      180.000000        0.146389         2
         6         7        10        36     9        0.000000        0.521246         3
         6         7        10        36     9      180.000000        0.014600         4
         7         6         2        31     9        0.000000       -0.130210         1
         7         6         2        31     9      180.000000        9.449880         2
         7         6         2        31     9        0.000000        0.078706         3
         7         6         2        31     9      180.000000        0.067502         4
         7         6         5         9     9        0.000000        0.187324         1
         7         6         5         9     9      180.000000       17.398860         2
         7         6         5         9     9        0.000000       -6.331579         3
         7         6         5         9     9      180.000000       -0.227049         4
         7         8         9        34     9        0.000000        2.366235         1
         7         8         9        34     9      180.000000        2.975894         2
         7         8         9        34     9        0.000000        0.435105         3
         7         8         9        34     9      180.000000        0.026087         4
         7        10        14        15     9        0.000000       -0.162197         1
         7        10        14        15     9      180.000000        0.171147         2
         7        10        14        15     9        0.000000        0.114997         3
         7        10        14        15     9      180.000000        0.021335         4
         7        10        14        19     9        0.000000       -0.162197         1
         7        10        14        19     9      180.000000        0.171147         2
         7        10        14        19     9        0.000000        0.114997         3
         7        10        14        19     9      180.000000        0.021335         4
         8         7        10        14     9        0.000000       -0.862580         1
         8         7        10        14     9      180.000000       -0.216635         2
         8         7        10        14     9        0.000000        0.027906         3
         8         7        10        14     9      180.000000        0.006368         4
         8         7        10        35     9        0.000000        0.219474         1
         8         7        10        35     9      180.000000        0.093663         2
         8         7        10        35     9        0.000000       -0.190341         3
         8         7        10        35     9      180.000000        0.040522         4
         8         7        10        36     9        0.000000        0.219474         1
         8         7        10        36     9      180.000000        0.093663         2
         8         7        10        36     9        0.000000       -0.190341         3
         8         7        10        36     9      180.000000        0.040522         4
         9         5         3        32     9        0.000000       -0.105227         1
         9         5         3        32     9      180.000000        9.618129         2
         9         5         3        32     9        0.000000       -0.061985         3
         9         5         3        32     9      180.000000        0.052739         4
         9         8         7        10     9        0.000000        0.492327         1
         9         8         7        10     9      180.000000       32.362694         2
         9         8         7        10     9        0.000000        0.809139         3
         9         8         7        10     9      180.000000       -0.860767         4
        10        14        15        16     9        0.000000        0.026860         1
        10        14        15        16     9      180.000000       15.135600         2
        10        14        15        16     9        0.000000       -0.170192         3
        10        14        15        16     9      180.000000       -0.215560         4
        10        14        15        37     9        0.000000       -0.086046         1
        10        14        15        37     9      180.000000       12.621826         2
        10        14        15        37     9        0.000000       -0.312532         3
        10        14        15        37     9      180.000000        0.160165         4
        10        14        19        18     9        0.000000        0.026860         1
        10        14        19        18     9      180.000000       15.135600         2
        10        14        19        18     9        0.000000       -0.170192         3
        10        14        19        18     9      180.000000       -0.215560         4
        10        14        19        40     9        0.000000       -0.086046         1
        10        14        19        40     9      180.000000       12.621826         2
        10        14        19        40     9        0.000000       -0.312532         3
        10        14        19        40     9      180.000000        0.160165         4
        11        26        27        28     9        0.000000       -0.526912         1
        11        26        27        28     9      180.000000       17.103686         2
        11        26        27        28     9        0.000000       -1.157484         3
        11        26        27        28     9      180.000000        0.791139         4
        11        26        27        29     9        0.000000        2.752524         1
        11        26        27        29     9      180.000000        2.678713         2
        11        26        27        29     9        0.000000        0.448964         3
        11        26        27        29     9      180.000000        2.588181         4
        11        26        27        30     9        0.000000        2.752524         1
        11        26        27        30     9      180.000000        2.678713         2
        11        26        27        30     9        0.000000        0.448964         3
        11        26        27        30     9      180.000000        2.588181         4
        11        28        27        26     9        0.000000       -0.526912         1
        11        28        27        26     9      180.000000       17.103686         2
        11        28        27        26     9        0.000000       -1.157484         3
        11        28        27        26     9      180.000000        0.791139         4
        11        28        27        29     9        0.000000        2.752524         1
        11        28        27        29     9      180.000000        2.678713         2
        11        28        27        29     9        0.000000        0.448964         3
        11        28        27        29     9      180.000000        2.588181         4
        11        28        27        30     9        0.000000        2.752524         1
        11        28        27        30     9      180.000000        2.678713         2
        11        28        27        30     9        0.000000        0.448964         3
        11        28        27        30     9      180.000000        2.588181         4
        12         1         2        31     9        0.000000        0.084342         1
        12         1         2        31     9      180.000000       12.473153         2
        12         1         2        31     9        0.000000       -0.290941         3
        12         1         2        31     9      180.000000        0.019166         4
        12         1         4        33     9        0.000000        0.044450         1
        12         1         4        33     9      180.000000       11.615096         2
        12         1         4        33     9        0.000000       -0.325601         3
        12         1         4        33     9      180.000000        0.031995         4
        12        11        26        27     9        0.000000        0.612126         1
        12        11        26        27     9      180.000000       -0.096113         2
        12        11        26        27     9        0.000000       -0.094881         3
        12        11        26        27     9      180.000000       -0.875412         4
        12        11        26        46     9        0.000000       -0.088118         1
        12        11        26        46     9      180.000000        0.032926         2
        12        11        26        46     9        0.000000        0.120296         3
        12        11        26        46     9      180.000000        0.017603         4
        12        11        26        47     9        0.000000       -0.088118         1
        12        11        26        47     9      180.000000        0.032926         2
        12        11        26        47     9        0.000000        0.120296         3
        12        11        26        47     9      180.000000        0.017603         4
        12        11        28        27     9        0.000000        0.612126         1
        12        11        28        27     9      180.000000       -0.096113         2
        12        11        28        27     9        0.000000       -0.094881         3
        12        11        28        27     9      180.000000       -0.875412         4
        12        11        28        48     9        0.000000       -0.088118         1
        12        11        28        48     9      180.000000        0.032926         2
        12        11        28        48     9        0.000000        0.120296         3
        12        11        28        48     9      180.000000        0.017603         4
        12        11        28        49     9        0.000000       -0.088118         1
        12        11        28        49     9      180.000000        0.032926         2
        12        11        28        49     9        0.000000        0.120296         3
        12        11        28        49     9      180.000000        0.017603         4
        13        12        11        26     9        0.000000        0.221173         1
        13        12        11        26     9      180.000000       10.585480         2
        13        12        11        26     9        0.000000        0.126273         3
        13        12        11        26     9      180.000000       -0.345243         4
        13        12        11        28     9        0.000000        0.221173         1
        13        12        11        28     9      180.000000       10.585480         2
        13        12        11        28     9        0.000000        0.126273         3
        13        12        11        28     9      180.000000       -0.345243         4
        14        15        16        17     9        0.000000       -0.033501         1
        14        15        16        17     9      180.000000       18.361802         2
        14        15        16        17     9        0.000000       -1.382122         3
        14        15        16        17     9      180.000000       -0.333748         4
        14        15        16        38     9        0.000000        0.009019         1
        14        15        16        38     9      180.000000       15.117731         2
        14        15        16        38     9        0.000000       -0.652997         3
        14        15        16        38     9      180.000000        0.089353         4
        14        19        18        17     9        0.000000       -0.033501         1
        14        19        18        17     9      180.000000       18.361802         2
        14        19        18        17     9        0.000000       -1.382122         3
        14        19        18        17     9      180.000000       -0.333748         4
        14        19        18        39     9        0.000000        0.009019         1
        14        19        18        39     9      180.000000       15.117731         2
        14        19        18        39     9        0.000000       -0.652997         3
        14        19        18        39     9      180.000000        0.089353         4
        15        14        10        35     9        0.000000        0.026652         1
        15        14        10        35     9      180.000000        0.014947         2
        15        14        10        35     9        0.000000        0.013547         3
        15        14        10        35     9      180.000000        0.009027         4
        15        14        10        36     9        0.000000        0.026652         1
        15        14        10        36     9      180.000000        0.014947         2
        15        14        10        36     9        0.000000        0.013547         3
        15        14        10        36     9      180.000000        0.009027         4
        15        14        19        18     9        0.000000       -0.017692         1
        15        14        19        18     9      180.000000       18.652768         2
        15        14        19        18     9        0.000000       -1.225804         3
        15        14        19        18     9      180.000000       -0.466466         4
        15        14        19        40     9        0.000000        0.019722         1
        15        14        19        40     9      180.000000       14.478142         2
        15        14        19        40     9        0.000000       -0.483578         3
        15        14        19        40     9      180.000000        0.000311         4
        15        16        17        18     9        0.000000       -0.080966         1
        15        16        17        18     9      180.000000       18.153112         2
        15        16        17        18     9        0.000000       -1.373641         3
        15        16        17        18     9      180.000000       -0.356348         4
        15        16        17        20     9        0.000000        0.345560         1
        15        16        17        20     9      180.000000       16.650203         2
        15        16        17        20     9        0.000000       -0.115710         3
        15        16        17        20     9      180.000000       -0.388262         4
        16        15        14        19     9        0.000000       -0.017692         1
        16        15        14        19     9      180.000000       18.652768         2
        16        15        14        19     9        0.000000       -1.225804         3
        16        15        14        19     9      180.000000       -0.466466         4
        16        17        18        19     9        0.000000       -0.080966         1
        16        17        18        19     9      180.000000       18.153112         2
        16        17        18        19     9        0.000000       -1.373641         3
        16        17        18        19     9      180.000000       -0.356348         4
        16        17        18        39     9        0.000000       -0.122536         1
        16        17        18        39     9      180.000000       13.854594         2
        16        17        18        39     9        0.000000       -0.550856         3
        16        17        18        39     9      180.000000        0.073352         4
        16        17        20        21     9        0.000000        0.226385         1
        16        17        20        21     9      180.000000        2.444068         2
        16        17        20        21     9        0.000000        0.075300         3
        16        17        20        21     9      180.000000       -0.310311         4
        16        17        20        24     9        0.000000       -0.000289         1
        16        17        20        24     9      180.000000        2.079647         2
        16        17        20        24     9        0.000000       -0.058954         3
        16        17        20        24     9      180.000000       -0.243068         4
        17        16        15        37     9        0.000000       -0.019661         1
        17        16        15        37     9      180.000000       14.564297         2
        17        16        15        37     9        0.000000       -0.438149         3
        17        16        15        37     9      180.000000        0.148899         4
        17        18        19        40     9        0.000000       -0.019661         1
        17        18        19        40     9      180.000000       14.564298         2
        17        18        19        40     9        0.000000       -0.438149         3
        17        18        19        40     9      180.000000        0.148899         4
        17        20        21        22     9        0.000000        0.183654         1
        17        20        21        22     9      180.000000       16.330189         2
        17        20        21        22     9        0.000000       -0.168639         3
        17        20        21        22     9      180.000000       -0.945094         4
        17        20        21        41     9        0.000000       -0.192731         1
        17        20        21        41     9      180.000000       10.764578         2
        17        20        21        41     9        0.000000       -0.137823         3
        17        20        21        41     9      180.000000       -0.003216         4
        17        20        24        23     9        0.000000        0.388880         1
        17        20        24        23     9      180.000000       15.245298         2
        17        20        24        23     9        0.000000       -0.357893         3
        17        20        24        23     9      180.000000       -0.981862         4
        17        20        24        42     9        0.000000       -0.157977         1
        17        20        24        42     9      180.000000       10.350387         2
        17        20        24        42     9        0.000000       -0.025513         3
        17        20        24        42     9      180.000000        0.047765         4
        18        17        16        38     9        0.000000       -0.122536         1
        18        17        16        38     9      180.000000       13.854594         2
        18        17        16        38     9        0.000000       -0.550856         3
        18        17        16        38     9      180.000000        0.073352         4
        18        17        20        21     9        0.000000        0.226385         1
        18        17        20        21     9      180.000000        2.444068         2
        18        17        20        21     9        0.000000        0.075300         3
        18        17        20        21     9      180.000000       -0.310311         4
        18        17        20        24     9        0.000000       -0.000289         1
        18        17        20        24     9      180.000000        2.079647         2
        18        17        20        24     9        0.000000       -0.058954         3
        18        17        20        24     9      180.000000       -0.243068         4
        19        14        10        35     9        0.000000        0.026652         1
        19        14        10        35     9      180.000000        0.014947         2
        19        14        10        35     9        0.000000        0.013547         3
        19        14        10        35     9      180.000000        0.009027         4
        19        14        10        36     9        0.000000        0.026652         1
        19        14        10        36     9      180.000000        0.014947         2
        19        14        10        36     9        0.000000        0.013547         3
        19        14        10        36     9      180.000000        0.009027         4
        19        14        15        37     9        0.000000        0.019722         1
        19        14        15        37     9      180.000000       14.478141         2
        19        14        15        37     9        0.000000       -0.483578         3
        19        14        15        37     9      180.000000        0.000311         4
        19        18        17        20     9        0.000000        0.345560         1
        19        18        17        20     9      180.000000       16.650203         2
        19        18        17        20     9        0.000000       -0.115710         3
        19        18        17        20     9      180.000000       -0.388262         4
        20        17        16        38     9        0.000000        0.146898         1
        20        17        16        38     9      180.000000       13.479040         2
        20        17        16        38     9        0.000000       -0.087547         3
        20        17        16        38     9      180.000000        0.132717         4
        20        17        18        39     9        0.000000        0.146898         1
        20        17        18        39     9      180.000000       13.479040         2
        20        17        18        39     9        0.000000       -0.087547         3
        20        17        18        39     9      180.000000        0.132717         4
        20        21        22        23     9        0.000000       -0.009121         1
        20        21        22        23     9      180.000000       30.745141         2
        20        21        22        23     9        0.000000       -6.250990         3
        20        21        22        23     9      180.000000       -0.578339         4
        20        21        22        25     9        0.000000        0.805845         1
        20        21        22        25     9      180.000000        7.183529         2
        20        21        22        25     9        0.000000        0.904760         3
        20        21        22        25     9      180.000000       -0.006099         4
        20        24        23        22     9        0.000000       -0.003186         1
        20        24        23        22     9      180.000000       40.723745         2
        20        24        23        22     9        0.000000       -5.801977         3
        20        24        23        22     9      180.000000       -0.138216         4
        21        20        24        23     9        0.000000       -0.184323         1
        21        20        24        23     9      180.000000       30.518446         2
        21        20        24        23     9        0.000000       -8.302201         3
        21        20        24        23     9      180.000000        0.056566         4
        21        20        24        42     9        0.000000        0.182830         1
        21        20        24        42     9      180.000000       14.435368         2
        21        20        24        42     9        0.000000       -0.577632         3
        21        20        24        42     9      180.000000       -0.486645         4
        21        22        23        24     9        0.000000       -0.276705         1
        21        22        23        24     9      180.000000       27.814030         2
        21        22        23        24     9        0.000000       -4.425871         3
        21        22        23        24     9      180.000000        0.073279         4
        21        22        25        43     9        0.000000       -0.025034         1
        21        22        25        43     9      180.000000       -0.009391         2
        21        22        25        43     9        0.000000        0.181958         3
        21        22        25        43     9      180.000000        0.012892         4
        21        22        25        44     9        0.000000       -0.025034         1
        21        22        25        44     9      180.000000       -0.009391         2
        21        22        25        44     9        0.000000        0.181958         3
        21        22        25        44     9      180.000000        0.012892         4
        21        22        25        45     9        0.000000       -0.025034         1
        21        22        25        45     9      180.000000       -0.009391         2
        21        22        25        45     9        0.000000        0.181958         3
        21        22        25        45     9      180.000000        0.012892         4
        22        21        20        24     9        0.000000       -0.206975         1
        22        21        20        24     9      180.000000       30.618729         2
        22        21        20        24     9        0.000000       -8.507334         3
        22        21        20        24     9      180.000000       -0.023863         4
        22        23        24        42     9        0.000000        1.030702         1
        22        23        24        42     9      180.000000       28.071183         2
        22        23        24        42     9        0.000000       -0.182231         3
        22        23        24        42     9      180.000000       -0.061982         4
        23        22        21        41     9        0.000000        1.067261         1
        23        22        21        41     9      180.000000       12.367244         2
        23        22        21        41     9        0.000000        0.213521         3
        23        22        21        41     9      180.000000       -0.400032         4
        23        22        25        43     9        0.000000       -0.002235         1
        23        22        25        43     9      180.000000        0.002811         2
        23        22        25        43     9        0.000000        0.198678         3
        23        22        25        43     9      180.000000        0.004453         4
        23        22        25        44     9        0.000000       -0.002235         1
        23        22        25        44     9      180.000000        0.002811         2
        23        22        25        44     9        0.000000        0.198678         3
        23        22        25        44     9      180.000000        0.004453         4
        23        22        25        45     9        0.000000       -0.002235         1
        23        22        25        45     9      180.000000        0.002811         2
        23        22        25        45     9        0.000000        0.198678         3
        23        22        25        45     9      180.000000        0.004453         4
        24        20        21        41     9        0.000000        0.010232         1
        24        20        21        41     9      180.000000       13.254580         2
        24        20        21        41     9        0.000000       -0.641023         3
        24        20        21        41     9      180.000000       -0.261573         4
        24        23        22        25     9        0.000000        0.586693         1
        24        23        22        25     9      180.000000       10.298364         2
        24        23        22        25     9        0.000000        0.792012         3
        24        23        22        25     9      180.000000       -0.113382         4
        25        22        21        41     9        0.000000       -0.493730         1
        25        22        21        41     9      180.000000        3.995450         2
        25        22        21        41     9        0.000000        0.087170         3
        25        22        21        41     9      180.000000        0.043642         4
        26        11        28        27     9        0.000000       -0.021233         1
        26        11        28        27     9      180.000000       15.820978         2
        26        11        28        27     9        0.000000       -1.475282         3
        26        11        28        27     9      180.000000       -2.027860         4
        26        11        28        48     9        0.000000        0.021287         1
        26        11        28        48     9      180.000000        0.156985         2
        26        11        28        48     9        0.000000       -0.022669         3
        26        11        28        48     9      180.000000        0.343857         4
        26        11        28        49     9        0.000000        0.021287         1
        26        11        28        49     9      180.000000        0.156985         2
        26        11        28        49     9        0.000000       -0.022669         3
        26        11        28        49     9      180.000000        0.343857         4
        26        27        28        48     9        0.000000        0.031268         1
        26        27        28        48     9      180.000000       -0.219288         2
        26        27        28        48     9        0.000000       -0.005683         3
        26        27        28        48     9      180.000000        0.550615         4
        26        27        28        49     9        0.000000        0.031268         1
        26        27        28        49     9      180.000000       -0.219288         2
        26        27        28        49     9        0.000000       -0.005683         3
        26        27        28        49     9      180.000000        0.550615         4
        27        26        11        28     9        0.000000       -0.021233         1
        27        26        11        28     9      180.000000       15.820978         2
        27        26        11        28     9        0.000000       -1.475282         3
        27        26        11        28     9      180.000000       -2.027860         4
        28        11        26        46     9        0.000000        0.021287         1
        28        11        26        46     9      180.000000        0.156985         2
        28        11        26        46     9        0.000000       -0.022669         3
        28        11        26        46     9      180.000000        0.343857         4
        28        11        26        47     9        0.000000        0.021287         1
        28        11        26        47     9      180.000000        0.156985         2
        28        11        26        47     9        0.000000       -0.022669         3
        28        11        26        47     9      180.000000        0.343857         4
        28        27        26        46     9        0.000000        0.031268         1
        28        27        26        46     9      180.000000       -0.219288         2
        28        27        26        46     9        0.000000       -0.005683         3
        28        27        26        46     9      180.000000        0.550615         4
        28        27        26        47     9        0.000000        0.031268         1
        28        27        26        47     9      180.000000       -0.219288         2
        28        27        26        47     9        0.000000       -0.005683         3
        28        27        26        47     9      180.000000        0.550615         4
        29        27        26        46     9        0.000000        0.016186         1
        29        27        26        46     9      180.000000       -0.546901         2
        29        27        26        46     9        0.000000        0.950975         3
        29        27        26        46     9      180.000000       -0.034168         4
        29        27        26        47     9        0.000000        0.016186         1
        29        27        26        47     9      180.000000       -0.546901         2
        29        27        26        47     9        0.000000        0.950975         3
        29        27        26        47     9      180.000000       -0.034168         4
        29        27        28        48     9        0.000000        0.016186         1
        29        27        28        48     9      180.000000       -0.546901         2
        29        27        28        48     9        0.000000        0.950975         3
        29        27        28        48     9      180.000000       -0.034168         4
        29        27        28        49     9        0.000000        0.016186         1
        29        27        28        49     9      180.000000       -0.546901         2
        29        27        28        49     9        0.000000        0.950975         3
        29        27        28        49     9      180.000000       -0.034168         4
        30        27        26        46     9        0.000000        0.016186         1
        30        27        26        46     9      180.000000       -0.546901         2
        30        27        26        46     9        0.000000        0.950975         3
        30        27        26        46     9      180.000000       -0.034168         4
        30        27        26        47     9        0.000000        0.016186         1
        30        27        26        47     9      180.000000       -0.546901         2
        30        27        26        47     9        0.000000        0.950975         3
        30        27        26        47     9      180.000000       -0.034168         4
        30        27        28        48     9        0.000000        0.016186         1
        30        27        28        48     9      180.000000       -0.546901         2
        30        27        28        48     9        0.000000        0.950975         3
        30        27        28        48     9      180.000000       -0.034168         4
        30        27        28        49     9        0.000000        0.016186         1
        30        27        28        49     9      180.000000       -0.546901         2
        30        27        28        49     9        0.000000        0.950975         3
        30        27        28        49     9      180.000000       -0.034168         4
        32         3         4        33     9        0.000000       -0.078678         1
        32         3         4        33     9      180.000000       12.576921         2
        32         3         4        33     9        0.000000       -0.684070         3
        32         3         4        33     9      180.000000        0.292368         4
        37        15        16        38     9        0.000000       -0.173270         1
        37        15        16        38     9      180.000000       12.433055         2
        37        15        16        38     9        0.000000       -0.660707         3
        37        15        16        38     9      180.000000        0.303153         4
        39        18        19        40     9        0.000000       -0.173269         1
        39        18        19        40     9      180.000000       12.433055         2
        39        18        19        40     9        0.000000       -0.660707         3
        39        18        19        40     9      180.000000        0.303153         4

[ dihedrals ] ; impropers
;       ai        aj        ak        al funct           phase               k        pn
         2         1         6        31     4      180.000000        1.781806         2
         2         6        31         1     4      180.000000        1.781806         2
         2        31         1         6     4      180.000000        1.781806         2
        12         1        11        13     4      180.000000       21.758859         2
        12        11        13         1     4      180.000000       21.758859         2
        12        13         1        11     4      180.000000       21.758859         2
        15        14        16        37     4      180.000000        1.374161         2
        15        16        37        14     4      180.000000        1.374161         2
        15        37        14        16     4      180.000000        1.374161         2
        19        14        18        40     4      180.000000        1.374160         2
        19        18        40        14     4      180.000000        1.374160         2
        19        40        14        18     4      180.000000        1.374160         2

[ pairs ]
;       ai        aj funct
         1         5     1
         1         7     1
         1        26     1
         1        28     1
         1        32     1
         2         3     1
         2         8     1
         2         9     1
         2        10     1
         2        11     1
         2        13     1
         2        33     1
         3         7     1
         3         8     1
         3        12     1
         3        34     1
         4         6     1
         4         9     1
         4        11     1
         4        13     1
         4        31     1
         5        10     1
         5        31     1
         5        33     1
         6        12     1
         6        14     1
         6        32     1
         6        34     1
         6        35     1
         6        36     1
         7        15     1
         7        19     1
         7        31     1
         7        34     1
         8        14     1
         8        35     1
         8        36     1
         9        10     1
         9        32     1
        10        16     1
        10        18     1
        10        37     1
        10        40     1
        11        29     1
        11        30     1
        12        27     1
        12        31     1
        12        33     1
        12        46     1
        12        47     1
        12        48     1
        12        49     1
        13        26     1
        13        28     1
        14        17     1
        14        38     1
        14        39     1
        15        18     1
        15        20     1
        15        35     1
        15        36     1
        15        40     1
        16        19     1
        16        21     1
        16        24     1
        16        39     1
        17        22     1
        17        23     1
        17        37     1
        17        40     1
        17        41     1
        17        42     1
        18        21     1
        18        24     1
        18        38     1
        19        20     1
        19        35     1
        19        36     1
        19        37     1
        20        25     1
        20        38     1
        20        39     1
        21        42     1
        21        43     1
        21        44     1
        21        45     1
        22        42     1
        23        41     1
        23        43     1
        23        44     1
        23        45     1
        24        25     1
        24        41     1
        25        41     1
        26        48     1
        26        49     1
        28        46     1
        28        47     1
        29        46     1
        29        47     1
        29        48     1
        29        49     1
        30        46     1
        30        47     1
        30        48     1
        30        49     1
        32        33     1
        37        38     1
        39        40     1
