; ITP file created by ByteFF-ML, 2026-02-21 07:35:03.738153

[ atomtypes ]
;name           bonded.type        at.num        mass        charge   ptype           sigma         epsilon
 c0bf                                   6      0.0000       0.00000       A     3.31447e-01     4.11839e-01
 c1bf                                   6      0.0000       0.00000       A     3.31437e-01     4.13463e-01
 c2bf                                   6      0.0000       0.00000       A     3.31517e-01     4.12539e-01
 c3bf                                   6      0.0000       0.00000       A     3.31568e-01     4.12929e-01
 c4bf                                   6      0.0000       0.00000       A     3.31529e-01     4.12453e-01
 c5bf                                   6      0.0000       0.00000       A     3.31504e-01     4.11661e-01
 c6bf                                   6      0.0000       0.00000       A     3.31450e-01     4.11740e-01
 n7bf                                   7      0.0000       0.00000       A     3.38151e-01     3.91342e-01
 n8bf                                   7      0.0000       0.00000       A     3.20440e-01     8.58154e-01
 c9bf                                   6      0.0000       0.00000       A     3.39892e-01     4.51463e-01
 n10bf                                  7      0.0000       0.00000       A     3.18235e-01     6.86367e-01
 c11bf                                  6      0.0000       0.00000       A     3.31610e-01     4.12222e-01
 o12bf                                  8      0.0000       0.00000       A     3.04680e-01     6.14503e-01
 c13bf                                  6      0.0000       0.00000       A     3.31526e-01     4.13182e-01
 c14bf                                  6      0.0000       0.00000       A     3.31408e-01     4.13210e-01
 c15bf                                  6      0.0000       0.00000       A     3.31502e-01     4.12536e-01
 c16bf                                  6      0.0000       0.00000       A     3.31322e-01     4.13227e-01
 c17bf                                  6      0.0000       0.00000       A     3.31502e-01     4.12536e-01
 c18bf                                  6      0.0000       0.00000       A     3.31408e-01     4.13210e-01
 c19bf                                  6      0.0000       0.00000       A     3.31350e-01     4.11687e-01
 c20bf                                  6      0.0000       0.00000       A     3.31475e-01     4.11821e-01
 n21bf                                  7      0.0000       0.00000       A     3.20558e-01     8.54076e-01
 n22bf                                  7      0.0000       0.00000       A     3.38391e-01     3.93249e-01
 c23bf                                  6      0.0000       0.00000       A     3.31594e-01     4.13789e-01
 c24bf                                  6      0.0000       0.00000       A     3.39839e-01     4.51932e-01
 c25bf                                  6      0.0000       0.00000       A     3.39700e-01     4.51378e-01
 c26bf                                  6      0.0000       0.00000       A     3.39748e-01     4.50104e-01
 c27bf                                  6      0.0000       0.00000       A     3.39748e-01     4.50104e-01
 c28bf                                  6      0.0000       0.00000       A     3.39700e-01     4.51378e-01
 h29bf                                  1      0.0000       0.00000       A     2.62420e-01     6.68753e-02
 h30bf                                  1      0.0000       0.00000       A     2.62471e-01     6.70892e-02
 h31bf                                  1      0.0000       0.00000       A     2.62611e-01     6.73573e-02
 h32bf                                  1      0.0000       0.00000       A     1.10602e-01     4.12983e-02
 h33bf                                  1      0.0000       0.00000       A     2.60090e-01     8.80823e-02
 h34bf                                  1      0.0000       0.00000       A     2.60090e-01     8.80823e-02
 h35bf                                  1      0.0000       0.00000       A     2.62498e-01     6.75473e-02
 h36bf                                  1      0.0000       0.00000       A     2.62482e-01     6.74643e-02
 h37bf                                  1      0.0000       0.00000       A     2.62482e-01     6.74643e-02
 h38bf                                  1      0.0000       0.00000       A     2.62498e-01     6.75473e-02
 h39bf                                  1      0.0000       0.00000       A     2.53807e-01     6.74898e-02
 h40bf                                  1      0.0000       0.00000       A     2.53933e-01     6.69200e-02
 h41bf                                  1      0.0000       0.00000       A     2.41990e-01     8.77359e-02
 h42bf                                  1      0.0000       0.00000       A     2.41990e-01     8.77359e-02
 h43bf                                  1      0.0000       0.00000       A     2.41990e-01     8.77359e-02
 h44bf                                  1      0.0000       0.00000       A     2.42100e-01     8.71246e-02
 h45bf                                  1      0.0000       0.00000       A     2.42100e-01     8.71246e-02
 h46bf                                  1      0.0000       0.00000       A     2.60194e-01     8.69060e-02
 h47bf                                  1      0.0000       0.00000       A     2.60194e-01     8.69060e-02
 h48bf                                  1      0.0000       0.00000       A     2.60194e-01     8.69060e-02
 h49bf                                  1      0.0000       0.00000       A     2.60194e-01     8.69060e-02
 h50bf                                  1      0.0000       0.00000       A     2.42100e-01     8.71246e-02
 h51bf                                  1      0.0000       0.00000       A     2.42100e-01     8.71246e-02

[ moleculetype ]
;name             nrexcl
 37                    3

[ atoms ]
;       nr            type      resi   res      atom      cgnr      charge          mass ; qtot
         1            c0bf         1   UNL        c0         1    -0.18966       12.0110 ; qtot   -0.190
         2            c1bf         1   UNL        c1         2     0.02054       12.0110 ; qtot   -0.169
         3            c2bf         1   UNL        c2         3    -0.15282       12.0110 ; qtot   -0.322
         4            c3bf         1   UNL        c3         4    -0.04037       12.0110 ; qtot   -0.362
         5            c4bf         1   UNL        c4         5    -0.00010       12.0110 ; qtot   -0.362
         6            c5bf         1   UNL        c5         6    -0.23644       12.0110 ; qtot   -0.599
         7            c6bf         1   UNL        c6         7     0.35969       12.0110 ; qtot   -0.239
         8            n7bf         1   UNL        n7         8    -0.50659       14.0070 ; qtot   -0.746
         9            n8bf         1   UNL        n8         9    -0.08032       14.0070 ; qtot   -0.826
        10            c9bf         1   UNL        c9        10    -0.03975       12.0110 ; qtot   -0.866
        11           n10bf         1   UNL       n10        11    -0.41877       14.0070 ; qtot   -1.285
        12           c11bf         1   UNL       c11        12     0.61518       12.0110 ; qtot   -0.669
        13           o12bf         1   UNL       o12        13    -0.60045       15.9990 ; qtot   -1.270
        14           c13bf         1   UNL       c13        14    -0.08002       12.0110 ; qtot   -1.350
        15           c14bf         1   UNL       c14        15    -0.10203       12.0110 ; qtot   -1.452
        16           c15bf         1   UNL       c15        16    -0.11007       12.0110 ; qtot   -1.562
        17           c16bf         1   UNL       c16        17     0.00438       12.0110 ; qtot   -1.558
        18           c17bf         1   UNL       c17        18    -0.11007       12.0110 ; qtot   -1.668
        19           c18bf         1   UNL       c18        19    -0.10203       12.0110 ; qtot   -1.770
        20           c19bf         1   UNL       c19        20    -0.16403       12.0110 ; qtot   -1.934
        21           c20bf         1   UNL       c20        21    -0.14400       12.0110 ; qtot   -2.078
        22           n21bf         1   UNL       n21        22     0.11171       14.0070 ; qtot   -1.966
        23           n22bf         1   UNL       n22        23    -0.52174       14.0070 ; qtot   -2.488
        24           c23bf         1   UNL       c23        24     0.25349       12.0110 ; qtot   -2.234
        25           c24bf         1   UNL       c24        25     0.07027       12.0110 ; qtot   -2.164
        26           c25bf         1   UNL       c25        26     0.09686       12.0110 ; qtot   -2.067
        27           c26bf         1   UNL       c26        27    -0.09591       12.0110 ; qtot   -2.163
        28           c27bf         1   UNL       c27        28    -0.09591       12.0110 ; qtot   -2.259
        29           c28bf         1   UNL       c28        29     0.09686       12.0110 ; qtot   -2.162
        30           h29bf         1   UNL       h29        30     0.13568        1.0080 ; qtot   -2.026
        31           h30bf         1   UNL       h30        31     0.12854        1.0080 ; qtot   -1.898
        32           h31bf         1   UNL       h31        32     0.12679        1.0080 ; qtot   -1.771
        33           h32bf         1   UNL       h32        33     0.37621        1.0080 ; qtot   -1.395
        34           h33bf         1   UNL       h33        34     0.06255        1.0080 ; qtot   -1.332
        35           h34bf         1   UNL       h34        35     0.06255        1.0080 ; qtot   -1.270
        36           h35bf         1   UNL       h35        36     0.11797        1.0080 ; qtot   -1.152
        37           h36bf         1   UNL       h36        37     0.11784        1.0080 ; qtot   -1.034
        38           h37bf         1   UNL       h37        38     0.11784        1.0080 ; qtot   -0.916
        39           h38bf         1   UNL       h38        39     0.11797        1.0080 ; qtot   -0.798
        40           h39bf         1   UNL       h39        40     0.15375        1.0080 ; qtot   -0.644
        41           h40bf         1   UNL       h40        41     0.03800        1.0080 ; qtot   -0.606
        42           h41bf         1   UNL       h41        42     0.05817        1.0080 ; qtot   -0.548
        43           h42bf         1   UNL       h42        43     0.05817        1.0080 ; qtot   -0.490
        44           h43bf         1   UNL       h43        44     0.05817        1.0080 ; qtot   -0.432
        45           h44bf         1   UNL       h44        45     0.05394        1.0080 ; qtot   -0.378
        46           h45bf         1   UNL       h45        46     0.05394        1.0080 ; qtot   -0.324
        47           h46bf         1   UNL       h46        47     0.05403        1.0080 ; qtot   -0.270
        48           h47bf         1   UNL       h47        48     0.05403        1.0080 ; qtot   -0.216
        49           h48bf         1   UNL       h48        49     0.05403        1.0080 ; qtot   -0.162
        50           h49bf         1   UNL       h49        50     0.05403        1.0080 ; qtot   -0.108
        51           h50bf         1   UNL       h50        51     0.05394        1.0080 ; qtot   -0.054
        52           h51bf         1   UNL       h51        52     0.05396        1.0080 ; qtot   -0.000

[ bonds ]
;       ai        aj funct               r               k
         1         2     1        0.139249   313568.327344
         1         4     1        0.142174   260188.822656
         1        12     1        0.150029   180654.044556
         2         6     1        0.140371   306033.143555
         2        30     1        0.108531   321810.199561
         3         4     1        0.138670   344091.506250
         3         5     1        0.140627   300249.422412
         3        31     1        0.108560   321165.796143
         4        32     1        0.108510   322041.642383
         5         6     1        0.141872   251534.449512
         5         9     1        0.136842   290575.199268
         6         7     1        0.143777   232917.947852
         7         8     1        0.132649   371345.986230
         7        10     1        0.150274   213625.644897
         8         9     1        0.136401   241851.313916
         9        33     1        0.100927   434980.632227
        10        14     1        0.151889   191838.442969
        10        34     1        0.109486   294999.682227
        10        35     1        0.109486   294999.682227
        11        12     1        0.136831   289478.252734
        11        26     1        0.147580   171539.033032
        11        29     1        0.147580   171539.033032
        12        13     1        0.123703   576219.744531
        14        15     1        0.140132   290757.355469
        14        19     1        0.140132   290757.355469
        15        16     1        0.139531   320296.512939
        15        36     1        0.108704   315886.049854
        16        17     1        0.140685   283825.179443
        16        37     1        0.108584   318696.102295
        17        18     1        0.140685   283825.179443
        17        20     1        0.146859   235591.683203
        18        19     1        0.139531   320296.512939
        18        38     1        0.108584   318696.102295
        19        39     1        0.108704   315886.075391
        20        21     1        0.139499   320805.390918
        20        24     1        0.142378   259368.136572
        21        22     1        0.135856   314480.283057
        21        40     1        0.108071   337590.039111
        22        23     1        0.135354   242037.913574
        22        25     1        0.145314   224810.528516
        23        24     1        0.133400   358572.221973
        24        41     1        0.108233   332445.307520
        25        42     1        0.109196   305692.172070
        25        43     1        0.109196   305692.172070
        25        44     1        0.109196   305692.172070
        26        27     1        0.153559   175352.974780
        26        45     1        0.109412   297114.844385
        26        46     1        0.109412   297114.844385
        27        28     1        0.153790   173443.309741
        27        47     1        0.109349   306123.979053
        27        48     1        0.109349   306123.979053
        28        29     1        0.153559   175352.949243
        28        49     1        0.109349   306123.979053
        28        50     1        0.109349   306123.979053
        29        51     1        0.109412   297114.818848
        29        52     1        0.109412   297114.818848

[ angles ]
;       ai        aj        ak funct           theta             cth
         1         2         6     1      118.795616      675.409491
         1         2        30     1      120.012672      384.877788
         1         4         3     1      121.999634      629.007733
         1         4        32     1      118.575562      403.451183
         1        12        11     1      118.038475      437.005316
         1        12        13     1      120.622665      583.890301
         2         1         4     1      120.323097      660.769513
         2         1        12     1      119.583107      503.386989
         2         6         5     1      119.812096      755.459199
         2         6         7     1      135.465103      444.739166
         3         4        32     1      119.507812      404.808767
         3         5         6     1      121.824631      618.866947
         3         5         9     1      132.474304      482.697685
         4         1        12     1      120.074852      561.819343
         4         3         5     1      117.087341      769.723718
         4         3        31     1      121.224754      433.269397
         5         3        31     1      121.953995      432.932467
         5         6         7     1      104.813095      486.202749
         5         9         8     1      112.338623      425.015069
         5         9        33     1      128.734390      380.960906
         6         2        30     1      121.162453      398.919878
         6         5         9     1      105.799759      167.360000
         6         7         8     1      110.711021      353.241619
         6         7        10     1      127.830055      446.680306
         7         8         9     1      106.500710      544.611736
         7        10        14     1      113.105606      519.623132
         7        10        34     1      108.500137      514.066289
         7        10        35     1      108.500137      514.066289
         8         7        10     1      121.625832      449.673829
         8         9        33     1      118.789017      482.596877
        10        14        15     1      120.885033      486.548234
        10        14        19     1      120.885033      486.548234
        11        12        13     1      121.266830      638.324884
        11        26        27     1      103.536888      557.120068
        11        26        45     1      110.381348      441.698846
        11        26        46     1      110.381348      441.698846
        11        29        28     1      103.536888      557.120068
        11        29        51     1      110.381348      441.698846
        11        29        52     1      110.381348      441.698846
        12        11        26     1      122.545143      457.001703
        12        11        29     1      122.545143      457.001703
        14        10        34     1      109.614029      493.993834
        14        10        35     1      109.614029      493.993834
        14        15        16     1      120.959518      705.842064
        14        15        36     1      119.502907      394.245725
        14        19        18     1      120.959518      705.842064
        14        19        39     1      119.502907      394.245725
        15        14        19     1      118.250145      711.225989
        15        16        17     1      121.013084      708.028679
        15        16        37     1      119.370682      427.621195
        16        15        36     1      119.522682      426.792643
        16        17        18     1      117.633606      614.164480
        16        17        20     1      121.173790      498.107383
        17        16        37     1      119.674911      429.339523
        17        18        19     1      121.013084      708.028679
        17        18        38     1      119.674911      429.339523
        17        20        21     1      127.875488      501.485943
        17        20        24     1      128.618073      539.877859
        18        17        20     1      121.173790      498.107383
        18        19        39     1      119.522682      426.792643
        19        18        38     1      119.370682      427.621195
        20        21        22     1      107.253334      167.360000
        20        21        40     1      131.309311      330.526743
        20        24        23     1      111.985497      241.969059
        20        24        41     1      128.583298      361.836739
        21        20        24     1      103.527756      370.968905
        21        22        23     1      112.317947      213.505126
        21        22        25     1      128.036591      424.086540
        22        21        40     1      121.687912      464.045604
        22        23        24     1      104.970230      567.675768
        22        25        42     1      109.593651      496.372137
        22        25        43     1      109.593651      496.372137
        22        25        44     1      109.593651      496.372137
        23        22        25     1      119.401001      615.866209
        23        24        41     1      119.394226      391.030699
        26        11        29     1      111.710487      403.532550
        26        27        28     1      103.226540      542.926734
        26        27        47     1      111.036011      482.366118
        26        27        48     1      111.036011      482.366118
        27        26        45     1      112.365685      452.686730
        27        26        46     1      112.365685      452.686730
        27        28        29     1      103.226540      542.926734
        27        28        49     1      111.655472      484.162143
        27        28        50     1      111.655472      484.162143
        28        27        47     1      111.655472      484.162143
        28        27        48     1      111.655472      484.162143
        28        29        51     1      112.365685      452.686730
        28        29        52     1      112.365685      452.686730
        29        28        49     1      111.036011      482.366118
        29        28        50     1      111.036011      482.366118
        34        10        35     1      106.967346      364.175843
        42        25        43     1      109.444870      349.033390
        42        25        44     1      109.444870      349.033390
        43        25        44     1      109.444870      349.033390
        45        26        46     1      107.713524      345.007816
        47        27        48     1      107.997292      356.503601
        49        28        50     1      107.997299      356.503601
        51        29        52     1      107.713516      345.007784

[ dihedrals ] ; propers for gromacs 4.5 or higher, use funct 9
;       ai        aj        ak        al funct           phase               k        pn
         1         2         6         5     9        0.000000       -0.128170         1
         1         2         6         5     9      180.000000       19.135886         2
         1         2         6         5     9        0.000000       -2.362157         3
         1         2         6         5     9      180.000000       -0.459193         4
         1         2         6         7     9        0.000000       -0.576589         1
         1         2         6         7     9      180.000000       13.351841         2
         1         2         6         7     9        0.000000       -0.918907         3
         1         2         6         7     9      180.000000       -0.206003         4
         1         4         3         5     9        0.000000       -0.219018         1
         1         4         3         5     9      180.000000       21.522917         2
         1         4         3         5     9        0.000000       -1.575408         3
         1         4         3         5     9      180.000000       -0.601458         4
         1         4         3        31     9        0.000000        0.090789         1
         1         4         3        31     9      180.000000       14.711935         2
         1         4         3        31     9        0.000000       -0.493178         3
         1         4         3        31     9      180.000000        0.135804         4
         1        12        11        26     9        0.000000        3.699741         1
         1        12        11        26     9      180.000000        9.697995         2
         1        12        11        26     9        0.000000        1.135705         3
         1        12        11        26     9      180.000000       -0.290343         4
         1        12        11        29     9        0.000000        3.699741         1
         1        12        11        29     9      180.000000        9.697995         2
         1        12        11        29     9        0.000000        1.135705         3
         1        12        11        29     9      180.000000       -0.290342         4
         2         1         4         3     9        0.000000        0.124613         1
         2         1         4         3     9      180.000000       17.025443         2
         2         1         4         3     9        0.000000       -1.114628         3
         2         1         4         3     9      180.000000       -0.304047         4
         2         1         4        32     9        0.000000        0.151478         1
         2         1         4        32     9      180.000000       12.571940         2
         2         1         4        32     9        0.000000       -0.564456         3
         2         1         4        32     9      180.000000        0.110795         4
         2         1        12        11     9        0.000000       -0.412873         1
         2         1        12        11     9      180.000000        4.646558         2
         2         1        12        11     9        0.000000       -0.248876         3
         2         1        12        11     9      180.000000        0.324267         4
         2         1        12        13     9        0.000000        0.825042         1
         2         1        12        13     9      180.000000        3.129777         2
         2         1        12        13     9        0.000000        0.094960         3
         2         1        12        13     9      180.000000        0.138034         4
         2         6         5         3     9        0.000000       -0.181542         1
         2         6         5         3     9      180.000000       10.822353         2
         2         6         5         3     9        0.000000       -1.570633         3
         2         6         5         3     9      180.000000       -0.089876         4
         2         6         5         9     9        0.000000        0.232442         1
         2         6         5         9     9      180.000000        9.466105         2
         2         6         5         9     9        0.000000       -1.977555         3
         2         6         5         9     9      180.000000        0.140197         4
         2         6         7         8     9        0.000000       -0.208247         1
         2         6         7         8     9      180.000000        4.137702         2
         2         6         7         8     9        0.000000       -0.830644         3
         2         6         7         8     9      180.000000        0.061840         4
         2         6         7        10     9        0.000000       -0.329189         1
         2         6         7        10     9      180.000000        4.365486         2
         2         6         7        10     9        0.000000        0.261036         3
         2         6         7        10     9      180.000000        0.070252         4
         3         4         1        12     9        0.000000        0.062320         1
         3         4         1        12     9      180.000000       13.266151         2
         3         4         1        12     9        0.000000       -0.162390         3
         3         4         1        12     9      180.000000       -0.263240         4
         3         5         6         7     9        0.000000        0.013498         1
         3         5         6         7     9      180.000000       11.361916         2
         3         5         6         7     9        0.000000       -2.379254         3
         3         5         6         7     9      180.000000       -0.032333         4
         3         5         9         8     9        0.000000        1.386494         1
         3         5         9         8     9      180.000000        5.476764         2
         3         5         9         8     9        0.000000        0.475234         3
         3         5         9         8     9      180.000000       -0.028473         4
         3         5         9        33     9        0.000000       -0.152200         1
         3         5         9        33     9      180.000000        1.455402         2
         3         5         9        33     9        0.000000        0.111501         3
         3         5         9        33     9      180.000000       -0.112517         4
         4         1         2         6     9        0.000000       -0.058411         1
         4         1         2         6     9      180.000000       20.815637         2
         4         1         2         6     9        0.000000       -1.362546         3
         4         1         2         6     9      180.000000       -0.635939         4
         4         1         2        30     9        0.000000        0.120473         1
         4         1         2        30     9      180.000000       14.360174         2
         4         1         2        30     9        0.000000       -0.437615         3
         4         1         2        30     9      180.000000       -0.032111         4
         4         1        12        11     9        0.000000       -0.059716         1
         4         1        12        11     9      180.000000        4.947480         2
         4         1        12        11     9        0.000000       -0.165741         3
         4         1        12        11     9      180.000000        0.341010         4
         4         1        12        13     9        0.000000       -0.118844         1
         4         1        12        13     9      180.000000        3.269749         2
         4         1        12        13     9        0.000000        0.006159         3
         4         1        12        13     9      180.000000        0.149026         4
         4         3         5         6     9        0.000000       -0.195630         1
         4         3         5         6     9      180.000000       16.798157         2
         4         3         5         6     9        0.000000       -1.830202         3
         4         3         5         6     9      180.000000       -0.306091         4
         4         3         5         9     9        0.000000        0.196608         1
         4         3         5         9     9      180.000000       13.162746         2
         4         3         5         9     9        0.000000       -0.074610         3
         4         3         5         9     9      180.000000       -0.089704         4
         5         3         4        32     9        0.000000        0.122788         1
         5         3         4        32     9      180.000000       16.914239         2
         5         3         4        32     9        0.000000       -0.551290         3
         5         3         4        32     9      180.000000       -0.062160         4
         5         6         2        30     9        0.000000        0.316622         1
         5         6         2        30     9      180.000000       14.122379         2
         5         6         2        30     9        0.000000       -0.283270         3
         5         6         2        30     9      180.000000       -0.172459         4
         5         6         7         8     9        0.000000       -0.164422         1
         5         6         7         8     9      180.000000       30.969990         2
         5         6         7         8     9        0.000000       -9.489348         3
         5         6         7         8     9      180.000000       -0.198362         4
         5         6         7        10     9        0.000000        0.894925         1
         5         6         7        10     9      180.000000       14.515119         2
         5         6         7        10     9        0.000000        0.081728         3
         5         6         7        10     9      180.000000       -0.586549         4
         5         9         8         7     9        0.000000       -0.211795         1
         5         9         8         7     9      180.000000       17.216046         2
         5         9         8         7     9        0.000000       -2.171080         3
         5         9         8         7     9      180.000000       -1.162629         4
         6         2         1        12     9        0.000000       -0.063918         1
         6         2         1        12     9      180.000000       16.813912         2
         6         2         1        12     9        0.000000       -0.103807         3
         6         2         1        12     9      180.000000       -0.641571         4
         6         5         3        31     9        0.000000        0.112331         1
         6         5         3        31     9      180.000000       11.310826         2
         6         5         3        31     9        0.000000       -0.313186         3
         6         5         3        31     9      180.000000        0.009255         4
         6         5         9         8     9        0.000000        0.391452         1
         6         5         9         8     9      180.000000       24.524244         2
         6         5         9         8     9        0.000000       -5.051481         3
         6         5         9         8     9      180.000000       -1.042479         4
         6         5         9        33     9        0.000000        0.325622         1
         6         5         9        33     9      180.000000        1.565869         2
         6         5         9        33     9        0.000000        0.502844         3
         6         5         9        33     9      180.000000        0.025233         4
         6         7         8         9     9        0.000000       -0.262792         1
         6         7         8         9     9      180.000000       41.414249         2
         6         7         8         9     9        0.000000       -4.764308         3
         6         7         8         9     9      180.000000       -0.129432         4
         6         7        10        14     9        0.000000        0.308250         1
         6         7        10        14     9      180.000000       -0.404028         2
         6         7        10        14     9        0.000000        0.584690         3
         6         7        10        14     9      180.000000        0.022253         4
         6         7        10        34     9        0.000000       -0.068368         1
         6         7        10        34     9      180.000000        0.149490         2
         6         7        10        34     9        0.000000        0.519766         3
         6         7        10        34     9      180.000000        0.015001         4
         6         7        10        35     9        0.000000       -0.068368         1
         6         7        10        35     9      180.000000        0.149490         2
         6         7        10        35     9        0.000000        0.519766         3
         6         7        10        35     9      180.000000        0.015001         4
         7         6         2        30     9        0.000000       -0.176108         1
         7         6         2        30     9      180.000000        9.481125         2
         7         6         2        30     9        0.000000        0.064163         3
         7         6         2        30     9      180.000000        0.061560         4
         7         6         5         9     9        0.000000        0.186676         1
         7         6         5         9     9      180.000000       17.420614         2
         7         6         5         9     9        0.000000       -6.347146         3
         7         6         5         9     9      180.000000       -0.225140         4
         7         8         9        33     9        0.000000        2.366235         1
         7         8         9        33     9      180.000000        2.975894         2
         7         8         9        33     9        0.000000        0.435105         3
         7         8         9        33     9      180.000000        0.026087         4
         7        10        14        15     9        0.000000       -0.162197         1
         7        10        14        15     9      180.000000        0.171147         2
         7        10        14        15     9        0.000000        0.114997         3
         7        10        14        15     9      180.000000        0.021335         4
         7        10        14        19     9        0.000000       -0.162197         1
         7        10        14        19     9      180.000000        0.171147         2
         7        10        14        19     9        0.000000        0.114997         3
         7        10        14        19     9      180.000000        0.021335         4
         8         7        10        14     9        0.000000       -0.862580         1
         8         7        10        14     9      180.000000       -0.216635         2
         8         7        10        14     9        0.000000        0.027906         3
         8         7        10        14     9      180.000000        0.006368         4
         8         7        10        34     9        0.000000        0.219474         1
         8         7        10        34     9      180.000000        0.093663         2
         8         7        10        34     9        0.000000       -0.190341         3
         8         7        10        34     9      180.000000        0.040522         4
         8         7        10        35     9        0.000000        0.219474         1
         8         7        10        35     9      180.000000        0.093663         2
         8         7        10        35     9        0.000000       -0.190341         3
         8         7        10        35     9      180.000000        0.040522         4
         9         5         3        31     9        0.000000       -0.100464         1
         9         5         3        31     9      180.000000        9.598580         2
         9         5         3        31     9        0.000000       -0.055553         3
         9         5         3        31     9      180.000000        0.045175         4
         9         8         7        10     9        0.000000        0.492327         1
         9         8         7        10     9      180.000000       32.362694         2
         9         8         7        10     9        0.000000        0.809139         3
         9         8         7        10     9      180.000000       -0.860767         4
        10        14        15        16     9        0.000000        0.026860         1
        10        14        15        16     9      180.000000       15.135600         2
        10        14        15        16     9        0.000000       -0.170192         3
        10        14        15        16     9      180.000000       -0.215560         4
        10        14        15        36     9        0.000000       -0.086046         1
        10        14        15        36     9      180.000000       12.621826         2
        10        14        15        36     9        0.000000       -0.312532         3
        10        14        15        36     9      180.000000        0.160165         4
        10        14        19        18     9        0.000000        0.026860         1
        10        14        19        18     9      180.000000       15.135600         2
        10        14        19        18     9        0.000000       -0.170192         3
        10        14        19        18     9      180.000000       -0.215560         4
        10        14        19        39     9        0.000000       -0.086046         1
        10        14        19        39     9      180.000000       12.621826         2
        10        14        19        39     9        0.000000       -0.312532         3
        10        14        19        39     9      180.000000        0.160165         4
        11        26        27        28     9        0.000000        0.190924         1
        11        26        27        28     9      180.000000       -0.667269         2
        11        26        27        28     9        0.000000        0.240221         3
        11        26        27        28     9      180.000000       -0.641555         4
        11        26        27        47     9        0.000000       -0.008240         1
        11        26        27        47     9      180.000000        0.031294         2
        11        26        27        47     9        0.000000        0.150096         3
        11        26        27        47     9      180.000000        0.048025         4
        11        26        27        48     9        0.000000       -0.008240         1
        11        26        27        48     9      180.000000        0.031294         2
        11        26        27        48     9        0.000000        0.150096         3
        11        26        27        48     9      180.000000        0.048025         4
        11        29        28        27     9        0.000000        0.190924         1
        11        29        28        27     9      180.000000       -0.667269         2
        11        29        28        27     9        0.000000        0.240221         3
        11        29        28        27     9      180.000000       -0.641554         4
        11        29        28        49     9        0.000000       -0.008240         1
        11        29        28        49     9      180.000000        0.031295         2
        11        29        28        49     9        0.000000        0.150096         3
        11        29        28        49     9      180.000000        0.048024         4
        11        29        28        50     9        0.000000       -0.008240         1
        11        29        28        50     9      180.000000        0.031295         2
        11        29        28        50     9        0.000000        0.150096         3
        11        29        28        50     9      180.000000        0.048024         4
        12         1         2        30     9        0.000000       -0.013825         1
        12         1         2        30     9      180.000000       12.652571         2
        12         1         2        30     9        0.000000       -0.310185         3
        12         1         2        30     9      180.000000        0.021611         4
        12         1         4        32     9        0.000000       -0.058745         1
        12         1         4        32     9      180.000000       11.807380         2
        12         1         4        32     9        0.000000       -0.365082         3
        12         1         4        32     9      180.000000        0.015342         4
        12        11        26        27     9        0.000000       -0.468854         1
        12        11        26        27     9      180.000000       -0.447408         2
        12        11        26        27     9        0.000000        0.131931         3
        12        11        26        27     9      180.000000       -0.058702         4
        12        11        26        45     9        0.000000        0.009968         1
        12        11        26        45     9      180.000000        0.076274         2
        12        11        26        45     9        0.000000        0.088970         3
        12        11        26        45     9      180.000000       -0.005168         4
        12        11        26        46     9        0.000000        0.009968         1
        12        11        26        46     9      180.000000        0.076274         2
        12        11        26        46     9        0.000000        0.088970         3
        12        11        26        46     9      180.000000       -0.005168         4
        12        11        29        28     9        0.000000       -0.468854         1
        12        11        29        28     9      180.000000       -0.447409         2
        12        11        29        28     9        0.000000        0.131931         3
        12        11        29        28     9      180.000000       -0.058702         4
        12        11        29        51     9        0.000000        0.009967         1
        12        11        29        51     9      180.000000        0.076274         2
        12        11        29        51     9        0.000000        0.088971         3
        12        11        29        51     9      180.000000       -0.005168         4
        12        11        29        52     9        0.000000        0.009967         1
        12        11        29        52     9      180.000000        0.076274         2
        12        11        29        52     9        0.000000        0.088971         3
        12        11        29        52     9      180.000000       -0.005168         4
        13        12        11        26     9        0.000000       -1.672670         1
        13        12        11        26     9      180.000000       13.682209         2
        13        12        11        26     9        0.000000       -0.960173         3
        13        12        11        26     9      180.000000       -0.086478         4
        13        12        11        29     9        0.000000       -1.672671         1
        13        12        11        29     9      180.000000       13.682211         2
        13        12        11        29     9        0.000000       -0.960174         3
        13        12        11        29     9      180.000000       -0.086479         4
        14        15        16        17     9        0.000000       -0.033501         1
        14        15        16        17     9      180.000000       18.361802         2
        14        15        16        17     9        0.000000       -1.382122         3
        14        15        16        17     9      180.000000       -0.333748         4
        14        15        16        37     9        0.000000        0.009019         1
        14        15        16        37     9      180.000000       15.117729         2
        14        15        16        37     9        0.000000       -0.652997         3
        14        15        16        37     9      180.000000        0.089352         4
        14        19        18        17     9        0.000000       -0.033501         1
        14        19        18        17     9      180.000000       18.361802         2
        14        19        18        17     9        0.000000       -1.382122         3
        14        19        18        17     9      180.000000       -0.333748         4
        14        19        18        38     9        0.000000        0.009019         1
        14        19        18        38     9      180.000000       15.117729         2
        14        19        18        38     9        0.000000       -0.652997         3
        14        19        18        38     9      180.000000        0.089352         4
        15        14        10        34     9        0.000000        0.026652         1
        15        14        10        34     9      180.000000        0.014947         2
        15        14        10        34     9        0.000000        0.013547         3
        15        14        10        34     9      180.000000        0.009027         4
        15        14        10        35     9        0.000000        0.026652         1
        15        14        10        35     9      180.000000        0.014947         2
        15        14        10        35     9        0.000000        0.013547         3
        15        14        10        35     9      180.000000        0.009027         4
        15        14        19        18     9        0.000000       -0.017692         1
        15        14        19        18     9      180.000000       18.652768         2
        15        14        19        18     9        0.000000       -1.225804         3
        15        14        19        18     9      180.000000       -0.466466         4
        15        14        19        39     9        0.000000        0.019722         1
        15        14        19        39     9      180.000000       14.478141         2
        15        14        19        39     9        0.000000       -0.483578         3
        15        14        19        39     9      180.000000        0.000311         4
        15        16        17        18     9        0.000000       -0.080966         1
        15        16        17        18     9      180.000000       18.153112         2
        15        16        17        18     9        0.000000       -1.373641         3
        15        16        17        18     9      180.000000       -0.356348         4
        15        16        17        20     9        0.000000        0.345560         1
        15        16        17        20     9      180.000000       16.650203         2
        15        16        17        20     9        0.000000       -0.115710         3
        15        16        17        20     9      180.000000       -0.388262         4
        16        15        14        19     9        0.000000       -0.017692         1
        16        15        14        19     9      180.000000       18.652768         2
        16        15        14        19     9        0.000000       -1.225804         3
        16        15        14        19     9      180.000000       -0.466466         4
        16        17        18        19     9        0.000000       -0.080966         1
        16        17        18        19     9      180.000000       18.153112         2
        16        17        18        19     9        0.000000       -1.373641         3
        16        17        18        19     9      180.000000       -0.356348         4
        16        17        18        38     9        0.000000       -0.122536         1
        16        17        18        38     9      180.000000       13.854592         2
        16        17        18        38     9        0.000000       -0.550856         3
        16        17        18        38     9      180.000000        0.073352         4
        16        17        20        21     9        0.000000        0.226385         1
        16        17        20        21     9      180.000000        2.444068         2
        16        17        20        21     9        0.000000        0.075300         3
        16        17        20        21     9      180.000000       -0.310311         4
        16        17        20        24     9        0.000000       -0.000289         1
        16        17        20        24     9      180.000000        2.079647         2
        16        17        20        24     9        0.000000       -0.058954         3
        16        17        20        24     9      180.000000       -0.243068         4
        17        16        15        36     9        0.000000       -0.019661         1
        17        16        15        36     9      180.000000       14.564297         2
        17        16        15        36     9        0.000000       -0.438149         3
        17        16        15        36     9      180.000000        0.148899         4
        17        18        19        39     9        0.000000       -0.019661         1
        17        18        19        39     9      180.000000       14.564297         2
        17        18        19        39     9        0.000000       -0.438149         3
        17        18        19        39     9      180.000000        0.148899         4
        17        20        21        22     9        0.000000        0.183654         1
        17        20        21        22     9      180.000000       16.330189         2
        17        20        21        22     9        0.000000       -0.168639         3
        17        20        21        22     9      180.000000       -0.945094         4
        17        20        21        40     9        0.000000       -0.192731         1
        17        20        21        40     9      180.000000       10.764578         2
        17        20        21        40     9        0.000000       -0.137823         3
        17        20        21        40     9      180.000000       -0.003216         4
        17        20        24        23     9        0.000000        0.388880         1
        17        20        24        23     9      180.000000       15.245298         2
        17        20        24        23     9        0.000000       -0.357893         3
        17        20        24        23     9      180.000000       -0.981862         4
        17        20        24        41     9        0.000000       -0.157977         1
        17        20        24        41     9      180.000000       10.350387         2
        17        20        24        41     9        0.000000       -0.025513         3
        17        20        24        41     9      180.000000        0.047765         4
        18        17        16        37     9        0.000000       -0.122536         1
        18        17        16        37     9      180.000000       13.854592         2
        18        17        16        37     9        0.000000       -0.550856         3
        18        17        16        37     9      180.000000        0.073352         4
        18        17        20        21     9        0.000000        0.226385         1
        18        17        20        21     9      180.000000        2.444068         2
        18        17        20        21     9        0.000000        0.075300         3
        18        17        20        21     9      180.000000       -0.310311         4
        18        17        20        24     9        0.000000       -0.000289         1
        18        17        20        24     9      180.000000        2.079647         2
        18        17        20        24     9        0.000000       -0.058954         3
        18        17        20        24     9      180.000000       -0.243068         4
        19        14        10        34     9        0.000000        0.026652         1
        19        14        10        34     9      180.000000        0.014947         2
        19        14        10        34     9        0.000000        0.013547         3
        19        14        10        34     9      180.000000        0.009027         4
        19        14        10        35     9        0.000000        0.026652         1
        19        14        10        35     9      180.000000        0.014947         2
        19        14        10        35     9        0.000000        0.013547         3
        19        14        10        35     9      180.000000        0.009027         4
        19        14        15        36     9        0.000000        0.019722         1
        19        14        15        36     9      180.000000       14.478141         2
        19        14        15        36     9        0.000000       -0.483578         3
        19        14        15        36     9      180.000000        0.000311         4
        19        18        17        20     9        0.000000        0.345560         1
        19        18        17        20     9      180.000000       16.650203         2
        19        18        17        20     9        0.000000       -0.115710         3
        19        18        17        20     9      180.000000       -0.388262         4
        20        17        16        37     9        0.000000        0.146898         1
        20        17        16        37     9      180.000000       13.479037         2
        20        17        16        37     9        0.000000       -0.087547         3
        20        17        16        37     9      180.000000        0.132717         4
        20        17        18        38     9        0.000000        0.146898         1
        20        17        18        38     9      180.000000       13.479037         2
        20        17        18        38     9        0.000000       -0.087547         3
        20        17        18        38     9      180.000000        0.132717         4
        20        21        22        23     9        0.000000       -0.009121         1
        20        21        22        23     9      180.000000       30.745141         2
        20        21        22        23     9        0.000000       -6.250990         3
        20        21        22        23     9      180.000000       -0.578339         4
        20        21        22        25     9        0.000000        0.805845         1
        20        21        22        25     9      180.000000        7.183529         2
        20        21        22        25     9        0.000000        0.904760         3
        20        21        22        25     9      180.000000       -0.006099         4
        20        24        23        22     9        0.000000       -0.003186         1
        20        24        23        22     9      180.000000       40.723745         2
        20        24        23        22     9        0.000000       -5.801977         3
        20        24        23        22     9      180.000000       -0.138216         4
        21        20        24        23     9        0.000000       -0.184323         1
        21        20        24        23     9      180.000000       30.518446         2
        21        20        24        23     9        0.000000       -8.302201         3
        21        20        24        23     9      180.000000        0.056566         4
        21        20        24        41     9        0.000000        0.182830         1
        21        20        24        41     9      180.000000       14.435368         2
        21        20        24        41     9        0.000000       -0.577632         3
        21        20        24        41     9      180.000000       -0.486645         4
        21        22        23        24     9        0.000000       -0.276705         1
        21        22        23        24     9      180.000000       27.814030         2
        21        22        23        24     9        0.000000       -4.425871         3
        21        22        23        24     9      180.000000        0.073279         4
        21        22        25        42     9        0.000000       -0.025034         1
        21        22        25        42     9      180.000000       -0.009391         2
        21        22        25        42     9        0.000000        0.181958         3
        21        22        25        42     9      180.000000        0.012892         4
        21        22        25        43     9        0.000000       -0.025034         1
        21        22        25        43     9      180.000000       -0.009391         2
        21        22        25        43     9        0.000000        0.181958         3
        21        22        25        43     9      180.000000        0.012892         4
        21        22        25        44     9        0.000000       -0.025034         1
        21        22        25        44     9      180.000000       -0.009391         2
        21        22        25        44     9        0.000000        0.181958         3
        21        22        25        44     9      180.000000        0.012892         4
        22        21        20        24     9        0.000000       -0.206975         1
        22        21        20        24     9      180.000000       30.618729         2
        22        21        20        24     9        0.000000       -8.507334         3
        22        21        20        24     9      180.000000       -0.023863         4
        22        23        24        41     9        0.000000        1.030702         1
        22        23        24        41     9      180.000000       28.071183         2
        22        23        24        41     9        0.000000       -0.182231         3
        22        23        24        41     9      180.000000       -0.061982         4
        23        22        21        40     9        0.000000        1.067261         1
        23        22        21        40     9      180.000000       12.367244         2
        23        22        21        40     9        0.000000        0.213521         3
        23        22        21        40     9      180.000000       -0.400032         4
        23        22        25        42     9        0.000000       -0.002235         1
        23        22        25        42     9      180.000000        0.002811         2
        23        22        25        42     9        0.000000        0.198678         3
        23        22        25        42     9      180.000000        0.004453         4
        23        22        25        43     9        0.000000       -0.002235         1
        23        22        25        43     9      180.000000        0.002811         2
        23        22        25        43     9        0.000000        0.198678         3
        23        22        25        43     9      180.000000        0.004453         4
        23        22        25        44     9        0.000000       -0.002235         1
        23        22        25        44     9      180.000000        0.002811         2
        23        22        25        44     9        0.000000        0.198678         3
        23        22        25        44     9      180.000000        0.004453         4
        24        20        21        40     9        0.000000        0.010232         1
        24        20        21        40     9      180.000000       13.254580         2
        24        20        21        40     9        0.000000       -0.641023         3
        24        20        21        40     9      180.000000       -0.261573         4
        24        23        22        25     9        0.000000        0.586693         1
        24        23        22        25     9      180.000000       10.298364         2
        24        23        22        25     9        0.000000        0.792012         3
        24        23        22        25     9      180.000000       -0.113382         4
        25        22        21        40     9        0.000000       -0.493730         1
        25        22        21        40     9      180.000000        3.995450         2
        25        22        21        40     9        0.000000        0.087170         3
        25        22        21        40     9      180.000000        0.043642         4
        26        11        29        28     9        0.000000        0.204063         1
        26        11        29        28     9      180.000000       -0.048930         2
        26        11        29        28     9        0.000000        0.232305         3
        26        11        29        28     9      180.000000       -0.093370         4
        26        11        29        51     9        0.000000       -0.048183         1
        26        11        29        51     9      180.000000        0.039492         2
        26        11        29        51     9        0.000000        0.137283         3
        26        11        29        51     9      180.000000        0.091394         4
        26        11        29        52     9        0.000000       -0.048183         1
        26        11        29        52     9      180.000000        0.039492         2
        26        11        29        52     9        0.000000        0.137283         3
        26        11        29        52     9      180.000000        0.091394         4
        26        27        28        29     9        0.000000        0.046636         1
        26        27        28        29     9      180.000000        0.323381         2
        26        27        28        29     9        0.000000       -0.113531         3
        26        27        28        29     9      180.000000        0.126958         4
        26        27        28        49     9        0.000000       -0.002884         1
        26        27        28        49     9      180.000000        0.023843         2
        26        27        28        49     9        0.000000        0.026617         3
        26        27        28        49     9      180.000000        0.063092         4
        26        27        28        50     9        0.000000       -0.002884         1
        26        27        28        50     9      180.000000        0.023843         2
        26        27        28        50     9        0.000000        0.026617         3
        26        27        28        50     9      180.000000        0.063092         4
        27        26        11        29     9        0.000000        0.204065         1
        27        26        11        29     9      180.000000       -0.048930         2
        27        26        11        29     9        0.000000        0.232305         3
        27        26        11        29     9      180.000000       -0.093370         4
        27        28        29        51     9        0.000000        0.003431         1
        27        28        29        51     9      180.000000        0.052029         2
        27        28        29        51     9        0.000000        0.127459         3
        27        28        29        51     9      180.000000        0.092040         4
        27        28        29        52     9        0.000000        0.003431         1
        27        28        29        52     9      180.000000        0.052029         2
        27        28        29        52     9        0.000000        0.127459         3
        27        28        29        52     9      180.000000        0.092040         4
        28        27        26        45     9        0.000000        0.003431         1
        28        27        26        45     9      180.000000        0.052029         2
        28        27        26        45     9        0.000000        0.127459         3
        28        27        26        45     9      180.000000        0.092040         4
        28        27        26        46     9        0.000000        0.003431         1
        28        27        26        46     9      180.000000        0.052029         2
        28        27        26        46     9        0.000000        0.127459         3
        28        27        26        46     9      180.000000        0.092040         4
        29        11        26        45     9        0.000000       -0.048182         1
        29        11        26        45     9      180.000000        0.039492         2
        29        11        26        45     9        0.000000        0.137282         3
        29        11        26        45     9      180.000000        0.091394         4
        29        11        26        46     9        0.000000       -0.048182         1
        29        11        26        46     9      180.000000        0.039492         2
        29        11        26        46     9        0.000000        0.137282         3
        29        11        26        46     9      180.000000        0.091394         4
        29        28        27        47     9        0.000000       -0.002884         1
        29        28        27        47     9      180.000000        0.023844         2
        29        28        27        47     9        0.000000        0.026617         3
        29        28        27        47     9      180.000000        0.063092         4
        29        28        27        48     9        0.000000       -0.002884         1
        29        28        27        48     9      180.000000        0.023844         2
        29        28        27        48     9        0.000000        0.026617         3
        29        28        27        48     9      180.000000        0.063092         4
        31         3         4        32     9        0.000000       -0.088591         1
        31         3         4        32     9      180.000000       12.600571         2
        31         3         4        32     9        0.000000       -0.684381         3
        31         3         4        32     9      180.000000        0.289087         4
        36        15        16        37     9        0.000000       -0.173270         1
        36        15        16        37     9      180.000000       12.433057         2
        36        15        16        37     9        0.000000       -0.660707         3
        36        15        16        37     9      180.000000        0.303153         4
        38        18        19        39     9        0.000000       -0.173270         1
        38        18        19        39     9      180.000000       12.433057         2
        38        18        19        39     9        0.000000       -0.660707         3
        38        18        19        39     9      180.000000        0.303153         4
        45        26        27        47     9        0.000000       -0.009247         1
        45        26        27        47     9      180.000000        0.012817         2
        45        26        27        47     9        0.000000        0.269418         3
        45        26        27        47     9      180.000000       -0.003813         4
        45        26        27        48     9        0.000000       -0.009247         1
        45        26        27        48     9      180.000000        0.012817         2
        45        26        27        48     9        0.000000        0.269418         3
        45        26        27        48     9      180.000000       -0.003813         4
        46        26        27        47     9        0.000000       -0.009247         1
        46        26        27        47     9      180.000000        0.012817         2
        46        26        27        47     9        0.000000        0.269418         3
        46        26        27        47     9      180.000000       -0.003813         4
        46        26        27        48     9        0.000000       -0.009247         1
        46        26        27        48     9      180.000000        0.012817         2
        46        26        27        48     9        0.000000        0.269418         3
        46        26        27        48     9      180.000000       -0.003813         4
        47        27        28        49     9        0.000000       -0.026328         1
        47        27        28        49     9      180.000000        0.038068         2
        47        27        28        49     9        0.000000        0.209581         3
        47        27        28        49     9      180.000000       -0.000326         4
        47        27        28        50     9        0.000000       -0.026328         1
        47        27        28        50     9      180.000000        0.038068         2
        47        27        28        50     9        0.000000        0.209581         3
        47        27        28        50     9      180.000000       -0.000326         4
        48        27        28        49     9        0.000000       -0.026328         1
        48        27        28        49     9      180.000000        0.038068         2
        48        27        28        49     9        0.000000        0.209581         3
        48        27        28        49     9      180.000000       -0.000326         4
        48        27        28        50     9        0.000000       -0.026328         1
        48        27        28        50     9      180.000000        0.038068         2
        48        27        28        50     9        0.000000        0.209581         3
        48        27        28        50     9      180.000000       -0.000326         4
        49        28        29        51     9        0.000000       -0.009247         1
        49        28        29        51     9      180.000000        0.012819         2
        49        28        29        51     9        0.000000        0.269418         3
        49        28        29        51     9      180.000000       -0.003813         4
        49        28        29        52     9        0.000000       -0.009247         1
        49        28        29        52     9      180.000000        0.012819         2
        49        28        29        52     9        0.000000        0.269418         3
        49        28        29        52     9      180.000000       -0.003813         4
        50        28        29        51     9        0.000000       -0.009247         1
        50        28        29        51     9      180.000000        0.012819         2
        50        28        29        51     9        0.000000        0.269418         3
        50        28        29        51     9      180.000000       -0.003813         4
        50        28        29        52     9        0.000000       -0.009247         1
        50        28        29        52     9      180.000000        0.012819         2
        50        28        29        52     9        0.000000        0.269418         3
        50        28        29        52     9      180.000000       -0.003813         4

[ dihedrals ] ; impropers
;       ai        aj        ak        al funct           phase               k        pn
         2         1         6        30     4      180.000000        1.905065         2
         2         6        30         1     4      180.000000        1.905065         2
         2        30         1         6     4      180.000000        1.905065         2
         3         4         5        31     4      180.000000        0.109547         2
         3         5        31         4     4      180.000000        0.109547         2
         3        31         4         5     4      180.000000        0.109547         2
        12         1        11        13     4      180.000000       27.893333         2
        12        11        13         1     4      180.000000       27.893333         2
        12        13         1        11     4      180.000000       27.893333         2
        15        14        16        36     4      180.000000        1.374161         2
        15        16        36        14     4      180.000000        1.374161         2
        15        36        14        16     4      180.000000        1.374161         2
        19        14        18        39     4      180.000000        1.374161         2
        19        18        39        14     4      180.000000        1.374161         2
        19        39        14        18     4      180.000000        1.374161         2

[ pairs ]
;       ai        aj funct
         1         5     1
         1         7     1
         1        26     1
         1        29     1
         1        31     1
         2         3     1
         2         8     1
         2         9     1
         2        10     1
         2        11     1
         2        13     1
         2        32     1
         3         7     1
         3         8     1
         3        12     1
         3        33     1
         4         6     1
         4         9     1
         4        11     1
         4        13     1
         4        30     1
         5        10     1
         5        30     1
         5        32     1
         6        12     1
         6        14     1
         6        31     1
         6        33     1
         6        34     1
         6        35     1
         7        15     1
         7        19     1
         7        30     1
         7        33     1
         8        14     1
         8        34     1
         8        35     1
         9        10     1
         9        31     1
        10        16     1
        10        18     1
        10        36     1
        10        39     1
        11        47     1
        11        48     1
        11        49     1
        11        50     1
        12        27     1
        12        28     1
        12        30     1
        12        32     1
        12        45     1
        12        46     1
        12        51     1
        12        52     1
        13        26     1
        13        29     1
        14        17     1
        14        37     1
        14        38     1
        15        18     1
        15        20     1
        15        34     1
        15        35     1
        15        39     1
        16        19     1
        16        21     1
        16        24     1
        16        38     1
        17        22     1
        17        23     1
        17        36     1
        17        39     1
        17        40     1
        17        41     1
        18        21     1
        18        24     1
        18        37     1
        19        20     1
        19        34     1
        19        35     1
        19        36     1
        20        25     1
        20        37     1
        20        38     1
        21        41     1
        21        42     1
        21        43     1
        21        44     1
        22        41     1
        23        40     1
        23        42     1
        23        43     1
        23        44     1
        24        25     1
        24        40     1
        25        40     1
        26        49     1
        26        50     1
        26        51     1
        26        52     1
        27        51     1
        27        52     1
        28        45     1
        28        46     1
        29        45     1
        29        46     1
        29        47     1
        29        48     1
        31        32     1
        36        37     1
        38        39     1
        45        47     1
        45        48     1
        46        47     1
        46        48     1
        47        49     1
        47        50     1
        48        49     1
        48        50     1
        49        51     1
        49        52     1
        50        51     1
        50        52     1
