; ITP file created by ByteFF-ML, 2026-02-21 07:35:20.645214

[ atomtypes ]
;name           bonded.type        at.num        mass        charge   ptype           sigma         epsilon
 c0bf                                   6      0.0000       0.00000       A     3.31427e-01     4.12319e-01
 c1bf                                   6      0.0000       0.00000       A     3.31422e-01     4.13328e-01
 c2bf                                   6      0.0000       0.00000       A     3.31517e-01     4.12571e-01
 c3bf                                   6      0.0000       0.00000       A     3.31566e-01     4.13000e-01
 c4bf                                   6      0.0000       0.00000       A     3.31529e-01     4.12453e-01
 c5bf                                   6      0.0000       0.00000       A     3.31503e-01     4.11610e-01
 c6bf                                   6      0.0000       0.00000       A     3.31450e-01     4.11740e-01
 n7bf                                   7      0.0000       0.00000       A     3.38151e-01     3.91342e-01
 n8bf                                   7      0.0000       0.00000       A     3.20440e-01     8.58154e-01
 c9bf                                   6      0.0000       0.00000       A     3.39892e-01     4.51463e-01
 n10bf                                  7      0.0000       0.00000       A     3.18232e-01     6.85906e-01
 c11bf                                  6      0.0000       0.00000       A     3.31599e-01     4.13508e-01
 o12bf                                  8      0.0000       0.00000       A     3.04757e-01     6.12105e-01
 c13bf                                  6      0.0000       0.00000       A     3.31526e-01     4.13182e-01
 c14bf                                  6      0.0000       0.00000       A     3.31408e-01     4.13210e-01
 c15bf                                  6      0.0000       0.00000       A     3.31502e-01     4.12536e-01
 c16bf                                  6      0.0000       0.00000       A     3.31322e-01     4.13227e-01
 c17bf                                  6      0.0000       0.00000       A     3.31502e-01     4.12536e-01
 c18bf                                  6      0.0000       0.00000       A     3.31408e-01     4.13210e-01
 c19bf                                  6      0.0000       0.00000       A     3.31350e-01     4.11687e-01
 c20bf                                  6      0.0000       0.00000       A     3.31475e-01     4.11821e-01
 n21bf                                  7      0.0000       0.00000       A     3.20558e-01     8.54076e-01
 n22bf                                  7      0.0000       0.00000       A     3.38391e-01     3.93249e-01
 c23bf                                  6      0.0000       0.00000       A     3.31594e-01     4.13789e-01
 c24bf                                  6      0.0000       0.00000       A     3.39839e-01     4.51932e-01
 c25bf                                  6      0.0000       0.00000       A     3.39769e-01     4.50259e-01
 c26bf                                  6      0.0000       0.00000       A     3.39729e-01     4.50893e-01
 o27bf                                  8      0.0000       0.00000       A     3.15559e-01     3.02369e-01
 c28bf                                  6      0.0000       0.00000       A     3.39729e-01     4.50894e-01
 c29bf                                  6      0.0000       0.00000       A     3.39769e-01     4.50259e-01
 h30bf                                  1      0.0000       0.00000       A     2.62423e-01     6.69232e-02
 h31bf                                  1      0.0000       0.00000       A     2.62471e-01     6.70892e-02
 h32bf                                  1      0.0000       0.00000       A     2.62606e-01     6.73270e-02
 h33bf                                  1      0.0000       0.00000       A     1.10602e-01     4.12983e-02
 h34bf                                  1      0.0000       0.00000       A     2.60090e-01     8.80823e-02
 h35bf                                  1      0.0000       0.00000       A     2.60090e-01     8.80823e-02
 h36bf                                  1      0.0000       0.00000       A     2.62498e-01     6.75473e-02
 h37bf                                  1      0.0000       0.00000       A     2.62482e-01     6.74643e-02
 h38bf                                  1      0.0000       0.00000       A     2.62482e-01     6.74643e-02
 h39bf                                  1      0.0000       0.00000       A     2.62498e-01     6.75473e-02
 h40bf                                  1      0.0000       0.00000       A     2.53807e-01     6.74898e-02
 h41bf                                  1      0.0000       0.00000       A     2.53933e-01     6.69200e-02
 h42bf                                  1      0.0000       0.00000       A     2.41990e-01     8.77359e-02
 h43bf                                  1      0.0000       0.00000       A     2.41990e-01     8.77359e-02
 h44bf                                  1      0.0000       0.00000       A     2.41990e-01     8.77359e-02
 h45bf                                  1      0.0000       0.00000       A     2.42090e-01     8.70927e-02
 h46bf                                  1      0.0000       0.00000       A     2.42090e-01     8.70927e-02
 h47bf                                  1      0.0000       0.00000       A     2.42029e-01     8.74327e-02
 h48bf                                  1      0.0000       0.00000       A     2.42029e-01     8.74327e-02
 h49bf                                  1      0.0000       0.00000       A     2.42029e-01     8.74327e-02
 h50bf                                  1      0.0000       0.00000       A     2.42029e-01     8.74327e-02
 h51bf                                  1      0.0000       0.00000       A     2.42090e-01     8.70927e-02
 h52bf                                  1      0.0000       0.00000       A     2.42090e-01     8.70927e-02

[ moleculetype ]
;name             nrexcl
 39                    3

[ atoms ]
;       nr            type      resi   res      atom      cgnr      charge          mass ; qtot
         1            c0bf         1   UNL        c0         1    -0.19148       12.0110 ; qtot   -0.191
         2            c1bf         1   UNL        c1         2     0.02052       12.0110 ; qtot   -0.171
         3            c2bf         1   UNL        c2         3    -0.15218       12.0110 ; qtot   -0.323
         4            c3bf         1   UNL        c3         4    -0.04040       12.0110 ; qtot   -0.364
         5            c4bf         1   UNL        c4         5    -0.00028       12.0110 ; qtot   -0.364
         6            c5bf         1   UNL        c5         6    -0.23682       12.0110 ; qtot   -0.601
         7            c6bf         1   UNL        c6         7     0.35966       12.0110 ; qtot   -0.241
         8            n7bf         1   UNL        n7         8    -0.50659       14.0070 ; qtot   -0.748
         9            n8bf         1   UNL        n8         9    -0.08032       14.0070 ; qtot   -0.828
        10            c9bf         1   UNL        c9        10    -0.03975       12.0110 ; qtot   -0.868
        11           n10bf         1   UNL       n10        11    -0.41264       14.0070 ; qtot   -1.280
        12           c11bf         1   UNL       c11        12     0.61334       12.0110 ; qtot   -0.667
        13           o12bf         1   UNL       o12        13    -0.59305       15.9990 ; qtot   -1.260
        14           c13bf         1   UNL       c13        14    -0.08002       12.0110 ; qtot   -1.340
        15           c14bf         1   UNL       c14        15    -0.10203       12.0110 ; qtot   -1.442
        16           c15bf         1   UNL       c15        16    -0.11007       12.0110 ; qtot   -1.552
        17           c16bf         1   UNL       c16        17     0.00438       12.0110 ; qtot   -1.548
        18           c17bf         1   UNL       c17        18    -0.11007       12.0110 ; qtot   -1.658
        19           c18bf         1   UNL       c18        19    -0.10203       12.0110 ; qtot   -1.760
        20           c19bf         1   UNL       c19        20    -0.16403       12.0110 ; qtot   -1.924
        21           c20bf         1   UNL       c20        21    -0.14400       12.0110 ; qtot   -2.068
        22           n21bf         1   UNL       n21        22     0.11171       14.0070 ; qtot   -1.956
        23           n22bf         1   UNL       n22        23    -0.52174       14.0070 ; qtot   -2.478
        24           c23bf         1   UNL       c23        24     0.25349       12.0110 ; qtot   -2.224
        25           c24bf         1   UNL       c24        25     0.07027       12.0110 ; qtot   -2.154
        26           c25bf         1   UNL       c25        26     0.06124       12.0110 ; qtot   -2.093
        27           c26bf         1   UNL       c26        27     0.13754       12.0110 ; qtot   -1.955
        28           o27bf         1   UNL       o27        28    -0.45780       15.9990 ; qtot   -2.413
        29           c28bf         1   UNL       c28        29     0.13754       12.0110 ; qtot   -2.276
        30           c29bf         1   UNL       c29        30     0.06124       12.0110 ; qtot   -2.214
        31           h30bf         1   UNL       h30        31     0.13548        1.0080 ; qtot   -2.079
        32           h31bf         1   UNL       h31        32     0.12817        1.0080 ; qtot   -1.951
        33           h32bf         1   UNL       h32        33     0.12698        1.0080 ; qtot   -1.824
        34           h33bf         1   UNL       h33        34     0.37621        1.0080 ; qtot   -1.448
        35           h34bf         1   UNL       h34        35     0.06255        1.0080 ; qtot   -1.385
        36           h35bf         1   UNL       h35        36     0.06255        1.0080 ; qtot   -1.322
        37           h36bf         1   UNL       h36        37     0.11797        1.0080 ; qtot   -1.204
        38           h37bf         1   UNL       h37        38     0.11784        1.0080 ; qtot   -1.087
        39           h38bf         1   UNL       h38        39     0.11784        1.0080 ; qtot   -0.969
        40           h39bf         1   UNL       h39        40     0.11797        1.0080 ; qtot   -0.851
        41           h40bf         1   UNL       h40        41     0.15375        1.0080 ; qtot   -0.697
        42           h41bf         1   UNL       h41        42     0.03800        1.0080 ; qtot   -0.659
        43           h42bf         1   UNL       h42        43     0.05817        1.0080 ; qtot   -0.601
        44           h43bf         1   UNL       h43        44     0.05817        1.0080 ; qtot   -0.543
        45           h44bf         1   UNL       h44        45     0.05817        1.0080 ; qtot   -0.485
        46           h45bf         1   UNL       h45        46     0.06481        1.0080 ; qtot   -0.420
        47           h46bf         1   UNL       h46        47     0.06481        1.0080 ; qtot   -0.355
        48           h47bf         1   UNL       h47        48     0.05632        1.0080 ; qtot   -0.299
        49           h48bf         1   UNL       h48        49     0.05632        1.0080 ; qtot   -0.242
        50           h49bf         1   UNL       h49        50     0.05632        1.0080 ; qtot   -0.186
        51           h50bf         1   UNL       h50        51     0.05632        1.0080 ; qtot   -0.130
        52           h51bf         1   UNL       h51        52     0.06481        1.0080 ; qtot   -0.065
        53           h52bf         1   UNL       h52        53     0.06484        1.0080 ; qtot   -0.000

[ bonds ]
;       ai        aj funct               r               k
         1         2     1        0.139199   314803.378564
         1         4     1        0.142132   260812.438867
         1        12     1        0.150031   180145.064429
         2         6     1        0.140369   306068.997656
         2        31     1        0.108531   321847.815723
         3         4     1        0.138663   343882.025342
         3         5     1        0.140626   300161.855664
         3        32     1        0.108564   321035.863330
         4        33     1        0.108512   322125.914844
         5         6     1        0.141874   251457.710498
         5         9     1        0.136842   290575.199268
         6         7     1        0.143777   232940.343896
         7         8     1        0.132649   371345.986230
         7        10     1        0.150274   213625.644897
         8         9     1        0.136401   241851.313916
         9        34     1        0.100927   434980.632227
        10        14     1        0.151889   191838.442969
        10        35     1        0.109486   294999.682227
        10        36     1        0.109486   294999.682227
        11        12     1        0.137671   272855.688574
        11        26     1        0.146843   188915.082373
        11        30     1        0.146843   188915.056836
        12        13     1        0.123522   582376.843750
        14        15     1        0.140132   290757.355469
        14        19     1        0.140132   290757.355469
        15        16     1        0.139531   320296.512939
        15        37     1        0.108704   315886.049854
        16        17     1        0.140685   283825.179443
        16        38     1        0.108584   318696.127832
        17        18     1        0.140685   283825.179443
        17        20     1        0.146859   235591.683203
        18        19     1        0.139531   320296.512939
        18        39     1        0.108584   318696.102295
        19        40     1        0.108704   315886.075391
        20        21     1        0.139499   320805.390918
        20        24     1        0.142378   259368.136572
        21        22     1        0.135856   314480.283057
        21        41     1        0.108071   337590.039111
        22        23     1        0.135354   242037.913574
        22        25     1        0.145314   224810.528516
        23        24     1        0.133400   358572.221973
        24        42     1        0.108233   332445.307520
        25        43     1        0.109196   305692.172070
        25        44     1        0.109196   305692.172070
        25        45     1        0.109196   305692.172070
        26        27     1        0.152782   184379.972656
        26        46     1        0.109338   299166.751123
        26        47     1        0.109338   299166.751123
        27        28     1        0.142918   199860.019312
        27        48     1        0.109589   292986.566357
        27        49     1        0.109589   292986.566357
        28        29     1        0.142918   199859.993774
        29        30     1        0.152782   184379.972656
        29        50     1        0.109589   292986.566357
        29        51     1        0.109589   292986.566357
        30        52     1        0.109338   299166.751123
        30        53     1        0.109338   299166.751123

[ angles ]
;       ai        aj        ak funct           theta             cth
         1         2         6     1      118.732567      676.245959
         1         2        31     1      120.061722      382.547271
         1         4         3     1      121.969200      628.029343
         1         4        33     1      118.647133      399.928721
         1        12        11     1      118.039383      412.820716
         1        12        13     1      120.280052      574.400008
         2         1         4     1      120.312157      663.427990
         2         1        12     1      119.585892      500.779842
         2         6         5     1      119.800781      755.777902
         2         6         7     1      135.467285      445.786315
         3         4        33     1      119.504066      404.580976
         3         5         6     1      121.816185      619.728505
         3         5         9     1      132.474686      483.095968
         4         1        12     1      120.012894      557.049969
         4         3         5     1      117.088295      770.464294
         4         3        32     1      121.218956      432.647760
         5         3        32     1      121.958214      432.287687
         5         6         7     1      104.809280      486.572526
         5         9         8     1      112.338623      425.015069
         5         9        34     1      128.734390      380.960906
         6         2        31     1      121.142189      398.781563
         6         5         9     1      105.801842      167.360000
         6         7         8     1      110.712685      353.446298
         6         7        10     1      127.834084      446.802437
         7         8         9     1      106.500710      544.611736
         7        10        14     1      113.105606      519.623132
         7        10        35     1      108.500137      514.066289
         7        10        36     1      108.500137      514.066289
         8         7        10     1      121.625832      449.673829
         8         9        34     1      118.789017      482.596877
        10        14        15     1      120.885033      486.548234
        10        14        19     1      120.885033      486.548234
        11        12        13     1      121.478966      628.795264
        11        26        27     1      109.546570      686.156464
        11        26        46     1      109.605431      471.007531
        11        26        47     1      109.605431      471.007531
        11        30        29     1      109.546570      686.156464
        11        30        52     1      109.605431      471.007531
        11        30        53     1      109.605431      471.007531
        12        11        26     1      121.044411      491.235220
        12        11        30     1      121.044411      491.235220
        14        10        35     1      109.614029      493.993834
        14        10        36     1      109.614029      493.993834
        14        15        16     1      120.959518      705.842064
        14        15        37     1      119.502907      394.245725
        14        19        18     1      120.959518      705.842064
        14        19        40     1      119.502907      394.245725
        15        14        19     1      118.250145      711.225989
        15        16        17     1      121.013084      708.028679
        15        16        38     1      119.370682      427.621195
        16        15        37     1      119.522682      426.792643
        16        17        18     1      117.633606      614.164480
        16        17        20     1      121.173790      498.107383
        17        16        38     1      119.674911      429.339523
        17        18        19     1      121.013084      708.028679
        17        18        39     1      119.674911      429.339523
        17        20        21     1      127.875488      501.485943
        17        20        24     1      128.618073      539.877859
        18        17        20     1      121.173790      498.107383
        18        19        40     1      119.522682      426.792643
        19        18        39     1      119.370682      427.621195
        20        21        22     1      107.253334      167.360000
        20        21        41     1      131.309311      330.526743
        20        24        23     1      111.985497      241.969059
        20        24        42     1      128.583298      361.836739
        21        20        24     1      103.527756      370.968905
        21        22        23     1      112.317947      213.505126
        21        22        25     1      128.036591      424.086540
        22        21        41     1      121.687912      464.045604
        22        23        24     1      104.970230      567.675768
        22        25        43     1      109.593651      496.372137
        22        25        44     1      109.593651      496.372137
        22        25        45     1      109.593651      496.372137
        23        22        25     1      119.401001      615.866209
        23        24        42     1      119.394226      391.030699
        26        11        30     1      114.193161      559.469227
        26        27        28     1      112.242416      636.741072
        26        27        48     1      109.827393      485.528889
        26        27        49     1      109.827393      485.528889
        27        26        46     1      110.055199      484.895153
        27        26        47     1      110.055199      484.895153
        27        28        29     1      112.535843      587.760641
        28        27        48     1      108.214401      463.720900
        28        27        49     1      108.214401      463.720900
        28        29        30     1      112.242416      636.741072
        28        29        50     1      108.214394      463.720900
        28        29        51     1      108.214394      463.720900
        29        30        52     1      110.055199      484.895217
        29        30        53     1      110.055199      484.895217
        30        29        50     1      109.827393      485.528889
        30        29        51     1      109.827393      485.528889
        35        10        36     1      106.967346      364.175843
        43        25        44     1      109.444870      349.033390
        43        25        45     1      109.444870      349.033390
        44        25        45     1      109.444870      349.033390
        46        26        47     1      107.895508      345.578124
        48        27        49     1      108.358902      338.913257
        50        29        51     1      108.358902      338.913257
        52        30        53     1      107.895493      345.578124

[ dihedrals ] ; propers for gromacs 4.5 or higher, use funct 9
;       ai        aj        ak        al funct           phase               k        pn
         1         2         6         5     9        0.000000       -0.122244         1
         1         2         6         5     9      180.000000       19.113924         2
         1         2         6         5     9        0.000000       -2.372110         3
         1         2         6         5     9      180.000000       -0.465906         4
         1         2         6         7     9        0.000000       -0.570629         1
         1         2         6         7     9      180.000000       13.305959         2
         1         2         6         7     9        0.000000       -0.938878         3
         1         2         6         7     9      180.000000       -0.183932         4
         1         4         3         5     9        0.000000       -0.179371         1
         1         4         3         5     9      180.000000       21.469932         2
         1         4         3         5     9        0.000000       -1.565896         3
         1         4         3         5     9      180.000000       -0.605343         4
         1         4         3        32     9        0.000000        0.111825         1
         1         4         3        32     9      180.000000       14.758874         2
         1         4         3        32     9        0.000000       -0.489564         3
         1         4         3        32     9      180.000000        0.145587         4
         1        12        11        26     9        0.000000        6.073968         1
         1        12        11        26     9      180.000000        7.930156         2
         1        12        11        26     9        0.000000        1.044784         3
         1        12        11        26     9      180.000000        0.006084         4
         1        12        11        30     9        0.000000        6.073968         1
         1        12        11        30     9      180.000000        7.930156         2
         1        12        11        30     9        0.000000        1.044783         3
         1        12        11        30     9      180.000000        0.006084         4
         2         1         4         3     9        0.000000        0.127840         1
         2         1         4         3     9      180.000000       17.064391         2
         2         1         4         3     9        0.000000       -1.115759         3
         2         1         4         3     9      180.000000       -0.317289         4
         2         1         4        33     9        0.000000        0.121302         1
         2         1         4        33     9      180.000000       12.559401         2
         2         1         4        33     9        0.000000       -0.616239         3
         2         1         4        33     9      180.000000        0.118345         4
         2         1        12        11     9        0.000000       -0.162289         1
         2         1        12        11     9      180.000000        3.786802         2
         2         1        12        11     9        0.000000        0.043787         3
         2         1        12        11     9      180.000000       -0.054055         4
         2         1        12        13     9        0.000000        0.756255         1
         2         1        12        13     9      180.000000        3.054558         2
         2         1        12        13     9        0.000000        0.048330         3
         2         1        12        13     9      180.000000        0.069190         4
         2         6         5         3     9        0.000000       -0.182066         1
         2         6         5         3     9      180.000000       10.820821         2
         2         6         5         3     9        0.000000       -1.560918         3
         2         6         5         3     9      180.000000       -0.084342         4
         2         6         5         9     9        0.000000        0.226850         1
         2         6         5         9     9      180.000000        9.441458         2
         2         6         5         9     9        0.000000       -1.979393         3
         2         6         5         9     9      180.000000        0.139747         4
         2         6         7         8     9        0.000000       -0.193352         1
         2         6         7         8     9      180.000000        4.140991         2
         2         6         7         8     9        0.000000       -0.840249         3
         2         6         7         8     9      180.000000        0.069371         4
         2         6         7        10     9        0.000000       -0.331497         1
         2         6         7        10     9      180.000000        4.362505         2
         2         6         7        10     9        0.000000        0.264842         3
         2         6         7        10     9      180.000000        0.074534         4
         3         4         1        12     9        0.000000        0.016795         1
         3         4         1        12     9      180.000000       13.043892         2
         3         4         1        12     9        0.000000       -0.182298         3
         3         4         1        12     9      180.000000       -0.198772         4
         3         5         6         7     9        0.000000        0.013726         1
         3         5         6         7     9      180.000000       11.364980         2
         3         5         6         7     9        0.000000       -2.375362         3
         3         5         6         7     9      180.000000       -0.032571         4
         3         5         9         8     9        0.000000        1.377857         1
         3         5         9         8     9      180.000000        5.463620         2
         3         5         9         8     9        0.000000        0.482993         3
         3         5         9         8     9      180.000000       -0.026967         4
         3         5         9        34     9        0.000000       -0.144194         1
         3         5         9        34     9      180.000000        1.437052         2
         3         5         9        34     9        0.000000        0.111179         3
         3         5         9        34     9      180.000000       -0.108626         4
         4         1         2         6     9        0.000000       -0.060994         1
         4         1         2         6     9      180.000000       20.796829         2
         4         1         2         6     9        0.000000       -1.336654         3
         4         1         2         6     9      180.000000       -0.652179         4
         4         1         2        31     9        0.000000        0.098414         1
         4         1         2        31     9      180.000000       14.345082         2
         4         1         2        31     9        0.000000       -0.442967         3
         4         1         2        31     9      180.000000       -0.038297         4
         4         1        12        11     9        0.000000       -0.016652         1
         4         1        12        11     9      180.000000        4.045825         2
         4         1        12        11     9        0.000000        0.041339         3
         4         1        12        11     9      180.000000       -0.030899         4
         4         1        12        13     9        0.000000       -0.145844         1
         4         1        12        13     9      180.000000        3.188239         2
         4         1        12        13     9        0.000000       -0.066726         3
         4         1        12        13     9      180.000000        0.063658         4
         4         3         5         6     9        0.000000       -0.191339         1
         4         3         5         6     9      180.000000       16.807590         2
         4         3         5         6     9        0.000000       -1.820462         3
         4         3         5         6     9      180.000000       -0.310209         4
         4         3         5         9     9        0.000000        0.196318         1
         4         3         5         9     9      180.000000       13.154872         2
         4         3         5         9     9        0.000000       -0.072231         3
         4         3         5         9     9      180.000000       -0.089817         4
         5         3         4        33     9        0.000000        0.121683         1
         5         3         4        33     9      180.000000       16.942001         2
         5         3         4        33     9        0.000000       -0.541780         3
         5         3         4        33     9      180.000000       -0.066794         4
         5         6         2        31     9        0.000000        0.335966         1
         5         6         2        31     9      180.000000       14.149016         2
         5         6         2        31     9        0.000000       -0.273917         3
         5         6         2        31     9      180.000000       -0.178109         4
         5         6         7         8     9        0.000000       -0.162908         1
         5         6         7         8     9      180.000000       30.970858         2
         5         6         7         8     9        0.000000       -9.502101         3
         5         6         7         8     9      180.000000       -0.199775         4
         5         6         7        10     9        0.000000        0.890108         1
         5         6         7        10     9      180.000000       14.512310         2
         5         6         7        10     9        0.000000        0.077318         3
         5         6         7        10     9      180.000000       -0.587913         4
         5         9         8         7     9        0.000000       -0.211795         1
         5         9         8         7     9      180.000000       17.216046         2
         5         9         8         7     9        0.000000       -2.171080         3
         5         9         8         7     9      180.000000       -1.162629         4
         6         2         1        12     9        0.000000       -0.128871         1
         6         2         1        12     9      180.000000       16.281045         2
         6         2         1        12     9        0.000000       -0.088711         3
         6         2         1        12     9      180.000000       -0.563802         4
         6         5         3        32     9        0.000000        0.110701         1
         6         5         3        32     9      180.000000       11.319822         2
         6         5         3        32     9        0.000000       -0.316225         3
         6         5         3        32     9      180.000000        0.007906         4
         6         5         9         8     9        0.000000        0.390747         1
         6         5         9         8     9      180.000000       24.505127         2
         6         5         9         8     9        0.000000       -5.048799         3
         6         5         9         8     9      180.000000       -1.038600         4
         6         5         9        34     9        0.000000        0.331645         1
         6         5         9        34     9      180.000000        1.565779         2
         6         5         9        34     9        0.000000        0.503324         3
         6         5         9        34     9      180.000000        0.026217         4
         6         7         8         9     9        0.000000       -0.258996         1
         6         7         8         9     9      180.000000       41.393587         2
         6         7         8         9     9        0.000000       -4.764387         3
         6         7         8         9     9      180.000000       -0.127516         4
         6         7        10        14     9        0.000000        0.310537         1
         6         7        10        14     9      180.000000       -0.403090         2
         6         7        10        14     9        0.000000        0.584680         3
         6         7        10        14     9      180.000000        0.021864         4
         6         7        10        35     9        0.000000       -0.068661         1
         6         7        10        35     9      180.000000        0.151333         2
         6         7        10        35     9        0.000000        0.519228         3
         6         7        10        35     9      180.000000        0.015146         4
         6         7        10        36     9        0.000000       -0.068661         1
         6         7        10        36     9      180.000000        0.151333         2
         6         7        10        36     9        0.000000        0.519228         3
         6         7        10        36     9      180.000000        0.015146         4
         7         6         2        31     9        0.000000       -0.186621         1
         7         6         2        31     9      180.000000        9.410874         2
         7         6         2        31     9        0.000000        0.058020         3
         7         6         2        31     9      180.000000        0.070486         4
         7         6         5         9     9        0.000000        0.179899         1
         7         6         5         9     9      180.000000       17.435825         2
         7         6         5         9     9        0.000000       -6.362413         3
         7         6         5         9     9      180.000000       -0.223537         4
         7         8         9        34     9        0.000000        2.366235         1
         7         8         9        34     9      180.000000        2.975894         2
         7         8         9        34     9        0.000000        0.435105         3
         7         8         9        34     9      180.000000        0.026087         4
         7        10        14        15     9        0.000000       -0.162197         1
         7        10        14        15     9      180.000000        0.171147         2
         7        10        14        15     9        0.000000        0.114997         3
         7        10        14        15     9      180.000000        0.021335         4
         7        10        14        19     9        0.000000       -0.162197         1
         7        10        14        19     9      180.000000        0.171147         2
         7        10        14        19     9        0.000000        0.114997         3
         7        10        14        19     9      180.000000        0.021335         4
         8         7        10        14     9        0.000000       -0.862580         1
         8         7        10        14     9      180.000000       -0.216635         2
         8         7        10        14     9        0.000000        0.027906         3
         8         7        10        14     9      180.000000        0.006368         4
         8         7        10        35     9        0.000000        0.219474         1
         8         7        10        35     9      180.000000        0.093663         2
         8         7        10        35     9        0.000000       -0.190341         3
         8         7        10        35     9      180.000000        0.040522         4
         8         7        10        36     9        0.000000        0.219474         1
         8         7        10        36     9      180.000000        0.093663         2
         8         7        10        36     9        0.000000       -0.190341         3
         8         7        10        36     9      180.000000        0.040522         4
         9         5         3        32     9        0.000000       -0.095858         1
         9         5         3        32     9      180.000000        9.589786         2
         9         5         3        32     9        0.000000       -0.052493         3
         9         5         3        32     9      180.000000        0.042476         4
         9         8         7        10     9        0.000000        0.492327         1
         9         8         7        10     9      180.000000       32.362694         2
         9         8         7        10     9        0.000000        0.809139         3
         9         8         7        10     9      180.000000       -0.860767         4
        10        14        15        16     9        0.000000        0.026860         1
        10        14        15        16     9      180.000000       15.135600         2
        10        14        15        16     9        0.000000       -0.170192         3
        10        14        15        16     9      180.000000       -0.215560         4
        10        14        15        37     9        0.000000       -0.086046         1
        10        14        15        37     9      180.000000       12.621826         2
        10        14        15        37     9        0.000000       -0.312532         3
        10        14        15        37     9      180.000000        0.160165         4
        10        14        19        18     9        0.000000        0.026860         1
        10        14        19        18     9      180.000000       15.135600         2
        10        14        19        18     9        0.000000       -0.170192         3
        10        14        19        18     9      180.000000       -0.215560         4
        10        14        19        40     9        0.000000       -0.086046         1
        10        14        19        40     9      180.000000       12.621826         2
        10        14        19        40     9        0.000000       -0.312532         3
        10        14        19        40     9      180.000000        0.160165         4
        11        26        27        28     9        0.000000        0.590557         1
        11        26        27        28     9      180.000000       -1.522925         2
        11        26        27        28     9        0.000000        0.401066         3
        11        26        27        28     9      180.000000       -0.136209         4
        11        26        27        48     9        0.000000       -0.126145         1
        11        26        27        48     9      180.000000        0.164243         2
        11        26        27        48     9        0.000000        0.467044         3
        11        26        27        48     9      180.000000        0.004985         4
        11        26        27        49     9        0.000000       -0.126145         1
        11        26        27        49     9      180.000000        0.164243         2
        11        26        27        49     9        0.000000        0.467044         3
        11        26        27        49     9      180.000000        0.004985         4
        11        30        29        28     9        0.000000        0.590557         1
        11        30        29        28     9      180.000000       -1.522925         2
        11        30        29        28     9        0.000000        0.401066         3
        11        30        29        28     9      180.000000       -0.136209         4
        11        30        29        50     9        0.000000       -0.126146         1
        11        30        29        50     9      180.000000        0.164242         2
        11        30        29        50     9        0.000000        0.467044         3
        11        30        29        50     9      180.000000        0.004985         4
        11        30        29        51     9        0.000000       -0.126146         1
        11        30        29        51     9      180.000000        0.164242         2
        11        30        29        51     9        0.000000        0.467044         3
        11        30        29        51     9      180.000000        0.004985         4
        12         1         2        31     9        0.000000        0.005684         1
        12         1         2        31     9      180.000000       12.644005         2
        12         1         2        31     9        0.000000       -0.322539         3
        12         1         2        31     9      180.000000        0.019750         4
        12         1         4        33     9        0.000000       -0.040950         1
        12         1         4        33     9      180.000000       11.744838         2
        12         1         4        33     9        0.000000       -0.398168         3
        12         1         4        33     9      180.000000        0.000068         4
        12        11        26        27     9        0.000000        0.381524         1
        12        11        26        27     9      180.000000        0.380332         2
        12        11        26        27     9        0.000000       -0.095549         3
        12        11        26        27     9      180.000000        0.065926         4
        12        11        26        46     9        0.000000       -0.023069         1
        12        11        26        46     9      180.000000       -0.051570         2
        12        11        26        46     9        0.000000       -0.030523         3
        12        11        26        46     9      180.000000        0.017022         4
        12        11        26        47     9        0.000000       -0.023069         1
        12        11        26        47     9      180.000000       -0.051570         2
        12        11        26        47     9        0.000000       -0.030523         3
        12        11        26        47     9      180.000000        0.017022         4
        12        11        30        29     9        0.000000        0.381524         1
        12        11        30        29     9      180.000000        0.380332         2
        12        11        30        29     9        0.000000       -0.095548         3
        12        11        30        29     9      180.000000        0.065926         4
        12        11        30        52     9        0.000000       -0.023068         1
        12        11        30        52     9      180.000000       -0.051571         2
        12        11        30        52     9        0.000000       -0.030522         3
        12        11        30        52     9      180.000000        0.017022         4
        12        11        30        53     9        0.000000       -0.023068         1
        12        11        30        53     9      180.000000       -0.051571         2
        12        11        30        53     9        0.000000       -0.030522         3
        12        11        30        53     9      180.000000        0.017022         4
        13        12        11        26     9        0.000000       -2.728117         1
        13        12        11        26     9      180.000000       14.689680         2
        13        12        11        26     9        0.000000       -1.383269         3
        13        12        11        26     9      180.000000       -0.373203         4
        13        12        11        30     9        0.000000       -2.728117         1
        13        12        11        30     9      180.000000       14.689680         2
        13        12        11        30     9        0.000000       -1.383269         3
        13        12        11        30     9      180.000000       -0.373203         4
        14        15        16        17     9        0.000000       -0.033501         1
        14        15        16        17     9      180.000000       18.361802         2
        14        15        16        17     9        0.000000       -1.382122         3
        14        15        16        17     9      180.000000       -0.333748         4
        14        15        16        38     9        0.000000        0.009019         1
        14        15        16        38     9      180.000000       15.117729         2
        14        15        16        38     9        0.000000       -0.652997         3
        14        15        16        38     9      180.000000        0.089352         4
        14        19        18        17     9        0.000000       -0.033501         1
        14        19        18        17     9      180.000000       18.361802         2
        14        19        18        17     9        0.000000       -1.382122         3
        14        19        18        17     9      180.000000       -0.333748         4
        14        19        18        39     9        0.000000        0.009019         1
        14        19        18        39     9      180.000000       15.117729         2
        14        19        18        39     9        0.000000       -0.652997         3
        14        19        18        39     9      180.000000        0.089352         4
        15        14        10        35     9        0.000000        0.026652         1
        15        14        10        35     9      180.000000        0.014947         2
        15        14        10        35     9        0.000000        0.013547         3
        15        14        10        35     9      180.000000        0.009027         4
        15        14        10        36     9        0.000000        0.026652         1
        15        14        10        36     9      180.000000        0.014947         2
        15        14        10        36     9        0.000000        0.013547         3
        15        14        10        36     9      180.000000        0.009027         4
        15        14        19        18     9        0.000000       -0.017692         1
        15        14        19        18     9      180.000000       18.652768         2
        15        14        19        18     9        0.000000       -1.225804         3
        15        14        19        18     9      180.000000       -0.466466         4
        15        14        19        40     9        0.000000        0.019722         1
        15        14        19        40     9      180.000000       14.478141         2
        15        14        19        40     9        0.000000       -0.483578         3
        15        14        19        40     9      180.000000        0.000311         4
        15        16        17        18     9        0.000000       -0.080966         1
        15        16        17        18     9      180.000000       18.153112         2
        15        16        17        18     9        0.000000       -1.373641         3
        15        16        17        18     9      180.000000       -0.356348         4
        15        16        17        20     9        0.000000        0.345560         1
        15        16        17        20     9      180.000000       16.650203         2
        15        16        17        20     9        0.000000       -0.115710         3
        15        16        17        20     9      180.000000       -0.388262         4
        16        15        14        19     9        0.000000       -0.017692         1
        16        15        14        19     9      180.000000       18.652768         2
        16        15        14        19     9        0.000000       -1.225804         3
        16        15        14        19     9      180.000000       -0.466466         4
        16        17        18        19     9        0.000000       -0.080966         1
        16        17        18        19     9      180.000000       18.153112         2
        16        17        18        19     9        0.000000       -1.373641         3
        16        17        18        19     9      180.000000       -0.356348         4
        16        17        18        39     9        0.000000       -0.122536         1
        16        17        18        39     9      180.000000       13.854592         2
        16        17        18        39     9        0.000000       -0.550856         3
        16        17        18        39     9      180.000000        0.073352         4
        16        17        20        21     9        0.000000        0.226385         1
        16        17        20        21     9      180.000000        2.444068         2
        16        17        20        21     9        0.000000        0.075300         3
        16        17        20        21     9      180.000000       -0.310311         4
        16        17        20        24     9        0.000000       -0.000289         1
        16        17        20        24     9      180.000000        2.079647         2
        16        17        20        24     9        0.000000       -0.058954         3
        16        17        20        24     9      180.000000       -0.243068         4
        17        16        15        37     9        0.000000       -0.019661         1
        17        16        15        37     9      180.000000       14.564297         2
        17        16        15        37     9        0.000000       -0.438149         3
        17        16        15        37     9      180.000000        0.148899         4
        17        18        19        40     9        0.000000       -0.019661         1
        17        18        19        40     9      180.000000       14.564297         2
        17        18        19        40     9        0.000000       -0.438149         3
        17        18        19        40     9      180.000000        0.148899         4
        17        20        21        22     9        0.000000        0.183654         1
        17        20        21        22     9      180.000000       16.330189         2
        17        20        21        22     9        0.000000       -0.168639         3
        17        20        21        22     9      180.000000       -0.945094         4
        17        20        21        41     9        0.000000       -0.192731         1
        17        20        21        41     9      180.000000       10.764578         2
        17        20        21        41     9        0.000000       -0.137823         3
        17        20        21        41     9      180.000000       -0.003216         4
        17        20        24        23     9        0.000000        0.388880         1
        17        20        24        23     9      180.000000       15.245298         2
        17        20        24        23     9        0.000000       -0.357893         3
        17        20        24        23     9      180.000000       -0.981862         4
        17        20        24        42     9        0.000000       -0.157977         1
        17        20        24        42     9      180.000000       10.350387         2
        17        20        24        42     9        0.000000       -0.025513         3
        17        20        24        42     9      180.000000        0.047765         4
        18        17        16        38     9        0.000000       -0.122536         1
        18        17        16        38     9      180.000000       13.854592         2
        18        17        16        38     9        0.000000       -0.550856         3
        18        17        16        38     9      180.000000        0.073352         4
        18        17        20        21     9        0.000000        0.226385         1
        18        17        20        21     9      180.000000        2.444068         2
        18        17        20        21     9        0.000000        0.075300         3
        18        17        20        21     9      180.000000       -0.310311         4
        18        17        20        24     9        0.000000       -0.000289         1
        18        17        20        24     9      180.000000        2.079647         2
        18        17        20        24     9        0.000000       -0.058954         3
        18        17        20        24     9      180.000000       -0.243068         4
        19        14        10        35     9        0.000000        0.026652         1
        19        14        10        35     9      180.000000        0.014947         2
        19        14        10        35     9        0.000000        0.013547         3
        19        14        10        35     9      180.000000        0.009027         4
        19        14        10        36     9        0.000000        0.026652         1
        19        14        10        36     9      180.000000        0.014947         2
        19        14        10        36     9        0.000000        0.013547         3
        19        14        10        36     9      180.000000        0.009027         4
        19        14        15        37     9        0.000000        0.019722         1
        19        14        15        37     9      180.000000       14.478141         2
        19        14        15        37     9        0.000000       -0.483578         3
        19        14        15        37     9      180.000000        0.000311         4
        19        18        17        20     9        0.000000        0.345560         1
        19        18        17        20     9      180.000000       16.650203         2
        19        18        17        20     9        0.000000       -0.115710         3
        19        18        17        20     9      180.000000       -0.388262         4
        20        17        16        38     9        0.000000        0.146898         1
        20        17        16        38     9      180.000000       13.479037         2
        20        17        16        38     9        0.000000       -0.087547         3
        20        17        16        38     9      180.000000        0.132717         4
        20        17        18        39     9        0.000000        0.146898         1
        20        17        18        39     9      180.000000       13.479037         2
        20        17        18        39     9        0.000000       -0.087547         3
        20        17        18        39     9      180.000000        0.132717         4
        20        21        22        23     9        0.000000       -0.009121         1
        20        21        22        23     9      180.000000       30.745141         2
        20        21        22        23     9        0.000000       -6.250990         3
        20        21        22        23     9      180.000000       -0.578339         4
        20        21        22        25     9        0.000000        0.805845         1
        20        21        22        25     9      180.000000        7.183529         2
        20        21        22        25     9        0.000000        0.904760         3
        20        21        22        25     9      180.000000       -0.006099         4
        20        24        23        22     9        0.000000       -0.003186         1
        20        24        23        22     9      180.000000       40.723745         2
        20        24        23        22     9        0.000000       -5.801977         3
        20        24        23        22     9      180.000000       -0.138216         4
        21        20        24        23     9        0.000000       -0.184323         1
        21        20        24        23     9      180.000000       30.518446         2
        21        20        24        23     9        0.000000       -8.302201         3
        21        20        24        23     9      180.000000        0.056566         4
        21        20        24        42     9        0.000000        0.182830         1
        21        20        24        42     9      180.000000       14.435368         2
        21        20        24        42     9        0.000000       -0.577632         3
        21        20        24        42     9      180.000000       -0.486645         4
        21        22        23        24     9        0.000000       -0.276705         1
        21        22        23        24     9      180.000000       27.814030         2
        21        22        23        24     9        0.000000       -4.425871         3
        21        22        23        24     9      180.000000        0.073279         4
        21        22        25        43     9        0.000000       -0.025034         1
        21        22        25        43     9      180.000000       -0.009391         2
        21        22        25        43     9        0.000000        0.181958         3
        21        22        25        43     9      180.000000        0.012892         4
        21        22        25        44     9        0.000000       -0.025034         1
        21        22        25        44     9      180.000000       -0.009391         2
        21        22        25        44     9        0.000000        0.181958         3
        21        22        25        44     9      180.000000        0.012892         4
        21        22        25        45     9        0.000000       -0.025034         1
        21        22        25        45     9      180.000000       -0.009391         2
        21        22        25        45     9        0.000000        0.181958         3
        21        22        25        45     9      180.000000        0.012892         4
        22        21        20        24     9        0.000000       -0.206975         1
        22        21        20        24     9      180.000000       30.618729         2
        22        21        20        24     9        0.000000       -8.507334         3
        22        21        20        24     9      180.000000       -0.023863         4
        22        23        24        42     9        0.000000        1.030702         1
        22        23        24        42     9      180.000000       28.071183         2
        22        23        24        42     9        0.000000       -0.182231         3
        22        23        24        42     9      180.000000       -0.061982         4
        23        22        21        41     9        0.000000        1.067261         1
        23        22        21        41     9      180.000000       12.367244         2
        23        22        21        41     9        0.000000        0.213521         3
        23        22        21        41     9      180.000000       -0.400032         4
        23        22        25        43     9        0.000000       -0.002235         1
        23        22        25        43     9      180.000000        0.002811         2
        23        22        25        43     9        0.000000        0.198678         3
        23        22        25        43     9      180.000000        0.004453         4
        23        22        25        44     9        0.000000       -0.002235         1
        23        22        25        44     9      180.000000        0.002811         2
        23        22        25        44     9        0.000000        0.198678         3
        23        22        25        44     9      180.000000        0.004453         4
        23        22        25        45     9        0.000000       -0.002235         1
        23        22        25        45     9      180.000000        0.002811         2
        23        22        25        45     9        0.000000        0.198678         3
        23        22        25        45     9      180.000000        0.004453         4
        24        20        21        41     9        0.000000        0.010232         1
        24        20        21        41     9      180.000000       13.254580         2
        24        20        21        41     9        0.000000       -0.641023         3
        24        20        21        41     9      180.000000       -0.261573         4
        24        23        22        25     9        0.000000        0.586693         1
        24        23        22        25     9      180.000000       10.298364         2
        24        23        22        25     9        0.000000        0.792012         3
        24        23        22        25     9      180.000000       -0.113382         4
        25        22        21        41     9        0.000000       -0.493730         1
        25        22        21        41     9      180.000000        3.995450         2
        25        22        21        41     9        0.000000        0.087170         3
        25        22        21        41     9      180.000000        0.043642         4
        26        11        30        29     9        0.000000        0.481457         1
        26        11        30        29     9      180.000000       -2.967582         2
        26        11        30        29     9        0.000000        1.129638         3
        26        11        30        29     9      180.000000        0.229353         4
        26        11        30        52     9        0.000000       -0.071531         1
        26        11        30        52     9      180.000000        0.078459         2
        26        11        30        52     9        0.000000        0.831170         3
        26        11        30        52     9      180.000000       -0.038933         4
        26        11        30        53     9        0.000000       -0.071531         1
        26        11        30        53     9      180.000000        0.078459         2
        26        11        30        53     9        0.000000        0.831170         3
        26        11        30        53     9      180.000000       -0.038933         4
        26        27        28        29     9        0.000000        0.665587         1
        26        27        28        29     9      180.000000       -1.394276         2
        26        27        28        29     9        0.000000        0.594694         3
        26        27        28        29     9      180.000000        0.083367         4
        27        26        11        30     9        0.000000        0.481457         1
        27        26        11        30     9      180.000000       -2.967582         2
        27        26        11        30     9        0.000000        1.129639         3
        27        26        11        30     9      180.000000        0.229352         4
        27        28        29        30     9        0.000000        0.665585         1
        27        28        29        30     9      180.000000       -1.394276         2
        27        28        29        30     9        0.000000        0.594694         3
        27        28        29        30     9      180.000000        0.083367         4
        27        28        29        50     9        0.000000       -0.055502         1
        27        28        29        50     9      180.000000        0.079644         2
        27        28        29        50     9        0.000000        0.445264         3
        27        28        29        50     9      180.000000       -0.000411         4
        27        28        29        51     9        0.000000       -0.055502         1
        27        28        29        51     9      180.000000        0.079644         2
        27        28        29        51     9        0.000000        0.445264         3
        27        28        29        51     9      180.000000       -0.000411         4
        28        27        26        46     9        0.000000       -0.005546         1
        28        27        26        46     9      180.000000        0.169081         2
        28        27        26        46     9        0.000000        0.294590         3
        28        27        26        46     9      180.000000        0.001636         4
        28        27        26        47     9        0.000000       -0.005546         1
        28        27        26        47     9      180.000000        0.169081         2
        28        27        26        47     9        0.000000        0.294590         3
        28        27        26        47     9      180.000000        0.001636         4
        28        29        30        52     9        0.000000       -0.005545         1
        28        29        30        52     9      180.000000        0.169080         2
        28        29        30        52     9        0.000000        0.294590         3
        28        29        30        52     9      180.000000        0.001636         4
        28        29        30        53     9        0.000000       -0.005545         1
        28        29        30        53     9      180.000000        0.169080         2
        28        29        30        53     9        0.000000        0.294590         3
        28        29        30        53     9      180.000000        0.001636         4
        29        28        27        48     9        0.000000       -0.055502         1
        29        28        27        48     9      180.000000        0.079644         2
        29        28        27        48     9        0.000000        0.445264         3
        29        28        27        48     9      180.000000       -0.000411         4
        29        28        27        49     9        0.000000       -0.055502         1
        29        28        27        49     9      180.000000        0.079644         2
        29        28        27        49     9        0.000000        0.445264         3
        29        28        27        49     9      180.000000       -0.000411         4
        30        11        26        46     9        0.000000       -0.071531         1
        30        11        26        46     9      180.000000        0.078458         2
        30        11        26        46     9        0.000000        0.831170         3
        30        11        26        46     9      180.000000       -0.038932         4
        30        11        26        47     9        0.000000       -0.071531         1
        30        11        26        47     9      180.000000        0.078458         2
        30        11        26        47     9        0.000000        0.831170         3
        30        11        26        47     9      180.000000       -0.038932         4
        32         3         4        33     9        0.000000       -0.091967         1
        32         3         4        33     9      180.000000       12.597291         2
        32         3         4        33     9        0.000000       -0.683384         3
        32         3         4        33     9      180.000000        0.289003         4
        37        15        16        38     9        0.000000       -0.173270         1
        37        15        16        38     9      180.000000       12.433057         2
        37        15        16        38     9        0.000000       -0.660707         3
        37        15        16        38     9      180.000000        0.303153         4
        39        18        19        40     9        0.000000       -0.173270         1
        39        18        19        40     9      180.000000       12.433057         2
        39        18        19        40     9        0.000000       -0.660707         3
        39        18        19        40     9      180.000000        0.303153         4
        46        26        27        48     9        0.000000       -0.013705         1
        46        26        27        48     9      180.000000        0.004066         2
        46        26        27        48     9        0.000000        0.241778         3
        46        26        27        48     9      180.000000        0.031920         4
        46        26        27        49     9        0.000000       -0.013705         1
        46        26        27        49     9      180.000000        0.004066         2
        46        26        27        49     9        0.000000        0.241778         3
        46        26        27        49     9      180.000000        0.031920         4
        47        26        27        48     9        0.000000       -0.013705         1
        47        26        27        48     9      180.000000        0.004066         2
        47        26        27        48     9        0.000000        0.241778         3
        47        26        27        48     9      180.000000        0.031920         4
        47        26        27        49     9        0.000000       -0.013705         1
        47        26        27        49     9      180.000000        0.004066         2
        47        26        27        49     9        0.000000        0.241778         3
        47        26        27        49     9      180.000000        0.031920         4
        50        29        30        52     9        0.000000       -0.013705         1
        50        29        30        52     9      180.000000        0.004065         2
        50        29        30        52     9        0.000000        0.241778         3
        50        29        30        52     9      180.000000        0.031920         4
        50        29        30        53     9        0.000000       -0.013705         1
        50        29        30        53     9      180.000000        0.004065         2
        50        29        30        53     9        0.000000        0.241778         3
        50        29        30        53     9      180.000000        0.031920         4
        51        29        30        52     9        0.000000       -0.013705         1
        51        29        30        52     9      180.000000        0.004065         2
        51        29        30        52     9        0.000000        0.241778         3
        51        29        30        52     9      180.000000        0.031920         4
        51        29        30        53     9        0.000000       -0.013705         1
        51        29        30        53     9      180.000000        0.004065         2
        51        29        30        53     9        0.000000        0.241778         3
        51        29        30        53     9      180.000000        0.031920         4

[ dihedrals ] ; impropers
;       ai        aj        ak        al funct           phase               k        pn
         2         1         6        31     4      180.000000        2.433418         2
         2         6        31         1     4      180.000000        2.433418         2
         2        31         1         6     4      180.000000        2.433418         2
         3         4         5        32     4      180.000000        0.136188         2
         3         5        32         4     4      180.000000        0.136188         2
         3        32         4         5     4      180.000000        0.136188         2
        15        14        16        37     4      180.000000        1.374161         2
        15        16        37        14     4      180.000000        1.374161         2
        15        37        14        16     4      180.000000        1.374161         2
        19        14        18        40     4      180.000000        1.374161         2
        19        18        40        14     4      180.000000        1.374161         2
        19        40        14        18     4      180.000000        1.374161         2

[ pairs ]
;       ai        aj funct
         1         5     1
         1         7     1
         1        26     1
         1        30     1
         1        32     1
         2         3     1
         2         8     1
         2         9     1
         2        10     1
         2        11     1
         2        13     1
         2        33     1
         3         7     1
         3         8     1
         3        12     1
         3        34     1
         4         6     1
         4         9     1
         4        11     1
         4        13     1
         4        31     1
         5        10     1
         5        31     1
         5        33     1
         6        12     1
         6        14     1
         6        32     1
         6        34     1
         6        35     1
         6        36     1
         7        15     1
         7        19     1
         7        31     1
         7        34     1
         8        14     1
         8        35     1
         8        36     1
         9        10     1
         9        32     1
        10        16     1
        10        18     1
        10        37     1
        10        40     1
        11        28     1
        11        48     1
        11        49     1
        11        50     1
        11        51     1
        12        27     1
        12        29     1
        12        31     1
        12        33     1
        12        46     1
        12        47     1
        12        52     1
        12        53     1
        13        26     1
        13        30     1
        14        17     1
        14        38     1
        14        39     1
        15        18     1
        15        20     1
        15        35     1
        15        36     1
        15        40     1
        16        19     1
        16        21     1
        16        24     1
        16        39     1
        17        22     1
        17        23     1
        17        37     1
        17        40     1
        17        41     1
        17        42     1
        18        21     1
        18        24     1
        18        38     1
        19        20     1
        19        35     1
        19        36     1
        19        37     1
        20        25     1
        20        38     1
        20        39     1
        21        42     1
        21        43     1
        21        44     1
        21        45     1
        22        42     1
        23        41     1
        23        43     1
        23        44     1
        23        45     1
        24        25     1
        24        41     1
        25        41     1
        26        29     1
        26        52     1
        26        53     1
        27        30     1
        27        50     1
        27        51     1
        28        46     1
        28        47     1
        28        52     1
        28        53     1
        29        48     1
        29        49     1
        30        46     1
        30        47     1
        32        33     1
        37        38     1
        39        40     1
        46        48     1
        46        49     1
        47        48     1
        47        49     1
        50        52     1
        50        53     1
        51        52     1
        51        53     1
