; ITP file created by ByteFF-ML, 2026-02-21 07:34:33.152981

[ atomtypes ]
;name           bonded.type        at.num        mass        charge   ptype           sigma         epsilon
 c0bf                                   6      0.0000       0.00000       A     3.31447e-01     4.11839e-01
 c1bf                                   6      0.0000       0.00000       A     3.31437e-01     4.13463e-01
 c2bf                                   6      0.0000       0.00000       A     3.31517e-01     4.12539e-01
 c3bf                                   6      0.0000       0.00000       A     3.31568e-01     4.12929e-01
 c4bf                                   6      0.0000       0.00000       A     3.31529e-01     4.12453e-01
 c5bf                                   6      0.0000       0.00000       A     3.31504e-01     4.11661e-01
 c6bf                                   6      0.0000       0.00000       A     3.31449e-01     4.11690e-01
 n7bf                                   7      0.0000       0.00000       A     3.38151e-01     3.91342e-01
 n8bf                                   7      0.0000       0.00000       A     3.20440e-01     8.58154e-01
 c9bf                                   6      0.0000       0.00000       A     3.39884e-01     4.51119e-01
 n10bf                                  7      0.0000       0.00000       A     3.18314e-01     6.83566e-01
 c11bf                                  6      0.0000       0.00000       A     3.31605e-01     4.11717e-01
 o12bf                                  8      0.0000       0.00000       A     3.04680e-01     6.14503e-01
 c13bf                                  6      0.0000       0.00000       A     3.31494e-01     4.13368e-01
 c14bf                                  6      0.0000       0.00000       A     3.31479e-01     4.12962e-01
 c15bf                                  6      0.0000       0.00000       A     3.31328e-01     4.11816e-01
 c16bf                                  6      0.0000       0.00000       A     3.31571e-01     4.13358e-01
 c17bf                                  6      0.0000       0.00000       A     3.31458e-01     4.13224e-01
 c18bf                                  6      0.0000       0.00000       A     3.31557e-01     4.13813e-01
 c19bf                                  6      0.0000       0.00000       A     3.31430e-01     4.12873e-01
 n20bf                                  7      0.0000       0.00000       A     3.38413e-01     3.94987e-01
 n21bf                                  7      0.0000       0.00000       A     3.20564e-01     8.53149e-01
 c22bf                                  6      0.0000       0.00000       A     3.39827e-01     4.50277e-01
 c23bf                                  6      0.0000       0.00000       A     3.39802e-01     4.51780e-01
 c24bf                                  6      0.0000       0.00000       A     3.39692e-01     4.51314e-01
 c25bf                                  6      0.0000       0.00000       A     3.39871e-01     4.50521e-01
 c26bf                                  6      0.0000       0.00000       A     3.39651e-01     4.50818e-01
 o27bf                                  8      0.0000       0.00000       A     3.24591e-01     3.88761e-01
 h28bf                                  1      0.0000       0.00000       A     2.62420e-01     6.68753e-02
 h29bf                                  1      0.0000       0.00000       A     2.62471e-01     6.70892e-02
 h30bf                                  1      0.0000       0.00000       A     2.62611e-01     6.73573e-02
 h31bf                                  1      0.0000       0.00000       A     1.10602e-01     4.12983e-02
 h32bf                                  1      0.0000       0.00000       A     2.60095e-01     8.81477e-02
 h33bf                                  1      0.0000       0.00000       A     2.60095e-01     8.81477e-02
 h34bf                                  1      0.0000       0.00000       A     2.62434e-01     6.79191e-02
 h35bf                                  1      0.0000       0.00000       A     2.62520e-01     6.70780e-02
 h36bf                                  1      0.0000       0.00000       A     2.62456e-01     6.73238e-02
 h37bf                                  1      0.0000       0.00000       A     2.53922e-01     6.68561e-02
 h38bf                                  1      0.0000       0.00000       A     2.41917e-01     8.73385e-02
 h39bf                                  1      0.0000       0.00000       A     2.41917e-01     8.73385e-02
 h40bf                                  1      0.0000       0.00000       A     2.41917e-01     8.73385e-02
 h41bf                                  1      0.0000       0.00000       A     2.41949e-01     8.68996e-02
 h42bf                                  1      0.0000       0.00000       A     2.41949e-01     8.68996e-02
 h43bf                                  1      0.0000       0.00000       A     2.42197e-01     8.65293e-02
 h44bf                                  1      0.0000       0.00000       A     2.60209e-01     8.72427e-02
 h45bf                                  1      0.0000       0.00000       A     2.60209e-01     8.72427e-02
 h46bf                                  1      0.0000       0.00000       A     2.42114e-01     8.70432e-02
 h47bf                                  1      0.0000       0.00000       A     2.42114e-01     8.70432e-02
 h48bf                                  1      0.0000       0.00000       A     5.38282e-02     1.93476e-02

[ moleculetype ]
;name             nrexcl
 42_flipped            3

[ atoms ]
;       nr            type      resi   res      atom      cgnr      charge          mass ; qtot
         1            c0bf         1   UNL        c0         1    -0.19028       12.0110 ; qtot   -0.190
         2            c1bf         1   UNL        c1         2     0.02054       12.0110 ; qtot   -0.170
         3            c2bf         1   UNL        c2         3    -0.15282       12.0110 ; qtot   -0.323
         4            c3bf         1   UNL        c3         4    -0.04037       12.0110 ; qtot   -0.363
         5            c4bf         1   UNL        c4         5    -0.00010       12.0110 ; qtot   -0.363
         6            c5bf         1   UNL        c5         6    -0.23654       12.0110 ; qtot   -0.600
         7            c6bf         1   UNL        c6         7     0.35985       12.0110 ; qtot   -0.240
         8            n7bf         1   UNL        n7         8    -0.50667       14.0070 ; qtot   -0.746
         9            n8bf         1   UNL        n8         9    -0.08032       14.0070 ; qtot   -0.827
        10            c9bf         1   UNL        c9        10    -0.03805       12.0110 ; qtot   -0.865
        11           n10bf         1   UNL       n10        11    -0.41793       14.0070 ; qtot   -1.283
        12           c11bf         1   UNL       c11        12     0.61598       12.0110 ; qtot   -0.667
        13           o12bf         1   UNL       o12        13    -0.59731       15.9990 ; qtot   -1.264
        14           c13bf         1   UNL       c13        14    -0.12142       12.0110 ; qtot   -1.385
        15           c14bf         1   UNL       c14        15    -0.02647       12.0110 ; qtot   -1.412
        16           c15bf         1   UNL       c15        16    -0.24004       12.0110 ; qtot   -1.652
        17           c16bf         1   UNL       c16        17    -0.02314       12.0110 ; qtot   -1.675
        18           c17bf         1   UNL       c17        18    -0.13840       12.0110 ; qtot   -1.813
        19           c18bf         1   UNL       c18        19    -0.07001       12.0110 ; qtot   -1.884
        20           c19bf         1   UNL       c19        20     0.35977       12.0110 ; qtot   -1.524
        21           n20bf         1   UNL       n20        21    -0.51470       14.0070 ; qtot   -2.038
        22           n21bf         1   UNL       n21        22     0.05231       14.0070 ; qtot   -1.986
        23           c22bf         1   UNL       c22        23     0.07854       12.0110 ; qtot   -1.908
        24           c23bf         1   UNL       c23        24     0.07819       12.0110 ; qtot   -1.829
        25           c24bf         1   UNL       c24        25     0.14399       12.0110 ; qtot   -1.685
        26           c25bf         1   UNL       c25        26    -0.11955       12.0110 ; qtot   -1.805
        27           c26bf         1   UNL       c26        27     0.10230       12.0110 ; qtot   -1.703
        28           o27bf         1   UNL       o27        28    -0.66581       15.9990 ; qtot   -2.368
        29           h28bf         1   UNL       h28        29     0.13568        1.0080 ; qtot   -2.233
        30           h29bf         1   UNL       h29        30     0.12854        1.0080 ; qtot   -2.104
        31           h30bf         1   UNL       h30        31     0.12679        1.0080 ; qtot   -1.977
        32           h31bf         1   UNL       h31        32     0.37621        1.0080 ; qtot   -1.601
        33           h32bf         1   UNL       h32        33     0.06213        1.0080 ; qtot   -1.539
        34           h33bf         1   UNL       h33        34     0.06213        1.0080 ; qtot   -1.477
        35           h34bf         1   UNL       h34        35     0.12685        1.0080 ; qtot   -1.350
        36           h35bf         1   UNL       h35        36     0.12371        1.0080 ; qtot   -1.226
        37           h36bf         1   UNL       h36        37     0.12013        1.0080 ; qtot   -1.106
        38           h37bf         1   UNL       h37        38     0.04782        1.0080 ; qtot   -1.058
        39           h38bf         1   UNL       h38        39     0.05599        1.0080 ; qtot   -1.002
        40           h39bf         1   UNL       h39        40     0.05599        1.0080 ; qtot   -0.946
        41           h40bf         1   UNL       h40        41     0.05599        1.0080 ; qtot   -0.891
        42           h41bf         1   UNL       h41        42     0.06560        1.0080 ; qtot   -0.825
        43           h42bf         1   UNL       h42        43     0.06560        1.0080 ; qtot   -0.759
        44           h43bf         1   UNL       h43        44     0.06110        1.0080 ; qtot   -0.698
        45           h44bf         1   UNL       h44        45     0.06386        1.0080 ; qtot   -0.634
        46           h45bf         1   UNL       h45        46     0.06386        1.0080 ; qtot   -0.570
        47           h46bf         1   UNL       h46        47     0.05752        1.0080 ; qtot   -0.513
        48           h47bf         1   UNL       h47        48     0.05752        1.0080 ; qtot   -0.455
        49           h48bf         1   UNL       h48        49     0.45544        1.0080 ; qtot   -0.000

[ bonds ]
;       ai        aj funct               r               k
         1         2     1        0.139249   313568.378418
         1         4     1        0.142174   260188.848193
         1        12     1        0.149961   181445.784326
         2         6     1        0.140371   306033.143555
         2        29     1        0.108531   321810.199561
         3         4     1        0.138670   344091.506250
         3         5     1        0.140627   300249.422412
         3        30     1        0.108560   321165.796143
         4        31     1        0.108510   322041.642383
         5         6     1        0.141872   251534.449512
         5         9     1        0.136842   290575.199268
         6         7     1        0.143777   232914.883398
         7         8     1        0.132648   371349.331592
         7        10     1        0.150274   213698.923633
         8         9     1        0.136401   241851.313916
         9        32     1        0.100927   434980.632227
        10        14     1        0.151997   190226.438477
        10        33     1        0.109489   294935.201025
        10        34     1        0.109489   294935.201025
        11        12     1        0.137036   284927.412158
        11        24     1        0.147051   178805.221680
        11        27     1        0.147651   171411.641162
        12        13     1        0.123626   579293.799609
        14        15     1        0.138985   315913.732080
        14        19     1        0.142105   257155.422656
        15        16     1        0.140860   300474.685254
        15        35     1        0.108645   318249.279492
        16        17     1        0.142106   247674.617578
        16        20     1        0.143093   251677.763770
        17        18     1        0.140684   297899.318848
        17        22     1        0.137036   276502.566553
        18        19     1        0.138749   339792.436035
        18        36     1        0.108555   320681.459326
        19        37     1        0.108656   317559.522168
        20        21     1        0.132641   379076.656592
        20        38     1        0.108271   330986.959814
        21        22     1        0.136411   226978.246045
        22        23     1        0.144916   228881.271436
        23        39     1        0.109267   303150.591260
        23        40     1        0.109267   303150.591260
        23        41     1        0.109267   303150.616797
        24        25     1        0.153568   170148.001147
        24        42     1        0.109393   298648.807471
        24        43     1        0.109393   298648.807471
        25        26     1        0.153457   169501.771826
        25        28     1        0.142830   207724.082764
        25        44     1        0.109562   297110.120020
        26        27     1        0.153417   177702.401611
        26        45     1        0.109322   307202.921924
        26        46     1        0.109322   307202.921924
        27        47     1        0.109348   299672.334814
        27        48     1        0.109348   299672.334814
        28        49     1        0.097041   469807.375879

[ angles ]
;       ai        aj        ak funct           theta             cth
         1         2         6     1      118.795616      675.409491
         1         2        29     1      120.012672      384.877788
         1         4         3     1      121.999634      629.007733
         1         4        31     1      118.575562      403.451215
         1        12        11     1      118.011780      439.852289
         1        12        13     1      120.735695      583.379367
         2         1         4     1      120.323097      660.769513
         2         1        12     1      119.582520      502.961860
         2         6         5     1      119.812096      755.459199
         2         6         7     1      135.462967      444.849997
         3         4        31     1      119.507812      404.808767
         3         5         6     1      121.824631      618.866947
         3         5         9     1      132.474304      482.697685
         4         1        12     1      120.061966      561.699382
         4         3         5     1      117.087341      769.723718
         4         3        30     1      121.224754      433.269397
         5         3        30     1      121.953995      432.932467
         5         6         7     1      104.815262      486.561769
         5         9         8     1      112.338623      425.015069
         5         9        32     1      128.734390      380.960906
         6         2        29     1      121.162453      398.919878
         6         5         9     1      105.799759      167.360000
         6         7         8     1      110.708961      353.176882
         6         7        10     1      127.826614      446.420338
         7         8         9     1      106.501038      544.543233
         7        10        14     1      113.257324      514.984604
         7        10        33     1      108.482384      513.884625
         7        10        34     1      108.482384      513.884625
         8         7        10     1      121.631851      449.366554
         8         9        32     1      118.789017      482.596877
        10        14        15     1      120.770676      447.780636
        10        14        19     1      119.654579      515.390771
        11        12        13     1      121.133133      636.436095
        11        24        25     1      103.579422      535.402704
        11        24        42     1      111.041550      448.079580
        11        24        43     1      111.041550      448.079580
        11        27        26     1      103.489357      595.225776
        11        27        47     1      110.552505      434.197926
        11        27        48     1      110.552505      434.197926
        12        11        24     1      122.033859      460.641635
        12        11        27     1      122.721825      454.611206
        14        10        33     1      109.738464      491.211662
        14        10        34     1      109.738464      491.211662
        14        15        16     1      119.124245      690.083433
        14        15        35     1      120.385292      379.597543
        14        19        18     1      122.351158      638.178428
        14        19        37     1      118.692238      398.132984
        15        14        19     1      119.857811      675.831300
        15        16        17     1      119.673256      745.940114
        15        16        20     1      136.228241      467.982532
        16        15        35     1      120.733803      405.996179
        16        17        18     1      121.680832      628.233703
        16        17        22     1      106.429855      167.360000
        16        20        21     1      111.200684      374.093019
        16        20        38     1      129.112213      351.438603
        17        16        20     1      104.156937      405.356921
        17        18        19     1      117.142593      781.145637
        17        18        36     1      121.966003      423.035656
        17        22        21     1      111.620140      448.620807
        17        22        23     1      127.753769      475.761359
        18        17        22     1      131.870255      459.750869
        18        19        37     1      119.160912      418.881183
        19        18        36     1      121.033043      426.416162
        20        21        22     1      106.528038      506.624009
        21        20        38     1      119.544449      397.727263
        21        22        23     1      120.299301      539.922485
        22        23        39     1      109.812828      469.144215
        22        23        40     1      109.812828      469.144215
        22        23        41     1      109.812828      469.144215
        24        11        27     1      111.505028      416.914059
        24        25        26     1      102.907059      503.377700
        24        25        28     1      111.099403      606.839288
        24        25        44     1      110.509232      440.028240
        25        24        42     1      111.348106      473.459859
        25        24        43     1      111.348106      473.459859
        25        26        27     1      103.463577      603.674027
        25        26        45     1      110.637794      492.324505
        25        26        46     1      110.637794      492.324505
        25        28        49     1      108.188431      591.669096
        26        25        28     1      112.261009      641.849899
        26        25        44     1      111.139671      440.437600
        26        27        47     1      112.257568      455.040900
        26        27        48     1      112.257568      455.040900
        27        26        45     1      111.568985      475.669426
        27        26        46     1      111.568985      475.669426
        28        25        44     1      108.442200      465.030602
        33        10        34     1      106.946144      364.204732
        39        23        40     1      109.288673      350.199638
        39        23        41     1      109.288673      350.199638
        40        23        41     1      109.288673      350.199638
        42        24        43     1      108.355370      346.396428
        45        26        46     1      108.426804      353.081501
        47        27        48     1      107.852066      342.609562

[ dihedrals ] ; propers for gromacs 4.5 or higher, use funct 9
;       ai        aj        ak        al funct           phase               k        pn
         1         2         6         5     9        0.000000       -0.128170         1
         1         2         6         5     9      180.000000       19.135886         2
         1         2         6         5     9        0.000000       -2.362157         3
         1         2         6         5     9      180.000000       -0.459193         4
         1         2         6         7     9        0.000000       -0.576623         1
         1         2         6         7     9      180.000000       13.347635         2
         1         2         6         7     9        0.000000       -0.919975         3
         1         2         6         7     9      180.000000       -0.206270         4
         1         4         3         5     9        0.000000       -0.219016         1
         1         4         3         5     9      180.000000       21.522917         2
         1         4         3         5     9        0.000000       -1.575408         3
         1         4         3         5     9      180.000000       -0.601458         4
         1         4         3        30     9        0.000000        0.090789         1
         1         4         3        30     9      180.000000       14.711935         2
         1         4         3        30     9        0.000000       -0.493178         3
         1         4         3        30     9      180.000000        0.135804         4
         1        12        11        24     9        0.000000        3.696334         1
         1        12        11        24     9      180.000000        9.364621         2
         1        12        11        24     9        0.000000        1.087435         3
         1        12        11        24     9      180.000000       -0.294125         4
         1        12        11        27     9        0.000000        3.657732         1
         1        12        11        27     9      180.000000        9.255093         2
         1        12        11        27     9        0.000000        1.123123         3
         1        12        11        27     9      180.000000       -0.361660         4
         2         1         4         3     9        0.000000        0.124612         1
         2         1         4         3     9      180.000000       17.025443         2
         2         1         4         3     9        0.000000       -1.114627         3
         2         1         4         3     9      180.000000       -0.304047         4
         2         1         4        31     9        0.000000        0.151478         1
         2         1         4        31     9      180.000000       12.571939         2
         2         1         4        31     9        0.000000       -0.564456         3
         2         1         4        31     9      180.000000        0.110795         4
         2         1        12        11     9        0.000000       -0.459876         1
         2         1        12        11     9      180.000000        4.623171         2
         2         1        12        11     9        0.000000       -0.254913         3
         2         1        12        11     9      180.000000        0.307957         4
         2         1        12        13     9        0.000000        0.846739         1
         2         1        12        13     9      180.000000        3.145235         2
         2         1        12        13     9        0.000000        0.088536         3
         2         1        12        13     9      180.000000        0.138800         4
         2         6         5         3     9        0.000000       -0.181542         1
         2         6         5         3     9      180.000000       10.822353         2
         2         6         5         3     9        0.000000       -1.570633         3
         2         6         5         3     9      180.000000       -0.089876         4
         2         6         5         9     9        0.000000        0.232442         1
         2         6         5         9     9      180.000000        9.466105         2
         2         6         5         9     9        0.000000       -1.977555         3
         2         6         5         9     9      180.000000        0.140197         4
         2         6         7         8     9        0.000000       -0.208309         1
         2         6         7         8     9      180.000000        4.142962         2
         2         6         7         8     9        0.000000       -0.828849         3
         2         6         7         8     9      180.000000        0.061272         4
         2         6         7        10     9        0.000000       -0.323251         1
         2         6         7        10     9      180.000000        4.383250         2
         2         6         7        10     9        0.000000        0.261969         3
         2         6         7        10     9      180.000000        0.070300         4
         3         4         1        12     9        0.000000        0.062475         1
         3         4         1        12     9      180.000000       13.273668         2
         3         4         1        12     9        0.000000       -0.164285         3
         3         4         1        12     9      180.000000       -0.266105         4
         3         5         6         7     9        0.000000        0.014098         1
         3         5         6         7     9      180.000000       11.367148         2
         3         5         6         7     9        0.000000       -2.380690         3
         3         5         6         7     9      180.000000       -0.033657         4
         3         5         9         8     9        0.000000        1.386494         1
         3         5         9         8     9      180.000000        5.476764         2
         3         5         9         8     9        0.000000        0.475234         3
         3         5         9         8     9      180.000000       -0.028473         4
         3         5         9        32     9        0.000000       -0.152200         1
         3         5         9        32     9      180.000000        1.455402         2
         3         5         9        32     9        0.000000        0.111501         3
         3         5         9        32     9      180.000000       -0.112517         4
         4         1         2         6     9        0.000000       -0.058410         1
         4         1         2         6     9      180.000000       20.815637         2
         4         1         2         6     9        0.000000       -1.362546         3
         4         1         2         6     9      180.000000       -0.635939         4
         4         1         2        29     9        0.000000        0.120472         1
         4         1         2        29     9      180.000000       14.360174         2
         4         1         2        29     9        0.000000       -0.437615         3
         4         1         2        29     9      180.000000       -0.032110         4
         4         1        12        11     9        0.000000       -0.103858         1
         4         1        12        11     9      180.000000        4.920334         2
         4         1        12        11     9        0.000000       -0.175544         3
         4         1        12        11     9      180.000000        0.325559         4
         4         1        12        13     9        0.000000       -0.098139         1
         4         1        12        13     9      180.000000        3.285291         2
         4         1        12        13     9        0.000000        0.001019         3
         4         1        12        13     9      180.000000        0.149396         4
         4         3         5         6     9        0.000000       -0.195630         1
         4         3         5         6     9      180.000000       16.798157         2
         4         3         5         6     9        0.000000       -1.830202         3
         4         3         5         6     9      180.000000       -0.306091         4
         4         3         5         9     9        0.000000        0.196608         1
         4         3         5         9     9      180.000000       13.162746         2
         4         3         5         9     9        0.000000       -0.074610         3
         4         3         5         9     9      180.000000       -0.089704         4
         5         3         4        31     9        0.000000        0.122788         1
         5         3         4        31     9      180.000000       16.914239         2
         5         3         4        31     9        0.000000       -0.551290         3
         5         3         4        31     9      180.000000       -0.062160         4
         5         6         2        29     9        0.000000        0.316622         1
         5         6         2        29     9      180.000000       14.122379         2
         5         6         2        29     9        0.000000       -0.283270         3
         5         6         2        29     9      180.000000       -0.172459         4
         5         6         7         8     9        0.000000       -0.163800         1
         5         6         7         8     9      180.000000       30.962819         2
         5         6         7         8     9        0.000000       -9.488882         3
         5         6         7         8     9      180.000000       -0.198413         4
         5         6         7        10     9        0.000000        0.897208         1
         5         6         7        10     9      180.000000       14.529405         2
         5         6         7        10     9        0.000000        0.075184         3
         5         6         7        10     9      180.000000       -0.584790         4
         5         9         8         7     9        0.000000       -0.212417         1
         5         9         8         7     9      180.000000       17.202000         2
         5         9         8         7     9        0.000000       -2.172826         3
         5         9         8         7     9      180.000000       -1.162576         4
         6         2         1        12     9        0.000000       -0.052874         1
         6         2         1        12     9      180.000000       16.752324         2
         6         2         1        12     9        0.000000       -0.106510         3
         6         2         1        12     9      180.000000       -0.625775         4
         6         5         3        30     9        0.000000        0.112331         1
         6         5         3        30     9      180.000000       11.310826         2
         6         5         3        30     9        0.000000       -0.313186         3
         6         5         3        30     9      180.000000        0.009255         4
         6         5         9         8     9        0.000000        0.391452         1
         6         5         9         8     9      180.000000       24.524244         2
         6         5         9         8     9        0.000000       -5.051481         3
         6         5         9         8     9      180.000000       -1.042479         4
         6         5         9        32     9        0.000000        0.325622         1
         6         5         9        32     9      180.000000        1.565869         2
         6         5         9        32     9        0.000000        0.502844         3
         6         5         9        32     9      180.000000        0.025233         4
         6         7         8         9     9        0.000000       -0.262369         1
         6         7         8         9     9      180.000000       41.389857         2
         6         7         8         9     9        0.000000       -4.762094         3
         6         7         8         9     9      180.000000       -0.128372         4
         6         7        10        14     9        0.000000        0.302162         1
         6         7        10        14     9      180.000000       -0.359828         2
         6         7        10        14     9        0.000000        0.616007         3
         6         7        10        14     9      180.000000        0.013635         4
         6         7        10        33     9        0.000000       -0.068650         1
         6         7        10        33     9      180.000000        0.149330         2
         6         7        10        33     9        0.000000        0.521450         3
         6         7        10        33     9      180.000000        0.016095         4
         6         7        10        34     9        0.000000       -0.068650         1
         6         7        10        34     9      180.000000        0.149330         2
         6         7        10        34     9        0.000000        0.521450         3
         6         7        10        34     9      180.000000        0.016095         4
         7         6         2        29     9        0.000000       -0.177319         1
         7         6         2        29     9      180.000000        9.484922         2
         7         6         2        29     9        0.000000        0.063836         3
         7         6         2        29     9      180.000000        0.060924         4
         7         6         5         9     9        0.000000        0.187503         1
         7         6         5         9     9      180.000000       17.416660         2
         7         6         5         9     9        0.000000       -6.348934         3
         7         6         5         9     9      180.000000       -0.225478         4
         7         8         9        32     9        0.000000        2.361158         1
         7         8         9        32     9      180.000000        2.980257         2
         7         8         9        32     9        0.000000        0.434237         3
         7         8         9        32     9      180.000000        0.025133         4
         7        10        14        15     9        0.000000       -0.041230         1
         7        10        14        15     9      180.000000        0.067239         2
         7        10        14        15     9        0.000000       -0.153176         3
         7        10        14        15     9      180.000000        0.064302         4
         7        10        14        19     9        0.000000       -0.099781         1
         7        10        14        19     9      180.000000        0.037192         2
         7        10        14        19     9        0.000000        0.227242         3
         7        10        14        19     9      180.000000        0.016814         4
         8         7        10        14     9        0.000000       -1.261962         1
         8         7        10        14     9      180.000000       -0.168968         2
         8         7        10        14     9        0.000000        0.041303         3
         8         7        10        14     9      180.000000        0.010698         4
         8         7        10        33     9        0.000000        0.223715         1
         8         7        10        33     9      180.000000        0.093023         2
         8         7        10        33     9        0.000000       -0.189378         3
         8         7        10        33     9      180.000000        0.040775         4
         8         7        10        34     9        0.000000        0.223715         1
         8         7        10        34     9      180.000000        0.093023         2
         8         7        10        34     9        0.000000       -0.189378         3
         8         7        10        34     9      180.000000        0.040775         4
         9         5         3        30     9        0.000000       -0.100464         1
         9         5         3        30     9      180.000000        9.598580         2
         9         5         3        30     9        0.000000       -0.055553         3
         9         5         3        30     9      180.000000        0.045175         4
         9         8         7        10     9        0.000000        0.476446         1
         9         8         7        10     9      180.000000       32.353064         2
         9         8         7        10     9        0.000000        0.815797         3
         9         8         7        10     9      180.000000       -0.851938         4
        10        14        15        16     9        0.000000        0.009257         1
        10        14        15        16     9      180.000000       18.674644         2
        10        14        15        16     9        0.000000       -0.120348         3
        10        14        15        16     9      180.000000       -0.670552         4
        10        14        15        35     9        0.000000       -0.055554         1
        10        14        15        35     9      180.000000       13.186443         2
        10        14        15        35     9        0.000000       -0.327489         3
        10        14        15        35     9      180.000000        0.127685         4
        10        14        19        18     9        0.000000        0.041301         1
        10        14        19        18     9      180.000000       14.360254         2
        10        14        19        18     9        0.000000       -0.129779         3
        10        14        19        18     9      180.000000       -0.172532         4
        10        14        19        37     9        0.000000       -0.054025         1
        10        14        19        37     9      180.000000       12.258337         2
        10        14        19        37     9        0.000000       -0.375148         3
        10        14        19        37     9      180.000000        0.148638         4
        11        24        25        26     9        0.000000       -0.181250         1
        11        24        25        26     9      180.000000        2.448417         2
        11        24        25        26     9        0.000000       -0.023788         3
        11        24        25        26     9      180.000000       -1.706087         4
        11        24        25        28     9        0.000000        0.811146         1
        11        24        25        28     9      180.000000       -1.883889         2
        11        24        25        28     9        0.000000        0.434819         3
        11        24        25        28     9      180.000000        0.281901         4
        11        24        25        44     9        0.000000        0.064668         1
        11        24        25        44     9      180.000000        0.014928         2
        11        24        25        44     9        0.000000        0.329828         3
        11        24        25        44     9      180.000000       -0.024174         4
        11        27        26        25     9        0.000000       -0.290191         1
        11        27        26        25     9      180.000000        0.476991         2
        11        27        26        25     9        0.000000       -0.043701         3
        11        27        26        25     9      180.000000       -0.681053         4
        11        27        26        45     9        0.000000       -0.012285         1
        11        27        26        45     9      180.000000        0.010276         2
        11        27        26        45     9        0.000000        0.068008         3
        11        27        26        45     9      180.000000        0.089825         4
        11        27        26        46     9        0.000000       -0.012285         1
        11        27        26        46     9      180.000000        0.010276         2
        11        27        26        46     9        0.000000        0.068008         3
        11        27        26        46     9      180.000000        0.089825         4
        12         1         2        29     9        0.000000       -0.014720         1
        12         1         2        29     9      180.000000       12.637671         2
        12         1         2        29     9        0.000000       -0.315150         3
        12         1         2        29     9      180.000000        0.032414         4
        12         1         4        31     9        0.000000       -0.058282         1
        12         1         4        31     9      180.000000       11.790557         2
        12         1         4        31     9        0.000000       -0.366140         3
        12         1         4        31     9      180.000000        0.021033         4
        12        11        24        25     9        0.000000        0.734489         1
        12        11        24        25     9      180.000000       -0.313233         2
        12        11        24        25     9        0.000000       -0.016524         3
        12        11        24        25     9      180.000000       -0.147111         4
        12        11        24        42     9        0.000000       -0.052344         1
        12        11        24        42     9      180.000000        0.041658         2
        12        11        24        42     9        0.000000       -0.004465         3
        12        11        24        42     9      180.000000       -0.014018         4
        12        11        24        43     9        0.000000       -0.052344         1
        12        11        24        43     9      180.000000        0.041658         2
        12        11        24        43     9        0.000000       -0.004465         3
        12        11        24        43     9      180.000000       -0.014018         4
        12        11        27        26     9        0.000000       -0.468629         1
        12        11        27        26     9      180.000000       -0.085924         2
        12        11        27        26     9        0.000000        0.142428         3
        12        11        27        26     9      180.000000       -0.092368         4
        12        11        27        47     9        0.000000        0.027647         1
        12        11        27        47     9      180.000000        0.085317         2
        12        11        27        47     9        0.000000        0.165414         3
        12        11        27        47     9      180.000000        0.007534         4
        12        11        27        48     9        0.000000        0.027647         1
        12        11        27        48     9      180.000000        0.085317         2
        12        11        27        48     9        0.000000        0.165414         3
        12        11        27        48     9      180.000000        0.007534         4
        13        12        11        24     9        0.000000       -1.542377         1
        13        12        11        24     9      180.000000       13.737930         2
        13        12        11        24     9        0.000000       -0.932654         3
        13        12        11        24     9      180.000000       -0.173118         4
        13        12        11        27     9        0.000000       -1.606174         1
        13        12        11        27     9      180.000000       13.649303         2
        13        12        11        27     9        0.000000       -0.953418         3
        13        12        11        27     9      180.000000       -0.136731         4
        14        15        16        17     9        0.000000       -0.078803         1
        14        15        16        17     9      180.000000       18.898255         2
        14        15        16        17     9        0.000000       -1.972406         3
        14        15        16        17     9      180.000000       -0.480351         4
        14        15        16        20     9        0.000000       -0.170164         1
        14        15        16        20     9      180.000000       11.866871         2
        14        15        16        20     9        0.000000       -0.652506         3
        14        15        16        20     9      180.000000       -0.093021         4
        14        19        18        17     9        0.000000        0.033895         1
        14        19        18        17     9      180.000000       21.816384         2
        14        19        18        17     9        0.000000       -1.543464         3
        14        19        18        17     9      180.000000       -0.527859         4
        14        19        18        36     9        0.000000        0.042383         1
        14        19        18        36     9      180.000000       15.365326         2
        14        19        18        36     9        0.000000       -0.513372         3
        14        19        18        36     9      180.000000        0.030415         4
        15        14        10        33     9        0.000000        0.000215         1
        15        14        10        33     9      180.000000        0.010257         2
        15        14        10        33     9        0.000000       -0.173531         3
        15        14        10        33     9      180.000000       -0.005921         4
        15        14        10        34     9        0.000000        0.000215         1
        15        14        10        34     9      180.000000        0.010257         2
        15        14        10        34     9        0.000000       -0.173531         3
        15        14        10        34     9      180.000000       -0.005921         4
        15        14        19        18     9        0.000000       -0.058867         1
        15        14        19        18     9      180.000000       17.386450         2
        15        14        19        18     9        0.000000       -1.187962         3
        15        14        19        18     9      180.000000       -0.362341         4
        15        14        19        37     9        0.000000        0.110685         1
        15        14        19        37     9      180.000000       13.351950         2
        15        14        19        37     9        0.000000       -0.633175         3
        15        14        19        37     9      180.000000        0.063515         4
        15        16        17        18     9        0.000000       -0.018008         1
        15        16        17        18     9      180.000000       10.863879         2
        15        16        17        18     9        0.000000       -1.423270         3
        15        16        17        18     9      180.000000       -0.061566         4
        15        16        17        22     9        0.000000        0.334963         1
        15        16        17        22     9      180.000000       10.266971         2
        15        16        17        22     9        0.000000       -2.541748         3
        15        16        17        22     9      180.000000        0.093714         4
        15        16        20        21     9        0.000000        0.245816         1
        15        16        20        21     9      180.000000        4.612387         2
        15        16        20        21     9        0.000000       -0.489836         3
        15        16        20        21     9      180.000000        0.041425         4
        15        16        20        38     9        0.000000       -0.462277         1
        15        16        20        38     9      180.000000        4.704010         2
        15        16        20        38     9        0.000000        0.076634         3
        15        16        20        38     9      180.000000        0.101219         4
        16        15        14        19     9        0.000000       -0.065722         1
        16        15        14        19     9      180.000000       21.557267         2
        16        15        14        19     9        0.000000       -1.402324         3
        16        15        14        19     9      180.000000       -0.641113         4
        16        17        18        19     9        0.000000       -0.188055         1
        16        17        18        19     9      180.000000       17.214779         2
        16        17        18        19     9        0.000000       -1.939364         3
        16        17        18        19     9      180.000000       -0.295283         4
        16        17        18        36     9        0.000000        0.112343         1
        16        17        18        36     9      180.000000       11.517716         2
        16        17        18        36     9        0.000000       -0.192778         3
        16        17        18        36     9      180.000000       -0.040450         4
        16        17        22        21     9        0.000000       -0.084196         1
        16        17        22        21     9      180.000000       25.294062         2
        16        17        22        21     9        0.000000       -6.105160         3
        16        17        22        21     9      180.000000       -0.410272         4
        16        17        22        23     9        0.000000        0.278065         1
        16        17        22        23     9      180.000000        3.350612         2
        16        17        22        23     9        0.000000        0.761433         3
        16        17        22        23     9      180.000000        0.095819         4
        16        20        21        22     9        0.000000       -0.280634         1
        16        20        21        22     9      180.000000       41.455998         2
        16        20        21        22     9        0.000000       -5.327205         3
        16        20        21        22     9      180.000000       -0.203315         4
        17        16        15        35     9        0.000000        0.423329         1
        17        16        15        35     9      180.000000       13.268964         2
        17        16        15        35     9        0.000000       -0.163073         3
        17        16        15        35     9      180.000000       -0.109450         4
        17        16        20        21     9        0.000000       -0.103930         1
        17        16        20        21     9      180.000000       30.729596         2
        17        16        20        21     9        0.000000       -9.652096         3
        17        16        20        21     9      180.000000       -0.336765         4
        17        16        20        38     9        0.000000        0.934169         1
        17        16        20        38     9      180.000000       12.774197         2
        17        16        20        38     9        0.000000        0.452474         3
        17        16        20        38     9      180.000000       -0.324343         4
        17        18        19        37     9        0.000000        0.075034         1
        17        18        19        37     9      180.000000       17.271072         2
        17        18        19        37     9        0.000000       -0.368368         3
        17        18        19        37     9      180.000000       -0.132390         4
        17        22        21        20     9        0.000000       -0.561708         1
        17        22        21        20     9      180.000000       22.826383         2
        17        22        21        20     9        0.000000       -3.369753         3
        17        22        21        20     9      180.000000       -0.422870         4
        17        22        23        39     9        0.000000        0.014913         1
        17        22        23        39     9      180.000000        0.019881         2
        17        22        23        39     9        0.000000        0.542826         3
        17        22        23        39     9      180.000000       -0.005520         4
        17        22        23        40     9        0.000000        0.014913         1
        17        22        23        40     9      180.000000        0.019881         2
        17        22        23        40     9        0.000000        0.542826         3
        17        22        23        40     9      180.000000       -0.005520         4
        17        22        23        41     9        0.000000        0.014913         1
        17        22        23        41     9      180.000000        0.019881         2
        17        22        23        41     9        0.000000        0.542826         3
        17        22        23        41     9      180.000000       -0.005520         4
        18        17        16        20     9        0.000000        0.000872         1
        18        17        16        20     9      180.000000        9.880126         2
        18        17        16        20     9        0.000000       -2.020836         3
        18        17        16        20     9      180.000000        0.107998         4
        18        17        22        21     9        0.000000        1.125086         1
        18        17        22        21     9      180.000000        4.562914         2
        18        17        22        21     9        0.000000        0.638073         3
        18        17        22        21     9      180.000000       -0.010920         4
        18        17        22        23     9        0.000000       -0.152729         1
        18        17        22        23     9      180.000000        2.288042         2
        18        17        22        23     9        0.000000        0.087417         3
        18        17        22        23     9      180.000000       -0.011101         4
        19        14        10        33     9        0.000000        0.002170         1
        19        14        10        33     9      180.000000       -0.010324         2
        19        14        10        33     9        0.000000        0.129496         3
        19        14        10        33     9      180.000000        0.006624         4
        19        14        10        34     9        0.000000        0.002170         1
        19        14        10        34     9      180.000000       -0.010324         2
        19        14        10        34     9        0.000000        0.129496         3
        19        14        10        34     9      180.000000        0.006624         4
        19        14        15        35     9        0.000000        0.121884         1
        19        14        15        35     9      180.000000       15.132209         2
        19        14        15        35     9        0.000000       -0.407556         3
        19        14        15        35     9      180.000000       -0.044660         4
        19        18        17        22     9        0.000000        0.338603         1
        19        18        17        22     9      180.000000       13.036899         2
        19        18        17        22     9        0.000000       -0.207218         3
        19        18        17        22     9      180.000000       -0.199472         4
        20        16        15        35     9        0.000000       -0.002975         1
        20        16        15        35     9      180.000000        9.255177         2
        20        16        15        35     9        0.000000        0.038231         3
        20        16        15        35     9      180.000000        0.064808         4
        20        16        17        22     9        0.000000        0.227491         1
        20        16        17        22     9      180.000000       17.510110         2
        20        16        17        22     9        0.000000       -6.848148         3
        20        16        17        22     9      180.000000       -0.205011         4
        20        21        22        23     9        0.000000        1.087049         1
        20        21        22        23     9      180.000000        7.030249         2
        20        21        22        23     9        0.000000        0.652683         3
        20        21        22        23     9      180.000000        0.046221         4
        21        22        23        39     9        0.000000       -0.006792         1
        21        22        23        39     9      180.000000       -0.008435         2
        21        22        23        39     9        0.000000        0.359852         3
        21        22        23        39     9      180.000000        0.009143         4
        21        22        23        40     9        0.000000       -0.006792         1
        21        22        23        40     9      180.000000       -0.008435         2
        21        22        23        40     9        0.000000        0.359852         3
        21        22        23        40     9      180.000000        0.009143         4
        21        22        23        41     9        0.000000       -0.006792         1
        21        22        23        41     9      180.000000       -0.008435         2
        21        22        23        41     9        0.000000        0.359852         3
        21        22        23        41     9      180.000000        0.009143         4
        22        17        18        36     9        0.000000       -0.167821         1
        22        17        18        36     9      180.000000        9.429548         2
        22        17        18        36     9        0.000000       -0.040251         3
        22        17        18        36     9      180.000000        0.108171         4
        22        21        20        38     9        0.000000        1.583699         1
        22        21        20        38     9      180.000000       27.754742         2
        22        21        20        38     9        0.000000        0.409579         3
        22        21        20        38     9      180.000000       -0.110624         4
        24        11        27        26     9        0.000000        0.474653         1
        24        11        27        26     9      180.000000       -0.438552         2
        24        11        27        26     9        0.000000        0.620871         3
        24        11        27        26     9      180.000000       -0.134553         4
        24        11        27        47     9        0.000000       -0.025492         1
        24        11        27        47     9      180.000000        0.052417         2
        24        11        27        47     9        0.000000        0.351380         3
        24        11        27        47     9      180.000000        0.033913         4
        24        11        27        48     9        0.000000       -0.025492         1
        24        11        27        48     9      180.000000        0.052417         2
        24        11        27        48     9        0.000000        0.351380         3
        24        11        27        48     9      180.000000        0.033913         4
        24        25        26        27     9        0.000000       -0.931484         1
        24        25        26        27     9      180.000000        3.285528         2
        24        25        26        27     9        0.000000       -0.252257         3
        24        25        26        27     9      180.000000       -0.877163         4
        24        25        26        45     9        0.000000        0.004038         1
        24        25        26        45     9      180.000000       -0.021107         2
        24        25        26        45     9        0.000000       -0.001258         3
        24        25        26        45     9      180.000000        0.129324         4
        24        25        26        46     9        0.000000        0.004038         1
        24        25        26        46     9      180.000000       -0.021107         2
        24        25        26        46     9        0.000000       -0.001258         3
        24        25        26        46     9      180.000000        0.129324         4
        24        25        28        49     9        0.000000        2.934115         1
        24        25        28        49     9      180.000000       -2.107309         2
        24        25        28        49     9        0.000000        0.850826         3
        24        25        28        49     9      180.000000        0.224980         4
        25        24        11        27     9        0.000000       -0.161335         1
        25        24        11        27     9      180.000000        1.868308         2
        25        24        11        27     9        0.000000       -0.132335         3
        25        24        11        27     9      180.000000       -0.405360         4
        25        26        27        47     9        0.000000        0.034317         1
        25        26        27        47     9      180.000000        0.035145         2
        25        26        27        47     9        0.000000       -0.001874         3
        25        26        27        47     9      180.000000        0.082590         4
        25        26        27        48     9        0.000000        0.034317         1
        25        26        27        48     9      180.000000        0.035145         2
        25        26        27        48     9        0.000000       -0.001874         3
        25        26        27        48     9      180.000000        0.082590         4
        26        25        24        42     9        0.000000        0.014719         1
        26        25        24        42     9      180.000000       -0.007680         2
        26        25        24        42     9        0.000000        0.088919         3
        26        25        24        42     9      180.000000        0.128224         4
        26        25        24        43     9        0.000000        0.014719         1
        26        25        24        43     9      180.000000       -0.007680         2
        26        25        24        43     9        0.000000        0.088919         3
        26        25        24        43     9      180.000000        0.128224         4
        26        25        28        49     9        0.000000        2.989805         1
        26        25        28        49     9      180.000000       -1.381773         2
        26        25        28        49     9        0.000000        0.746734         3
        26        25        28        49     9      180.000000        0.178407         4
        27        11        24        42     9        0.000000       -0.047797         1
        27        11        24        42     9      180.000000        0.049332         2
        27        11        24        42     9        0.000000        0.053835         3
        27        11        24        42     9      180.000000        0.083692         4
        27        11        24        43     9        0.000000       -0.047797         1
        27        11        24        43     9      180.000000        0.049332         2
        27        11        24        43     9        0.000000        0.053835         3
        27        11        24        43     9      180.000000        0.083692         4
        27        26        25        28     9        0.000000       -0.996622         1
        27        26        25        28     9      180.000000       -0.189700         2
        27        26        25        28     9        0.000000        0.266558         3
        27        26        25        28     9      180.000000        0.155299         4
        27        26        25        44     9        0.000000        0.002645         1
        27        26        25        44     9      180.000000        0.055621         2
        27        26        25        44     9        0.000000        0.143629         3
        27        26        25        44     9      180.000000        0.052640         4
        28        25        24        42     9        0.000000        0.100032         1
        28        25        24        42     9      180.000000        0.137584         2
        28        25        24        42     9        0.000000        0.543435         3
        28        25        24        42     9      180.000000       -0.078347         4
        28        25        24        43     9        0.000000        0.100032         1
        28        25        24        43     9      180.000000        0.137584         2
        28        25        24        43     9        0.000000        0.543435         3
        28        25        24        43     9      180.000000       -0.078347         4
        28        25        26        45     9        0.000000        0.152324         1
        28        25        26        45     9      180.000000        0.034037         2
        28        25        26        45     9        0.000000        0.490083         3
        28        25        26        45     9      180.000000       -0.080955         4
        28        25        26        46     9        0.000000        0.152324         1
        28        25        26        46     9      180.000000        0.034037         2
        28        25        26        46     9        0.000000        0.490083         3
        28        25        26        46     9      180.000000       -0.080955         4
        30         3         4        31     9        0.000000       -0.088591         1
        30         3         4        31     9      180.000000       12.600571         2
        30         3         4        31     9        0.000000       -0.684381         3
        30         3         4        31     9      180.000000        0.289087         4
        36        18        19        37     9        0.000000       -0.092820         1
        36        18        19        37     9      180.000000       12.773764         2
        36        18        19        37     9        0.000000       -0.678611         3
        36        18        19        37     9      180.000000        0.307461         4
        42        24        25        44     9        0.000000       -0.060082         1
        42        24        25        44     9      180.000000       -0.001548         2
        42        24        25        44     9        0.000000        0.391228         3
        42        24        25        44     9      180.000000        0.044028         4
        43        24        25        44     9        0.000000       -0.060082         1
        43        24        25        44     9      180.000000       -0.001548         2
        43        24        25        44     9        0.000000        0.391228         3
        43        24        25        44     9      180.000000        0.044028         4
        44        25        26        45     9        0.000000       -0.000376         1
        44        25        26        45     9      180.000000        0.001484         2
        44        25        26        45     9        0.000000        0.332390         3
        44        25        26        45     9      180.000000       -0.036172         4
        44        25        26        46     9        0.000000       -0.000376         1
        44        25        26        46     9      180.000000        0.001484         2
        44        25        26        46     9        0.000000        0.332390         3
        44        25        26        46     9      180.000000       -0.036172         4
        44        25        28        49     9        0.000000        1.341127         1
        44        25        28        49     9      180.000000       -2.030948         2
        44        25        28        49     9        0.000000        0.819594         3
        44        25        28        49     9      180.000000        0.277402         4
        45        26        27        47     9        0.000000       -0.023669         1
        45        26        27        47     9      180.000000        0.008605         2
        45        26        27        47     9        0.000000        0.235197         3
        45        26        27        47     9      180.000000       -0.017680         4
        45        26        27        48     9        0.000000       -0.023669         1
        45        26        27        48     9      180.000000        0.008605         2
        45        26        27        48     9        0.000000        0.235197         3
        45        26        27        48     9      180.000000       -0.017680         4
        46        26        27        47     9        0.000000       -0.023669         1
        46        26        27        47     9      180.000000        0.008605         2
        46        26        27        47     9        0.000000        0.235197         3
        46        26        27        47     9      180.000000       -0.017680         4
        46        26        27        48     9        0.000000       -0.023669         1
        46        26        27        48     9      180.000000        0.008605         2
        46        26        27        48     9        0.000000        0.235197         3
        46        26        27        48     9      180.000000       -0.017680         4

[ dihedrals ] ; impropers
;       ai        aj        ak        al funct           phase               k        pn
         2         1         6        29     4      180.000000        1.905065         2
         2         6        29         1     4      180.000000        1.905065         2
         2        29         1         6     4      180.000000        1.905065         2
         3         4         5        30     4      180.000000        0.109547         2
         3         5        30         4     4      180.000000        0.109547         2
         3        30         4         5     4      180.000000        0.109547         2
        12         1        11        13     4      180.000000       27.893333         2
        12        11        13         1     4      180.000000       27.893333         2
        12        13         1        11     4      180.000000       27.893333         2
        15        14        16        35     4      180.000000        4.601587         2
        15        16        35        14     4      180.000000        4.601587         2
        15        35        14        16     4      180.000000        4.601587         2
        18        17        19        36     4      180.000000        2.152422         2
        18        19        36        17     4      180.000000        2.152422         2
        18        36        17        19     4      180.000000        2.152422         2
        19        14        18        37     4      180.000000        1.055853         2
        19        18        37        14     4      180.000000        1.055853         2
        19        37        14        18     4      180.000000        1.055853         2

[ pairs ]
;       ai        aj funct
         1         5     1
         1         7     1
         1        24     1
         1        27     1
         1        30     1
         2         3     1
         2         8     1
         2         9     1
         2        10     1
         2        11     1
         2        13     1
         2        31     1
         3         7     1
         3         8     1
         3        12     1
         3        32     1
         4         6     1
         4         9     1
         4        11     1
         4        13     1
         4        29     1
         5        10     1
         5        29     1
         5        31     1
         6        12     1
         6        14     1
         6        30     1
         6        32     1
         6        33     1
         6        34     1
         7        15     1
         7        19     1
         7        29     1
         7        32     1
         8        14     1
         8        33     1
         8        34     1
         9        10     1
         9        30     1
        10        16     1
        10        18     1
        10        35     1
        10        37     1
        11        28     1
        11        44     1
        11        45     1
        11        46     1
        12        25     1
        12        26     1
        12        29     1
        12        31     1
        12        42     1
        12        43     1
        12        47     1
        12        48     1
        13        24     1
        13        27     1
        14        17     1
        14        20     1
        14        36     1
        15        18     1
        15        21     1
        15        22     1
        15        33     1
        15        34     1
        15        37     1
        15        38     1
        16        19     1
        16        23     1
        16        36     1
        17        35     1
        17        37     1
        17        38     1
        17        39     1
        17        40     1
        17        41     1
        18        20     1
        18        21     1
        18        23     1
        19        22     1
        19        33     1
        19        34     1
        19        35     1
        20        23     1
        20        35     1
        21        39     1
        21        40     1
        21        41     1
        22        36     1
        22        38     1
        24        45     1
        24        46     1
        24        47     1
        24        48     1
        24        49     1
        25        47     1
        25        48     1
        26        42     1
        26        43     1
        26        49     1
        27        28     1
        27        42     1
        27        43     1
        27        44     1
        28        42     1
        28        43     1
        28        45     1
        28        46     1
        30        31     1
        36        37     1
        42        44     1
        43        44     1
        44        45     1
        44        46     1
        44        49     1
        45        47     1
        45        48     1
        46        47     1
        46        48     1
