; ITP file created by ByteFF-ML, 2026-02-21 07:35:17.549590

[ atomtypes ]
;name           bonded.type        at.num        mass        charge   ptype           sigma         epsilon
 c0bf                                   6      0.0000       0.00000       A     3.31447e-01     4.11839e-01
 c1bf                                   6      0.0000       0.00000       A     3.31437e-01     4.13463e-01
 c2bf                                   6      0.0000       0.00000       A     3.31517e-01     4.12539e-01
 c3bf                                   6      0.0000       0.00000       A     3.31568e-01     4.12929e-01
 c4bf                                   6      0.0000       0.00000       A     3.31529e-01     4.12453e-01
 c5bf                                   6      0.0000       0.00000       A     3.31504e-01     4.11661e-01
 c6bf                                   6      0.0000       0.00000       A     3.31449e-01     4.11690e-01
 n7bf                                   7      0.0000       0.00000       A     3.38151e-01     3.91342e-01
 n8bf                                   7      0.0000       0.00000       A     3.20440e-01     8.58154e-01
 c9bf                                   6      0.0000       0.00000       A     3.39884e-01     4.51119e-01
 n10bf                                  7      0.0000       0.00000       A     3.18277e-01     6.81735e-01
 c11bf                                  6      0.0000       0.00000       A     3.31558e-01     4.11259e-01
 o12bf                                  8      0.0000       0.00000       A     3.04680e-01     6.14503e-01
 c13bf                                  6      0.0000       0.00000       A     3.31494e-01     4.13368e-01
 c14bf                                  6      0.0000       0.00000       A     3.31479e-01     4.12962e-01
 c15bf                                  6      0.0000       0.00000       A     3.31328e-01     4.11816e-01
 c16bf                                  6      0.0000       0.00000       A     3.31571e-01     4.13358e-01
 c17bf                                  6      0.0000       0.00000       A     3.31458e-01     4.13224e-01
 c18bf                                  6      0.0000       0.00000       A     3.31557e-01     4.13813e-01
 c19bf                                  6      0.0000       0.00000       A     3.31430e-01     4.12873e-01
 n20bf                                  7      0.0000       0.00000       A     3.38413e-01     3.94987e-01
 n21bf                                  7      0.0000       0.00000       A     3.20564e-01     8.53149e-01
 c22bf                                  6      0.0000       0.00000       A     3.39827e-01     4.50277e-01
 c23bf                                  6      0.0000       0.00000       A     3.39857e-01     4.52712e-01
 c24bf                                  6      0.0000       0.00000       A     3.39563e-01     4.53105e-01
 c25bf                                  6      0.0000       0.00000       A     3.39684e-01     4.50095e-01
 c26bf                                  6      0.0000       0.00000       A     3.39634e-01     4.50704e-01
 f27bf                                  9      0.0000       0.00000       A     3.03431e-01     3.48931e-01
 f28bf                                  9      0.0000       0.00000       A     3.03431e-01     3.48931e-01
 h29bf                                  1      0.0000       0.00000       A     2.62420e-01     6.68753e-02
 h30bf                                  1      0.0000       0.00000       A     2.62471e-01     6.70892e-02
 h31bf                                  1      0.0000       0.00000       A     2.62611e-01     6.73573e-02
 h32bf                                  1      0.0000       0.00000       A     1.10602e-01     4.12983e-02
 h33bf                                  1      0.0000       0.00000       A     2.60095e-01     8.81477e-02
 h34bf                                  1      0.0000       0.00000       A     2.60095e-01     8.81477e-02
 h35bf                                  1      0.0000       0.00000       A     2.62434e-01     6.79191e-02
 h36bf                                  1      0.0000       0.00000       A     2.62520e-01     6.70780e-02
 h37bf                                  1      0.0000       0.00000       A     2.62456e-01     6.73238e-02
 h38bf                                  1      0.0000       0.00000       A     2.53922e-01     6.68561e-02
 h39bf                                  1      0.0000       0.00000       A     2.41917e-01     8.73385e-02
 h40bf                                  1      0.0000       0.00000       A     2.41917e-01     8.73385e-02
 h41bf                                  1      0.0000       0.00000       A     2.41917e-01     8.73385e-02
 h42bf                                  1      0.0000       0.00000       A     2.41826e-01     8.69507e-02
 h43bf                                  1      0.0000       0.00000       A     2.41826e-01     8.69507e-02
 h44bf                                  1      0.0000       0.00000       A     2.60104e-01     8.70448e-02
 h45bf                                  1      0.0000       0.00000       A     2.60104e-01     8.70448e-02
 h46bf                                  1      0.0000       0.00000       A     2.42034e-01     8.74646e-02
 h47bf                                  1      0.0000       0.00000       A     2.42034e-01     8.74646e-02

[ moleculetype ]
;name             nrexcl
 43_flipped            3

[ atoms ]
;       nr            type      resi   res      atom      cgnr      charge          mass ; qtot
         1            c0bf         1   UNL        c0         1    -0.19104       12.0110 ; qtot   -0.191
         2            c1bf         1   UNL        c1         2     0.02054       12.0110 ; qtot   -0.170
         3            c2bf         1   UNL        c2         3    -0.15282       12.0110 ; qtot   -0.323
         4            c3bf         1   UNL        c3         4    -0.04037       12.0110 ; qtot   -0.364
         5            c4bf         1   UNL        c4         5    -0.00010       12.0110 ; qtot   -0.364
         6            c5bf         1   UNL        c5         6    -0.23654       12.0110 ; qtot   -0.600
         7            c6bf         1   UNL        c6         7     0.35985       12.0110 ; qtot   -0.240
         8            n7bf         1   UNL        n7         8    -0.50667       14.0070 ; qtot   -0.747
         9            n8bf         1   UNL        n8         9    -0.08032       14.0070 ; qtot   -0.827
        10            c9bf         1   UNL        c9        10    -0.03805       12.0110 ; qtot   -0.866
        11           n10bf         1   UNL       n10        11    -0.41823       14.0070 ; qtot   -1.284
        12           c11bf         1   UNL       c11        12     0.61805       12.0110 ; qtot   -0.666
        13           o12bf         1   UNL       o12        13    -0.59496       15.9990 ; qtot   -1.261
        14           c13bf         1   UNL       c13        14    -0.12142       12.0110 ; qtot   -1.382
        15           c14bf         1   UNL       c14        15    -0.02647       12.0110 ; qtot   -1.409
        16           c15bf         1   UNL       c15        16    -0.24004       12.0110 ; qtot   -1.649
        17           c16bf         1   UNL       c16        17    -0.02314       12.0110 ; qtot   -1.672
        18           c17bf         1   UNL       c17        18    -0.13840       12.0110 ; qtot   -1.810
        19           c18bf         1   UNL       c18        19    -0.07001       12.0110 ; qtot   -1.880
        20           c19bf         1   UNL       c19        20     0.35977       12.0110 ; qtot   -1.520
        21           n20bf         1   UNL       n20        21    -0.51470       14.0070 ; qtot   -2.035
        22           n21bf         1   UNL       n21        22     0.05231       14.0070 ; qtot   -1.983
        23           c22bf         1   UNL       c22        23     0.07854       12.0110 ; qtot   -1.904
        24           c23bf         1   UNL       c23        24     0.05762       12.0110 ; qtot   -1.847
        25           c24bf         1   UNL       c24        25     0.15571       12.0110 ; qtot   -1.691
        26           c25bf         1   UNL       c25        26    -0.14018       12.0110 ; qtot   -1.831
        27           c26bf         1   UNL       c26        27     0.10217       12.0110 ; qtot   -1.729
        28           f27bf         1   UNL       f27        28    -0.10200       18.9980 ; qtot   -1.831
        29           f28bf         1   UNL       f28        29    -0.10200       18.9980 ; qtot   -1.933
        30           h29bf         1   UNL       h29        30     0.13568        1.0080 ; qtot   -1.797
        31           h30bf         1   UNL       h30        31     0.12854        1.0080 ; qtot   -1.669
        32           h31bf         1   UNL       h31        32     0.12679        1.0080 ; qtot   -1.542
        33           h32bf         1   UNL       h32        33     0.37621        1.0080 ; qtot   -1.166
        34           h33bf         1   UNL       h33        34     0.06213        1.0080 ; qtot   -1.104
        35           h34bf         1   UNL       h34        35     0.06213        1.0080 ; qtot   -1.041
        36           h35bf         1   UNL       h35        36     0.12685        1.0080 ; qtot   -0.915
        37           h36bf         1   UNL       h36        37     0.12371        1.0080 ; qtot   -0.791
        38           h37bf         1   UNL       h37        38     0.12013        1.0080 ; qtot   -0.671
        39           h38bf         1   UNL       h38        39     0.04782        1.0080 ; qtot   -0.623
        40           h39bf         1   UNL       h39        40     0.05599        1.0080 ; qtot   -0.567
        41           h40bf         1   UNL       h40        41     0.05599        1.0080 ; qtot   -0.511
        42           h41bf         1   UNL       h41        42     0.05599        1.0080 ; qtot   -0.455
        43           h42bf         1   UNL       h42        43     0.08182        1.0080 ; qtot   -0.373
        44           h43bf         1   UNL       h43        44     0.08182        1.0080 ; qtot   -0.291
        45           h44bf         1   UNL       h44        45     0.08303        1.0080 ; qtot   -0.208
        46           h45bf         1   UNL       h45        46     0.08303        1.0080 ; qtot   -0.125
        47           h46bf         1   UNL       h46        47     0.06262        1.0080 ; qtot   -0.063
        48           h47bf         1   UNL       h47        48     0.06262        1.0080 ; qtot   -0.000

[ bonds ]
;       ai        aj funct               r               k
         1         2     1        0.139249   313568.378418
         1         4     1        0.142174   260188.848193
         1        12     1        0.149897   181961.953149
         2         6     1        0.140371   306033.143555
         2        30     1        0.108531   321810.199561
         3         4     1        0.138670   344091.506250
         3         5     1        0.140627   300249.422412
         3        31     1        0.108560   321165.796143
         4        32     1        0.108510   322041.642383
         5         6     1        0.141872   251534.449512
         5         9     1        0.136842   290575.199268
         6         7     1        0.143777   232914.883398
         7         8     1        0.132648   371349.331592
         7        10     1        0.150274   213698.923633
         8         9     1        0.136401   241851.313916
         9        33     1        0.100927   434980.632227
        10        14     1        0.151997   190226.438477
        10        34     1        0.109489   294935.201025
        10        35     1        0.109489   294935.201025
        11        12     1        0.137380   278035.865674
        11        24     1        0.146903   183533.698389
        11        27     1        0.147795   171070.005713
        12        13     1        0.123576   581022.049023
        14        15     1        0.138985   315913.732080
        14        19     1        0.142105   257155.422656
        15        16     1        0.140860   300474.685254
        15        36     1        0.108645   318249.279492
        16        17     1        0.142106   247674.617578
        16        20     1        0.143093   251677.763770
        17        18     1        0.140684   297899.318848
        17        22     1        0.137036   276502.566553
        18        19     1        0.138749   339792.436035
        18        37     1        0.108555   320681.459326
        19        38     1        0.108656   317559.522168
        20        21     1        0.132641   379076.656592
        20        39     1        0.108271   330986.959814
        21        22     1        0.136411   226978.246045
        22        23     1        0.144916   228881.271436
        23        40     1        0.109267   303150.591260
        23        41     1        0.109267   303150.616797
        23        42     1        0.109267   303150.616797
        24        25     1        0.152991   177808.252930
        24        43     1        0.109275   303116.805664
        24        44     1        0.109275   303116.805664
        25        26     1        0.152234   180283.756470
        25        28     1        0.137740   223868.081494
        25        29     1        0.137740   223868.081494
        26        27     1        0.153488   178098.494946
        26        45     1        0.109155   313013.303809
        26        46     1        0.109155   313013.303809
        27        47     1        0.109305   301497.088965
        27        48     1        0.109305   301497.088965

[ angles ]
;       ai        aj        ak funct           theta             cth
         1         2         6     1      118.795616      675.409491
         1         2        30     1      120.012672      384.877788
         1         4         3     1      121.999634      629.007733
         1         4        32     1      118.575562      403.451215
         1        12        11     1      118.003441      440.976082
         1        12        13     1      120.820389      584.054504
         2         1         4     1      120.323097      660.769513
         2         1        12     1      119.577133      503.049963
         2         6         5     1      119.812096      755.459199
         2         6         7     1      135.462967      444.849997
         3         4        32     1      119.507812      404.808767
         3         5         6     1      121.824631      618.866947
         3         5         9     1      132.474304      482.697685
         4         1        12     1      120.050270      562.104018
         4         3         5     1      117.087341      769.723718
         4         3        31     1      121.224754      433.269397
         5         3        31     1      121.953995      432.932467
         5         6         7     1      104.815262      486.561769
         5         9         8     1      112.338623      425.015069
         5         9        33     1      128.734390      380.960906
         6         2        30     1      121.162453      398.919878
         6         5         9     1      105.799759      167.360000
         6         7         8     1      110.708961      353.176882
         6         7        10     1      127.826614      446.420338
         7         8         9     1      106.501038      544.543233
         7        10        14     1      113.257324      514.984604
         7        10        34     1      108.482384      513.884625
         7        10        35     1      108.482384      513.884625
         8         7        10     1      121.631851      449.366554
         8         9        33     1      118.789017      482.596877
        10        14        15     1      120.770676      447.780636
        10        14        19     1      119.654579      515.390771
        11        12        13     1      120.933960      644.971874
        11        24        25     1      103.124374      571.778050
        11        24        43     1      111.784683      429.870057
        11        24        44     1      111.784683      429.870057
        11        27        26     1      103.424156      618.666417
        11        27        47     1      110.546326      433.812763
        11        27        48     1      110.546326      433.812763
        12        11        24     1      122.193336      468.234137
        12        11        27     1      122.411705      459.626694
        14        10        34     1      109.738464      491.211662
        14        10        35     1      109.738464      491.211662
        14        15        16     1      119.124245      690.083433
        14        15        36     1      120.385292      379.597543
        14        19        18     1      122.351158      638.178428
        14        19        38     1      118.692238      398.132984
        15        14        19     1      119.857811      675.831300
        15        16        17     1      119.673256      745.940114
        15        16        20     1      136.228241      467.982532
        16        15        36     1      120.733803      405.996179
        16        17        18     1      121.680832      628.233703
        16        17        22     1      106.429855      167.360000
        16        20        21     1      111.200684      374.093019
        16        20        39     1      129.112213      351.438603
        17        16        20     1      104.156937      405.356921
        17        18        19     1      117.142593      781.145637
        17        18        37     1      121.966003      423.035656
        17        22        21     1      111.620140      448.620807
        17        22        23     1      127.753769      475.761359
        18        17        22     1      131.870255      459.750869
        18        19        38     1      119.160912      418.881183
        19        18        37     1      121.033058      426.416162
        20        21        22     1      106.528038      506.624009
        21        20        39     1      119.544449      397.727263
        21        22        23     1      120.299301      539.922485
        22        23        40     1      109.812828      469.144215
        22        23        41     1      109.812828      469.144215
        22        23        42     1      109.812828      469.144215
        24        11        27     1      111.679527      415.374108
        24        25        26     1      105.876991      480.742149
        24        25        28     1      110.771439      574.471448
        24        25        29     1      110.771439      574.471448
        25        24        43     1      110.301758      482.456774
        25        24        44     1      110.301758      482.456774
        25        26        27     1      102.845802      704.570571
        25        26        45     1      109.782753      513.819984
        25        26        46     1      109.782753      513.819984
        26        25        28     1      111.559372      595.266891
        26        25        29     1      111.559372      595.266891
        26        27        47     1      112.145874      452.021137
        26        27        48     1      112.145874      452.021137
        27        26        45     1      112.289284      468.163814
        27        26        46     1      112.289284      468.163814
        28        25        29     1      106.117447      710.951274
        34        10        35     1      106.946144      364.204732
        40        23        41     1      109.288673      350.199638
        40        23        42     1      109.288673      350.199638
        41        23        42     1      109.288673      350.199638
        43        24        44     1      108.813553      341.108938
        45        26        46     1      109.022133      350.536345
        47        27        48     1      107.950668      343.261493

[ dihedrals ] ; propers for gromacs 4.5 or higher, use funct 9
;       ai        aj        ak        al funct           phase               k        pn
         1         2         6         5     9        0.000000       -0.128170         1
         1         2         6         5     9      180.000000       19.135886         2
         1         2         6         5     9        0.000000       -2.362157         3
         1         2         6         5     9      180.000000       -0.459193         4
         1         2         6         7     9        0.000000       -0.576623         1
         1         2         6         7     9      180.000000       13.347635         2
         1         2         6         7     9        0.000000       -0.919975         3
         1         2         6         7     9      180.000000       -0.206270         4
         1         4         3         5     9        0.000000       -0.219016         1
         1         4         3         5     9      180.000000       21.522917         2
         1         4         3         5     9        0.000000       -1.575408         3
         1         4         3         5     9      180.000000       -0.601458         4
         1         4         3        31     9        0.000000        0.090789         1
         1         4         3        31     9      180.000000       14.711935         2
         1         4         3        31     9        0.000000       -0.493178         3
         1         4         3        31     9      180.000000        0.135804         4
         1        12        11        24     9        0.000000        3.934475         1
         1        12        11        24     9      180.000000        9.248294         2
         1        12        11        24     9        0.000000        1.070810         3
         1        12        11        24     9      180.000000       -0.219556         4
         1        12        11        27     9        0.000000        3.770105         1
         1        12        11        27     9      180.000000        9.099480         2
         1        12        11        27     9        0.000000        1.086906         3
         1        12        11        27     9      180.000000       -0.276975         4
         2         1         4         3     9        0.000000        0.124612         1
         2         1         4         3     9      180.000000       17.025443         2
         2         1         4         3     9        0.000000       -1.114627         3
         2         1         4         3     9      180.000000       -0.304047         4
         2         1         4        32     9        0.000000        0.151478         1
         2         1         4        32     9      180.000000       12.571939         2
         2         1         4        32     9        0.000000       -0.564456         3
         2         1         4        32     9      180.000000        0.110795         4
         2         1        12        11     9        0.000000       -0.498278         1
         2         1        12        11     9      180.000000        4.665818         2
         2         1        12        11     9        0.000000       -0.250654         3
         2         1        12        11     9      180.000000        0.293504         4
         2         1        12        13     9        0.000000        0.843628         1
         2         1        12        13     9      180.000000        3.138981         2
         2         1        12        13     9        0.000000        0.079283         3
         2         1        12        13     9      180.000000        0.134488         4
         2         6         5         3     9        0.000000       -0.181542         1
         2         6         5         3     9      180.000000       10.822353         2
         2         6         5         3     9        0.000000       -1.570633         3
         2         6         5         3     9      180.000000       -0.089876         4
         2         6         5         9     9        0.000000        0.232442         1
         2         6         5         9     9      180.000000        9.466105         2
         2         6         5         9     9        0.000000       -1.977555         3
         2         6         5         9     9      180.000000        0.140197         4
         2         6         7         8     9        0.000000       -0.208309         1
         2         6         7         8     9      180.000000        4.142962         2
         2         6         7         8     9        0.000000       -0.828849         3
         2         6         7         8     9      180.000000        0.061272         4
         2         6         7        10     9        0.000000       -0.323251         1
         2         6         7        10     9      180.000000        4.383250         2
         2         6         7        10     9        0.000000        0.261969         3
         2         6         7        10     9      180.000000        0.070300         4
         3         4         1        12     9        0.000000        0.078151         1
         3         4         1        12     9      180.000000       13.287575         2
         3         4         1        12     9        0.000000       -0.159196         3
         3         4         1        12     9      180.000000       -0.273014         4
         3         5         6         7     9        0.000000        0.014098         1
         3         5         6         7     9      180.000000       11.367148         2
         3         5         6         7     9        0.000000       -2.380690         3
         3         5         6         7     9      180.000000       -0.033657         4
         3         5         9         8     9        0.000000        1.386494         1
         3         5         9         8     9      180.000000        5.476764         2
         3         5         9         8     9        0.000000        0.475234         3
         3         5         9         8     9      180.000000       -0.028473         4
         3         5         9        33     9        0.000000       -0.152200         1
         3         5         9        33     9      180.000000        1.455402         2
         3         5         9        33     9        0.000000        0.111501         3
         3         5         9        33     9      180.000000       -0.112517         4
         4         1         2         6     9        0.000000       -0.058410         1
         4         1         2         6     9      180.000000       20.815637         2
         4         1         2         6     9        0.000000       -1.362546         3
         4         1         2         6     9      180.000000       -0.635939         4
         4         1         2        30     9        0.000000        0.120472         1
         4         1         2        30     9      180.000000       14.360174         2
         4         1         2        30     9        0.000000       -0.437615         3
         4         1         2        30     9      180.000000       -0.032110         4
         4         1        12        11     9        0.000000       -0.134572         1
         4         1        12        11     9      180.000000        4.995836         2
         4         1        12        11     9        0.000000       -0.170688         3
         4         1        12        11     9      180.000000        0.315598         4
         4         1        12        13     9        0.000000       -0.097276         1
         4         1        12        13     9      180.000000        3.288995         2
         4         1        12        13     9        0.000000       -0.006138         3
         4         1        12        13     9      180.000000        0.144988         4
         4         3         5         6     9        0.000000       -0.195630         1
         4         3         5         6     9      180.000000       16.798157         2
         4         3         5         6     9        0.000000       -1.830202         3
         4         3         5         6     9      180.000000       -0.306091         4
         4         3         5         9     9        0.000000        0.196608         1
         4         3         5         9     9      180.000000       13.162746         2
         4         3         5         9     9        0.000000       -0.074610         3
         4         3         5         9     9      180.000000       -0.089704         4
         5         3         4        32     9        0.000000        0.122788         1
         5         3         4        32     9      180.000000       16.914239         2
         5         3         4        32     9        0.000000       -0.551290         3
         5         3         4        32     9      180.000000       -0.062160         4
         5         6         2        30     9        0.000000        0.316622         1
         5         6         2        30     9      180.000000       14.122379         2
         5         6         2        30     9        0.000000       -0.283270         3
         5         6         2        30     9      180.000000       -0.172459         4
         5         6         7         8     9        0.000000       -0.163800         1
         5         6         7         8     9      180.000000       30.962819         2
         5         6         7         8     9        0.000000       -9.488882         3
         5         6         7         8     9      180.000000       -0.198413         4
         5         6         7        10     9        0.000000        0.897208         1
         5         6         7        10     9      180.000000       14.529405         2
         5         6         7        10     9        0.000000        0.075184         3
         5         6         7        10     9      180.000000       -0.584790         4
         5         9         8         7     9        0.000000       -0.212417         1
         5         9         8         7     9      180.000000       17.202000         2
         5         9         8         7     9        0.000000       -2.172826         3
         5         9         8         7     9      180.000000       -1.162576         4
         6         2         1        12     9        0.000000       -0.042464         1
         6         2         1        12     9      180.000000       16.756627         2
         6         2         1        12     9        0.000000       -0.111197         3
         6         2         1        12     9      180.000000       -0.624769         4
         6         5         3        31     9        0.000000        0.112331         1
         6         5         3        31     9      180.000000       11.310826         2
         6         5         3        31     9        0.000000       -0.313186         3
         6         5         3        31     9      180.000000        0.009255         4
         6         5         9         8     9        0.000000        0.391452         1
         6         5         9         8     9      180.000000       24.524244         2
         6         5         9         8     9        0.000000       -5.051481         3
         6         5         9         8     9      180.000000       -1.042479         4
         6         5         9        33     9        0.000000        0.325622         1
         6         5         9        33     9      180.000000        1.565869         2
         6         5         9        33     9        0.000000        0.502844         3
         6         5         9        33     9      180.000000        0.025233         4
         6         7         8         9     9        0.000000       -0.262369         1
         6         7         8         9     9      180.000000       41.389857         2
         6         7         8         9     9        0.000000       -4.762094         3
         6         7         8         9     9      180.000000       -0.128372         4
         6         7        10        14     9        0.000000        0.302162         1
         6         7        10        14     9      180.000000       -0.359828         2
         6         7        10        14     9        0.000000        0.616007         3
         6         7        10        14     9      180.000000        0.013635         4
         6         7        10        34     9        0.000000       -0.068650         1
         6         7        10        34     9      180.000000        0.149330         2
         6         7        10        34     9        0.000000        0.521450         3
         6         7        10        34     9      180.000000        0.016095         4
         6         7        10        35     9        0.000000       -0.068650         1
         6         7        10        35     9      180.000000        0.149330         2
         6         7        10        35     9        0.000000        0.521450         3
         6         7        10        35     9      180.000000        0.016095         4
         7         6         2        30     9        0.000000       -0.177319         1
         7         6         2        30     9      180.000000        9.484922         2
         7         6         2        30     9        0.000000        0.063836         3
         7         6         2        30     9      180.000000        0.060924         4
         7         6         5         9     9        0.000000        0.187503         1
         7         6         5         9     9      180.000000       17.416660         2
         7         6         5         9     9        0.000000       -6.348934         3
         7         6         5         9     9      180.000000       -0.225478         4
         7         8         9        33     9        0.000000        2.361158         1
         7         8         9        33     9      180.000000        2.980257         2
         7         8         9        33     9        0.000000        0.434237         3
         7         8         9        33     9      180.000000        0.025133         4
         7        10        14        15     9        0.000000       -0.041230         1
         7        10        14        15     9      180.000000        0.067239         2
         7        10        14        15     9        0.000000       -0.153176         3
         7        10        14        15     9      180.000000        0.064302         4
         7        10        14        19     9        0.000000       -0.099781         1
         7        10        14        19     9      180.000000        0.037192         2
         7        10        14        19     9        0.000000        0.227242         3
         7        10        14        19     9      180.000000        0.016814         4
         8         7        10        14     9        0.000000       -1.261962         1
         8         7        10        14     9      180.000000       -0.168968         2
         8         7        10        14     9        0.000000        0.041303         3
         8         7        10        14     9      180.000000        0.010698         4
         8         7        10        34     9        0.000000        0.223715         1
         8         7        10        34     9      180.000000        0.093023         2
         8         7        10        34     9        0.000000       -0.189378         3
         8         7        10        34     9      180.000000        0.040775         4
         8         7        10        35     9        0.000000        0.223715         1
         8         7        10        35     9      180.000000        0.093023         2
         8         7        10        35     9        0.000000       -0.189378         3
         8         7        10        35     9      180.000000        0.040775         4
         9         5         3        31     9        0.000000       -0.100464         1
         9         5         3        31     9      180.000000        9.598580         2
         9         5         3        31     9        0.000000       -0.055553         3
         9         5         3        31     9      180.000000        0.045175         4
         9         8         7        10     9        0.000000        0.476446         1
         9         8         7        10     9      180.000000       32.353064         2
         9         8         7        10     9        0.000000        0.815797         3
         9         8         7        10     9      180.000000       -0.851938         4
        10        14        15        16     9        0.000000        0.009257         1
        10        14        15        16     9      180.000000       18.674644         2
        10        14        15        16     9        0.000000       -0.120348         3
        10        14        15        16     9      180.000000       -0.670552         4
        10        14        15        36     9        0.000000       -0.055554         1
        10        14        15        36     9      180.000000       13.186443         2
        10        14        15        36     9        0.000000       -0.327489         3
        10        14        15        36     9      180.000000        0.127685         4
        10        14        19        18     9        0.000000        0.041301         1
        10        14        19        18     9      180.000000       14.360254         2
        10        14        19        18     9        0.000000       -0.129779         3
        10        14        19        18     9      180.000000       -0.172532         4
        10        14        19        38     9        0.000000       -0.054024         1
        10        14        19        38     9      180.000000       12.258338         2
        10        14        19        38     9        0.000000       -0.375148         3
        10        14        19        38     9      180.000000        0.148638         4
        11        24        25        26     9        0.000000       -0.369467         1
        11        24        25        26     9      180.000000        3.396726         2
        11        24        25        26     9        0.000000       -0.080590         3
        11        24        25        26     9      180.000000       -1.281318         4
        11        24        25        28     9        0.000000        0.209055         1
        11        24        25        28     9      180.000000       -1.016903         2
        11        24        25        28     9        0.000000        0.272484         3
        11        24        25        28     9      180.000000        0.370582         4
        11        24        25        29     9        0.000000        0.209055         1
        11        24        25        29     9      180.000000       -1.016903         2
        11        24        25        29     9        0.000000        0.272484         3
        11        24        25        29     9      180.000000        0.370582         4
        11        27        26        25     9        0.000000       -0.939408         1
        11        27        26        25     9      180.000000        1.358285         2
        11        27        26        25     9        0.000000       -0.216165         3
        11        27        26        25     9      180.000000       -0.813142         4
        11        27        26        45     9        0.000000        0.020349         1
        11        27        26        45     9      180.000000       -0.044739         2
        11        27        26        45     9        0.000000        0.030028         3
        11        27        26        45     9      180.000000        0.107238         4
        11        27        26        46     9        0.000000        0.020349         1
        11        27        26        46     9      180.000000       -0.044739         2
        11        27        26        46     9        0.000000        0.030028         3
        11        27        26        46     9      180.000000        0.107238         4
        12         1         2        30     9        0.000000       -0.011773         1
        12         1         2        30     9      180.000000       12.624918         2
        12         1         2        30     9        0.000000       -0.313359         3
        12         1         2        30     9      180.000000        0.037912         4
        12         1         4        32     9        0.000000       -0.062200         1
        12         1         4        32     9      180.000000       11.759729         2
        12         1         4        32     9        0.000000       -0.366199         3
        12         1         4        32     9      180.000000        0.029550         4
        12        11        24        25     9        0.000000       -0.355090         1
        12        11        24        25     9      180.000000       -0.687710         2
        12        11        24        25     9        0.000000       -0.001189         3
        12        11        24        25     9      180.000000       -0.152860         4
        12        11        24        43     9        0.000000       -0.032955         1
        12        11        24        43     9      180.000000        0.104930         2
        12        11        24        43     9        0.000000       -0.032859         3
        12        11        24        43     9      180.000000       -0.031558         4
        12        11        24        44     9        0.000000       -0.032955         1
        12        11        24        44     9      180.000000        0.104930         2
        12        11        24        44     9        0.000000       -0.032859         3
        12        11        24        44     9      180.000000       -0.031558         4
        12        11        27        26     9        0.000000       -0.586375         1
        12        11        27        26     9      180.000000       -0.129230         2
        12        11        27        26     9        0.000000        0.189225         3
        12        11        27        26     9      180.000000        0.007574         4
        12        11        27        47     9        0.000000        0.092070         1
        12        11        27        47     9      180.000000        0.087974         2
        12        11        27        47     9        0.000000        0.173178         3
        12        11        27        47     9      180.000000       -0.007238         4
        12        11        27        48     9        0.000000        0.092070         1
        12        11        27        48     9      180.000000        0.087974         2
        12        11        27        48     9        0.000000        0.173178         3
        12        11        27        48     9      180.000000       -0.007238         4
        13        12        11        24     9        0.000000       -1.623330         1
        13        12        11        24     9      180.000000       13.505833         2
        13        12        11        24     9        0.000000       -0.997254         3
        13        12        11        24     9      180.000000       -0.191328         4
        13        12        11        27     9        0.000000       -1.632267         1
        13        12        11        27     9      180.000000       13.483549         2
        13        12        11        27     9        0.000000       -0.940131         3
        13        12        11        27     9      180.000000       -0.150515         4
        14        15        16        17     9        0.000000       -0.078803         1
        14        15        16        17     9      180.000000       18.898255         2
        14        15        16        17     9        0.000000       -1.972406         3
        14        15        16        17     9      180.000000       -0.480351         4
        14        15        16        20     9        0.000000       -0.170164         1
        14        15        16        20     9      180.000000       11.866871         2
        14        15        16        20     9        0.000000       -0.652506         3
        14        15        16        20     9      180.000000       -0.093021         4
        14        19        18        17     9        0.000000        0.033895         1
        14        19        18        17     9      180.000000       21.816384         2
        14        19        18        17     9        0.000000       -1.543464         3
        14        19        18        17     9      180.000000       -0.527859         4
        14        19        18        37     9        0.000000        0.042383         1
        14        19        18        37     9      180.000000       15.365328         2
        14        19        18        37     9        0.000000       -0.513372         3
        14        19        18        37     9      180.000000        0.030415         4
        15        14        10        34     9        0.000000        0.000215         1
        15        14        10        34     9      180.000000        0.010257         2
        15        14        10        34     9        0.000000       -0.173531         3
        15        14        10        34     9      180.000000       -0.005921         4
        15        14        10        35     9        0.000000        0.000215         1
        15        14        10        35     9      180.000000        0.010257         2
        15        14        10        35     9        0.000000       -0.173531         3
        15        14        10        35     9      180.000000       -0.005921         4
        15        14        19        18     9        0.000000       -0.058867         1
        15        14        19        18     9      180.000000       17.386450         2
        15        14        19        18     9        0.000000       -1.187962         3
        15        14        19        18     9      180.000000       -0.362341         4
        15        14        19        38     9        0.000000        0.110685         1
        15        14        19        38     9      180.000000       13.351948         2
        15        14        19        38     9        0.000000       -0.633175         3
        15        14        19        38     9      180.000000        0.063514         4
        15        16        17        18     9        0.000000       -0.018008         1
        15        16        17        18     9      180.000000       10.863879         2
        15        16        17        18     9        0.000000       -1.423270         3
        15        16        17        18     9      180.000000       -0.061566         4
        15        16        17        22     9        0.000000        0.334963         1
        15        16        17        22     9      180.000000       10.266971         2
        15        16        17        22     9        0.000000       -2.541748         3
        15        16        17        22     9      180.000000        0.093714         4
        15        16        20        21     9        0.000000        0.245816         1
        15        16        20        21     9      180.000000        4.612387         2
        15        16        20        21     9        0.000000       -0.489836         3
        15        16        20        21     9      180.000000        0.041425         4
        15        16        20        39     9        0.000000       -0.462277         1
        15        16        20        39     9      180.000000        4.704010         2
        15        16        20        39     9        0.000000        0.076634         3
        15        16        20        39     9      180.000000        0.101219         4
        16        15        14        19     9        0.000000       -0.065722         1
        16        15        14        19     9      180.000000       21.557267         2
        16        15        14        19     9        0.000000       -1.402324         3
        16        15        14        19     9      180.000000       -0.641113         4
        16        17        18        19     9        0.000000       -0.188055         1
        16        17        18        19     9      180.000000       17.214779         2
        16        17        18        19     9        0.000000       -1.939364         3
        16        17        18        19     9      180.000000       -0.295283         4
        16        17        18        37     9        0.000000        0.112344         1
        16        17        18        37     9      180.000000       11.517713         2
        16        17        18        37     9        0.000000       -0.192778         3
        16        17        18        37     9      180.000000       -0.040451         4
        16        17        22        21     9        0.000000       -0.084196         1
        16        17        22        21     9      180.000000       25.294062         2
        16        17        22        21     9        0.000000       -6.105160         3
        16        17        22        21     9      180.000000       -0.410272         4
        16        17        22        23     9        0.000000        0.278065         1
        16        17        22        23     9      180.000000        3.350612         2
        16        17        22        23     9        0.000000        0.761433         3
        16        17        22        23     9      180.000000        0.095819         4
        16        20        21        22     9        0.000000       -0.280634         1
        16        20        21        22     9      180.000000       41.455998         2
        16        20        21        22     9        0.000000       -5.327205         3
        16        20        21        22     9      180.000000       -0.203315         4
        17        16        15        36     9        0.000000        0.423329         1
        17        16        15        36     9      180.000000       13.268964         2
        17        16        15        36     9        0.000000       -0.163073         3
        17        16        15        36     9      180.000000       -0.109450         4
        17        16        20        21     9        0.000000       -0.103930         1
        17        16        20        21     9      180.000000       30.729596         2
        17        16        20        21     9        0.000000       -9.652096         3
        17        16        20        21     9      180.000000       -0.336765         4
        17        16        20        39     9        0.000000        0.934169         1
        17        16        20        39     9      180.000000       12.774197         2
        17        16        20        39     9        0.000000        0.452474         3
        17        16        20        39     9      180.000000       -0.324343         4
        17        18        19        38     9        0.000000        0.075035         1
        17        18        19        38     9      180.000000       17.271072         2
        17        18        19        38     9        0.000000       -0.368368         3
        17        18        19        38     9      180.000000       -0.132390         4
        17        22        21        20     9        0.000000       -0.561708         1
        17        22        21        20     9      180.000000       22.826383         2
        17        22        21        20     9        0.000000       -3.369753         3
        17        22        21        20     9      180.000000       -0.422870         4
        17        22        23        40     9        0.000000        0.014913         1
        17        22        23        40     9      180.000000        0.019881         2
        17        22        23        40     9        0.000000        0.542826         3
        17        22        23        40     9      180.000000       -0.005520         4
        17        22        23        41     9        0.000000        0.014913         1
        17        22        23        41     9      180.000000        0.019881         2
        17        22        23        41     9        0.000000        0.542826         3
        17        22        23        41     9      180.000000       -0.005520         4
        17        22        23        42     9        0.000000        0.014913         1
        17        22        23        42     9      180.000000        0.019881         2
        17        22        23        42     9        0.000000        0.542826         3
        17        22        23        42     9      180.000000       -0.005520         4
        18        17        16        20     9        0.000000        0.000872         1
        18        17        16        20     9      180.000000        9.880126         2
        18        17        16        20     9        0.000000       -2.020836         3
        18        17        16        20     9      180.000000        0.107998         4
        18        17        22        21     9        0.000000        1.125086         1
        18        17        22        21     9      180.000000        4.562914         2
        18        17        22        21     9        0.000000        0.638073         3
        18        17        22        21     9      180.000000       -0.010920         4
        18        17        22        23     9        0.000000       -0.152729         1
        18        17        22        23     9      180.000000        2.288042         2
        18        17        22        23     9        0.000000        0.087417         3
        18        17        22        23     9      180.000000       -0.011101         4
        19        14        10        34     9        0.000000        0.002170         1
        19        14        10        34     9      180.000000       -0.010324         2
        19        14        10        34     9        0.000000        0.129496         3
        19        14        10        34     9      180.000000        0.006624         4
        19        14        10        35     9        0.000000        0.002170         1
        19        14        10        35     9      180.000000       -0.010324         2
        19        14        10        35     9        0.000000        0.129496         3
        19        14        10        35     9      180.000000        0.006624         4
        19        14        15        36     9        0.000000        0.121884         1
        19        14        15        36     9      180.000000       15.132209         2
        19        14        15        36     9        0.000000       -0.407556         3
        19        14        15        36     9      180.000000       -0.044660         4
        19        18        17        22     9        0.000000        0.338603         1
        19        18        17        22     9      180.000000       13.036899         2
        19        18        17        22     9        0.000000       -0.207218         3
        19        18        17        22     9      180.000000       -0.199472         4
        20        16        15        36     9        0.000000       -0.002975         1
        20        16        15        36     9      180.000000        9.255177         2
        20        16        15        36     9        0.000000        0.038231         3
        20        16        15        36     9      180.000000        0.064808         4
        20        16        17        22     9        0.000000        0.227491         1
        20        16        17        22     9      180.000000       17.510110         2
        20        16        17        22     9        0.000000       -6.848148         3
        20        16        17        22     9      180.000000       -0.205011         4
        20        21        22        23     9        0.000000        1.087049         1
        20        21        22        23     9      180.000000        7.030249         2
        20        21        22        23     9        0.000000        0.652683         3
        20        21        22        23     9      180.000000        0.046221         4
        21        22        23        40     9        0.000000       -0.006792         1
        21        22        23        40     9      180.000000       -0.008435         2
        21        22        23        40     9        0.000000        0.359852         3
        21        22        23        40     9      180.000000        0.009143         4
        21        22        23        41     9        0.000000       -0.006792         1
        21        22        23        41     9      180.000000       -0.008435         2
        21        22        23        41     9        0.000000        0.359852         3
        21        22        23        41     9      180.000000        0.009143         4
        21        22        23        42     9        0.000000       -0.006792         1
        21        22        23        42     9      180.000000       -0.008435         2
        21        22        23        42     9        0.000000        0.359852         3
        21        22        23        42     9      180.000000        0.009143         4
        22        17        18        37     9        0.000000       -0.167821         1
        22        17        18        37     9      180.000000        9.429548         2
        22        17        18        37     9        0.000000       -0.040251         3
        22        17        18        37     9      180.000000        0.108171         4
        22        21        20        39     9        0.000000        1.583699         1
        22        21        20        39     9      180.000000       27.754742         2
        22        21        20        39     9        0.000000        0.409579         3
        22        21        20        39     9      180.000000       -0.110624         4
        24        11        27        26     9        0.000000        0.718520         1
        24        11        27        26     9      180.000000       -0.369752         2
        24        11        27        26     9        0.000000        0.555348         3
        24        11        27        26     9      180.000000       -0.161886         4
        24        11        27        47     9        0.000000       -0.002314         1
        24        11        27        47     9      180.000000        0.060671         2
        24        11        27        47     9        0.000000        0.295554         3
        24        11        27        47     9      180.000000        0.038798         4
        24        11        27        48     9        0.000000       -0.002314         1
        24        11        27        48     9      180.000000        0.060671         2
        24        11        27        48     9        0.000000        0.295554         3
        24        11        27        48     9      180.000000        0.038798         4
        24        25        26        27     9        0.000000       -0.423726         1
        24        25        26        27     9      180.000000        4.392332         2
        24        25        26        27     9        0.000000       -0.313042         3
        24        25        26        27     9      180.000000       -0.924007         4
        24        25        26        45     9        0.000000       -0.026953         1
        24        25        26        45     9      180.000000       -0.006878         2
        24        25        26        45     9        0.000000       -0.002952         3
        24        25        26        45     9      180.000000        0.086608         4
        24        25        26        46     9        0.000000       -0.026953         1
        24        25        26        46     9      180.000000       -0.006878         2
        24        25        26        46     9        0.000000       -0.002952         3
        24        25        26        46     9      180.000000        0.086608         4
        25        24        11        27     9        0.000000        0.602278         1
        25        24        11        27     9      180.000000       -0.320771         2
        25        24        11        27     9        0.000000        0.023464         3
        25        24        11        27     9      180.000000       -0.162222         4
        25        26        27        47     9        0.000000        0.026220         1
        25        26        27        47     9      180.000000        0.044725         2
        25        26        27        47     9        0.000000       -0.044426         3
        25        26        27        47     9      180.000000        0.091025         4
        25        26        27        48     9        0.000000        0.026220         1
        25        26        27        48     9      180.000000        0.044725         2
        25        26        27        48     9        0.000000       -0.044426         3
        25        26        27        48     9      180.000000        0.091025         4
        26        25        24        43     9        0.000000       -0.009777         1
        26        25        24        43     9      180.000000       -0.046965         2
        26        25        24        43     9        0.000000        0.076716         3
        26        25        24        43     9      180.000000        0.079778         4
        26        25        24        44     9        0.000000       -0.009777         1
        26        25        24        44     9      180.000000       -0.046965         2
        26        25        24        44     9        0.000000        0.076716         3
        26        25        24        44     9      180.000000        0.079778         4
        27        11        24        43     9        0.000000       -0.013296         1
        27        11        24        43     9      180.000000        0.102727         2
        27        11        24        43     9        0.000000        0.066298         3
        27        11        24        43     9      180.000000        0.078879         4
        27        11        24        44     9        0.000000       -0.013296         1
        27        11        24        44     9      180.000000        0.102727         2
        27        11        24        44     9        0.000000        0.066298         3
        27        11        24        44     9      180.000000        0.078879         4
        27        26        25        28     9        0.000000        0.061130         1
        27        26        25        28     9      180.000000        0.105762         2
        27        26        25        28     9        0.000000        0.096444         3
        27        26        25        28     9      180.000000        0.181974         4
        27        26        25        29     9        0.000000        0.061130         1
        27        26        25        29     9      180.000000        0.105762         2
        27        26        25        29     9        0.000000        0.096444         3
        27        26        25        29     9      180.000000        0.181974         4
        28        25        24        43     9        0.000000        0.012257         1
        28        25        24        43     9      180.000000        0.021072         2
        28        25        24        43     9        0.000000        0.469484         3
        28        25        24        43     9      180.000000       -0.056558         4
        28        25        24        44     9        0.000000        0.012257         1
        28        25        24        44     9      180.000000        0.021072         2
        28        25        24        44     9        0.000000        0.469484         3
        28        25        24        44     9      180.000000       -0.056558         4
        28        25        26        45     9        0.000000        0.058870         1
        28        25        26        45     9      180.000000        0.028455         2
        28        25        26        45     9        0.000000        0.335597         3
        28        25        26        45     9      180.000000       -0.048498         4
        28        25        26        46     9        0.000000        0.058870         1
        28        25        26        46     9      180.000000        0.028455         2
        28        25        26        46     9        0.000000        0.335597         3
        28        25        26        46     9      180.000000       -0.048498         4
        29        25        24        43     9        0.000000        0.012257         1
        29        25        24        43     9      180.000000        0.021072         2
        29        25        24        43     9        0.000000        0.469484         3
        29        25        24        43     9      180.000000       -0.056558         4
        29        25        24        44     9        0.000000        0.012257         1
        29        25        24        44     9      180.000000        0.021072         2
        29        25        24        44     9        0.000000        0.469484         3
        29        25        24        44     9      180.000000       -0.056558         4
        29        25        26        45     9        0.000000        0.058870         1
        29        25        26        45     9      180.000000        0.028455         2
        29        25        26        45     9        0.000000        0.335597         3
        29        25        26        45     9      180.000000       -0.048498         4
        29        25        26        46     9        0.000000        0.058870         1
        29        25        26        46     9      180.000000        0.028455         2
        29        25        26        46     9        0.000000        0.335597         3
        29        25        26        46     9      180.000000       -0.048498         4
        31         3         4        32     9        0.000000       -0.088591         1
        31         3         4        32     9      180.000000       12.600571         2
        31         3         4        32     9        0.000000       -0.684381         3
        31         3         4        32     9      180.000000        0.289087         4
        37        18        19        38     9        0.000000       -0.092820         1
        37        18        19        38     9      180.000000       12.773764         2
        37        18        19        38     9        0.000000       -0.678611         3
        37        18        19        38     9      180.000000        0.307460         4
        45        26        27        47     9        0.000000       -0.025528         1
        45        26        27        47     9      180.000000        0.008744         2
        45        26        27        47     9        0.000000        0.258068         3
        45        26        27        47     9      180.000000       -0.006214         4
        45        26        27        48     9        0.000000       -0.025528         1
        45        26        27        48     9      180.000000        0.008744         2
        45        26        27        48     9        0.000000        0.258068         3
        45        26        27        48     9      180.000000       -0.006214         4
        46        26        27        47     9        0.000000       -0.025528         1
        46        26        27        47     9      180.000000        0.008744         2
        46        26        27        47     9        0.000000        0.258068         3
        46        26        27        47     9      180.000000       -0.006214         4
        46        26        27        48     9        0.000000       -0.025528         1
        46        26        27        48     9      180.000000        0.008744         2
        46        26        27        48     9        0.000000        0.258068         3
        46        26        27        48     9      180.000000       -0.006214         4

[ dihedrals ] ; impropers
;       ai        aj        ak        al funct           phase               k        pn
         2         1         6        30     4      180.000000        1.905065         2
         2         6        30         1     4      180.000000        1.905065         2
         2        30         1         6     4      180.000000        1.905065         2
         3         4         5        31     4      180.000000        0.109547         2
         3         5        31         4     4      180.000000        0.109547         2
         3        31         4         5     4      180.000000        0.109547         2
        12         1        11        13     4      180.000000       27.893333         2
        12        11        13         1     4      180.000000       27.893333         2
        12        13         1        11     4      180.000000       27.893333         2
        15        14        16        36     4      180.000000        4.601587         2
        15        16        36        14     4      180.000000        4.601587         2
        15        36        14        16     4      180.000000        4.601587         2
        18        17        19        37     4      180.000000        2.152420         2
        18        19        37        17     4      180.000000        2.152420         2
        18        37        17        19     4      180.000000        2.152420         2
        19        14        18        38     4      180.000000        1.055853         2
        19        18        38        14     4      180.000000        1.055853         2
        19        38        14        18     4      180.000000        1.055853         2

[ pairs ]
;       ai        aj funct
         1         5     1
         1         7     1
         1        24     1
         1        27     1
         1        31     1
         2         3     1
         2         8     1
         2         9     1
         2        10     1
         2        11     1
         2        13     1
         2        32     1
         3         7     1
         3         8     1
         3        12     1
         3        33     1
         4         6     1
         4         9     1
         4        11     1
         4        13     1
         4        30     1
         5        10     1
         5        30     1
         5        32     1
         6        12     1
         6        14     1
         6        31     1
         6        33     1
         6        34     1
         6        35     1
         7        15     1
         7        19     1
         7        30     1
         7        33     1
         8        14     1
         8        34     1
         8        35     1
         9        10     1
         9        31     1
        10        16     1
        10        18     1
        10        36     1
        10        38     1
        11        28     1
        11        29     1
        11        45     1
        11        46     1
        12        25     1
        12        26     1
        12        30     1
        12        32     1
        12        43     1
        12        44     1
        12        47     1
        12        48     1
        13        24     1
        13        27     1
        14        17     1
        14        20     1
        14        37     1
        15        18     1
        15        21     1
        15        22     1
        15        34     1
        15        35     1
        15        38     1
        15        39     1
        16        19     1
        16        23     1
        16        37     1
        17        36     1
        17        38     1
        17        39     1
        17        40     1
        17        41     1
        17        42     1
        18        20     1
        18        21     1
        18        23     1
        19        22     1
        19        34     1
        19        35     1
        19        36     1
        20        23     1
        20        36     1
        21        40     1
        21        41     1
        21        42     1
        22        37     1
        22        39     1
        24        45     1
        24        46     1
        24        47     1
        24        48     1
        25        47     1
        25        48     1
        26        43     1
        26        44     1
        27        28     1
        27        29     1
        27        43     1
        27        44     1
        28        43     1
        28        44     1
        28        45     1
        28        46     1
        29        43     1
        29        44     1
        29        45     1
        29        46     1
        31        32     1
        37        38     1
        45        47     1
        45        48     1
        46        47     1
        46        48     1
