; ITP file created by ByteFF-ML, 2026-02-21 07:35:14.941749

[ atomtypes ]
;name           bonded.type        at.num        mass        charge   ptype           sigma         epsilon
 c0bf                                   6      0.0000       0.00000       A     3.31391e-01     4.10803e-01
 c1bf                                   6      0.0000       0.00000       A     3.31422e-01     4.13513e-01
 c2bf                                   6      0.0000       0.00000       A     3.31522e-01     4.12546e-01
 c3bf                                   6      0.0000       0.00000       A     3.31526e-01     4.12839e-01
 c4bf                                   6      0.0000       0.00000       A     3.31529e-01     4.12453e-01
 c5bf                                   6      0.0000       0.00000       A     3.31510e-01     4.11815e-01
 c6bf                                   6      0.0000       0.00000       A     3.31449e-01     4.11690e-01
 n7bf                                   7      0.0000       0.00000       A     3.38151e-01     3.91342e-01
 n8bf                                   7      0.0000       0.00000       A     3.20440e-01     8.58154e-01
 c9bf                                   6      0.0000       0.00000       A     3.39884e-01     4.51119e-01
 n10bf                                  7      0.0000       0.00000       A     3.18162e-01     6.91270e-01
 c11bf                                  6      0.0000       0.00000       A     3.31469e-01     4.09508e-01
 o12bf                                  8      0.0000       0.00000       A     3.04459e-01     6.16836e-01
 c13bf                                  6      0.0000       0.00000       A     3.31494e-01     4.13368e-01
 c14bf                                  6      0.0000       0.00000       A     3.31479e-01     4.12962e-01
 c15bf                                  6      0.0000       0.00000       A     3.31328e-01     4.11816e-01
 c16bf                                  6      0.0000       0.00000       A     3.31571e-01     4.13358e-01
 c17bf                                  6      0.0000       0.00000       A     3.31458e-01     4.13224e-01
 c18bf                                  6      0.0000       0.00000       A     3.31557e-01     4.13813e-01
 c19bf                                  6      0.0000       0.00000       A     3.31430e-01     4.12873e-01
 n20bf                                  7      0.0000       0.00000       A     3.38413e-01     3.94987e-01
 n21bf                                  7      0.0000       0.00000       A     3.20564e-01     8.53149e-01
 c22bf                                  6      0.0000       0.00000       A     3.39827e-01     4.50277e-01
 c23bf                                  6      0.0000       0.00000       A     3.39556e-01     4.49965e-01
 c24bf                                  6      0.0000       0.00000       A     3.39525e-01     4.48462e-01
 c25bf                                  6      0.0000       0.00000       A     3.39556e-01     4.49965e-01
 o26bf                                  8      0.0000       0.00000       A     3.24075e-01     3.87891e-01
 h27bf                                  1      0.0000       0.00000       A     2.62429e-01     6.67636e-02
 h28bf                                  1      0.0000       0.00000       A     2.62471e-01     6.70892e-02
 h29bf                                  1      0.0000       0.00000       A     2.62608e-01     6.72919e-02
 h30bf                                  1      0.0000       0.00000       A     1.10602e-01     4.12983e-02
 h31bf                                  1      0.0000       0.00000       A     2.60095e-01     8.81477e-02
 h32bf                                  1      0.0000       0.00000       A     2.60095e-01     8.81477e-02
 h33bf                                  1      0.0000       0.00000       A     2.62434e-01     6.79191e-02
 h34bf                                  1      0.0000       0.00000       A     2.62520e-01     6.70780e-02
 h35bf                                  1      0.0000       0.00000       A     2.62456e-01     6.73238e-02
 h36bf                                  1      0.0000       0.00000       A     2.53922e-01     6.68561e-02
 h37bf                                  1      0.0000       0.00000       A     2.41917e-01     8.73385e-02
 h38bf                                  1      0.0000       0.00000       A     2.41917e-01     8.73385e-02
 h39bf                                  1      0.0000       0.00000       A     2.41917e-01     8.73385e-02
 h40bf                                  1      0.0000       0.00000       A     2.42364e-01     8.51998e-02
 h41bf                                  1      0.0000       0.00000       A     2.42364e-01     8.51998e-02
 h42bf                                  1      0.0000       0.00000       A     2.43067e-01     8.73321e-02
 h43bf                                  1      0.0000       0.00000       A     2.42364e-01     8.51998e-02
 h44bf                                  1      0.0000       0.00000       A     2.42364e-01     8.51982e-02
 h45bf                                  1      0.0000       0.00000       A     5.34064e-02     1.99876e-02

[ moleculetype ]
;name             nrexcl
 44                    3

[ atoms ]
;       nr            type      resi   res      atom      cgnr      charge          mass ; qtot
         1            c0bf         1   UNL        c0         1    -0.19016       12.0110 ; qtot   -0.190
         2            c1bf         1   UNL        c1         2     0.02156       12.0110 ; qtot   -0.169
         3            c2bf         1   UNL        c2         3    -0.15413       12.0110 ; qtot   -0.323
         4            c3bf         1   UNL        c3         4    -0.03939       12.0110 ; qtot   -0.362
         5            c4bf         1   UNL        c4         5     0.00053       12.0110 ; qtot   -0.362
         6            c5bf         1   UNL        c5         6    -0.23760       12.0110 ; qtot   -0.599
         7            c6bf         1   UNL        c6         7     0.36007       12.0110 ; qtot   -0.239
         8            n7bf         1   UNL        n7         8    -0.50667       14.0070 ; qtot   -0.746
         9            n8bf         1   UNL        n8         9    -0.08032       14.0070 ; qtot   -0.826
        10            c9bf         1   UNL        c9        10    -0.03805       12.0110 ; qtot   -0.864
        11           n10bf         1   UNL       n10        11    -0.39427       14.0070 ; qtot   -1.258
        12           c11bf         1   UNL       c11        12     0.60903       12.0110 ; qtot   -0.649
        13           o12bf         1   UNL       o12        13    -0.58830       15.9990 ; qtot   -1.238
        14           c13bf         1   UNL       c13        14    -0.12142       12.0110 ; qtot   -1.359
        15           c14bf         1   UNL       c14        15    -0.02647       12.0110 ; qtot   -1.386
        16           c15bf         1   UNL       c15        16    -0.24004       12.0110 ; qtot   -1.626
        17           c16bf         1   UNL       c16        17    -0.02314       12.0110 ; qtot   -1.649
        18           c17bf         1   UNL       c17        18    -0.13840       12.0110 ; qtot   -1.787
        19           c18bf         1   UNL       c18        19    -0.07001       12.0110 ; qtot   -1.857
        20           c19bf         1   UNL       c19        20     0.35977       12.0110 ; qtot   -1.497
        21           n20bf         1   UNL       n20        21    -0.51470       14.0070 ; qtot   -2.012
        22           n21bf         1   UNL       n21        22     0.05231       14.0070 ; qtot   -1.960
        23           c22bf         1   UNL       c22        23     0.07854       12.0110 ; qtot   -1.881
        24           c23bf         1   UNL       c23        24     0.06549       12.0110 ; qtot   -1.816
        25           c24bf         1   UNL       c24        25     0.12291       12.0110 ; qtot   -1.693
        26           c25bf         1   UNL       c25        26     0.06549       12.0110 ; qtot   -1.627
        27           o26bf         1   UNL       o26        27    -0.65979       15.9990 ; qtot   -2.287
        28           h27bf         1   UNL       h27        28     0.13718        1.0080 ; qtot   -2.150
        29           h28bf         1   UNL       h28        29     0.12888        1.0080 ; qtot   -2.021
        30           h29bf         1   UNL       h29        30     0.12791        1.0080 ; qtot   -1.893
        31           h30bf         1   UNL       h30        31     0.37621        1.0080 ; qtot   -1.517
        32           h31bf         1   UNL       h31        32     0.06213        1.0080 ; qtot   -1.455
        33           h32bf         1   UNL       h32        33     0.06213        1.0080 ; qtot   -1.393
        34           h33bf         1   UNL       h33        34     0.12685        1.0080 ; qtot   -1.266
        35           h34bf         1   UNL       h34        35     0.12371        1.0080 ; qtot   -1.142
        36           h35bf         1   UNL       h35        36     0.12013        1.0080 ; qtot   -1.022
        37           h36bf         1   UNL       h36        37     0.04782        1.0080 ; qtot   -0.974
        38           h37bf         1   UNL       h37        38     0.05599        1.0080 ; qtot   -0.918
        39           h38bf         1   UNL       h38        39     0.05599        1.0080 ; qtot   -0.862
        40           h39bf         1   UNL       h39        40     0.05599        1.0080 ; qtot   -0.806
        41           h40bf         1   UNL       h40        41     0.06938        1.0080 ; qtot   -0.737
        42           h41bf         1   UNL       h41        42     0.06938        1.0080 ; qtot   -0.667
        43           h42bf         1   UNL       h42        43     0.06680        1.0080 ; qtot   -0.601
        44           h43bf         1   UNL       h43        44     0.06938        1.0080 ; qtot   -0.531
        45           h44bf         1   UNL       h44        45     0.06938        1.0080 ; qtot   -0.462
        46           h45bf         1   UNL       h45        46     0.46192        1.0080 ; qtot   -0.000

[ bonds ]
;       ai        aj funct               r               k
         1         2     1        0.139357   311309.876465
         1         4     1        0.142249   259563.010254
         1        12     1        0.149653   184809.468530
         2         6     1        0.140332   306846.296191
         2        28     1        0.108520   322135.108203
         3         4     1        0.138653   345314.963623
         3         5     1        0.140635   300193.368457
         3        29     1        0.108556   321290.723682
         4        30     1        0.108493   322313.484912
         5         6     1        0.141873   251630.647803
         5         9     1        0.136842   290575.199268
         6         7     1        0.143778   232933.551025
         7         8     1        0.132648   371349.331592
         7        10     1        0.150274   213698.923633
         8         9     1        0.136401   241851.313916
         9        31     1        0.100927   434980.632227
        10        14     1        0.151997   190226.438477
        10        32     1        0.109489   294935.201025
        10        33     1        0.109489   294935.201025
        11        12     1        0.137539   268329.491309
        11        24     1        0.148098   183416.483057
        11        26     1        0.148098   183416.483057
        12        13     1        0.123482   585601.108105
        14        15     1        0.138985   315913.732080
        14        19     1        0.142105   257155.422656
        15        16     1        0.140860   300474.685254
        15        34     1        0.108645   318249.279492
        16        17     1        0.142106   247674.617578
        16        20     1        0.143093   251677.763770
        17        18     1        0.140684   297899.318848
        17        22     1        0.137036   276502.566553
        18        19     1        0.138749   339792.436035
        18        35     1        0.108555   320681.459326
        19        36     1        0.108656   317559.522168
        20        21     1        0.132641   379076.656592
        20        37     1        0.108271   330986.959814
        21        22     1        0.136411   226978.246045
        22        23     1        0.144916   228881.271436
        23        38     1        0.109267   303150.616797
        23        39     1        0.109267   303150.616797
        23        40     1        0.109267   303150.616797
        24        25     1        0.155301   162161.282959
        24        41     1        0.109342   300315.359229
        24        42     1        0.109342   300315.359229
        25        26     1        0.155301   162161.282959
        25        27     1        0.141736   227018.083936
        25        43     1        0.109526   294408.472607
        26        44     1        0.109342   300315.359229
        26        45     1        0.109342   300315.359229
        27        46     1        0.097019   470541.363477

[ angles ]
;       ai        aj        ak funct           theta             cth
         1         2         6     1      118.827896      674.192711
         1         2        28     1      119.847092      388.882613
         1         4         3     1      122.050552      626.922564
         1         4        30     1      118.422363      407.169769
         1        12        11     1      117.041992      497.474957
         1        12        13     1      122.177269      585.356514
         2         1         4     1      120.287613      654.190898
         2         1        12     1      119.574219      506.072216
         2         6         5     1      119.784508      754.697491
         2         6         7     1      135.505524      442.962932
         3         4        30     1      119.513954      404.770813
         3         5         6     1      121.840965      617.375835
         3         5         9     1      132.464661      482.201850
         4         1        12     1      120.207603      565.636885
         4         3         5     1      117.072189      766.238668
         4         3        29     1      121.230942      435.699604
         5         3        29     1      121.942848      434.269781
         5         6         7     1      104.821304      486.635571
         5         9         8     1      112.338623      425.015069
         5         9        31     1      128.734390      380.960906
         6         2        28     1      121.219933      400.169983
         6         5         9     1      105.800415      167.360000
         6         7         8     1      110.703812      353.319124
         6         7        10     1      127.819969      446.320328
         7         8         9     1      106.501038      544.543233
         7        10        14     1      113.257324      514.984604
         7        10        32     1      108.482384      513.884625
         7        10        33     1      108.482384      513.884625
         8         7        10     1      121.631851      449.366554
         8         9        31     1      118.789017      482.596877
        10        14        15     1      120.770676      447.780636
        10        14        19     1      119.654579      515.390771
        11        12        13     1      120.825882      637.696607
        11        24        25     1       88.774185      646.131131
        11        24        41     1      113.678696      403.269901
        11        24        42     1      113.678696      403.269901
        11        26        25     1       88.774185      646.131131
        11        26        44     1      113.678696      403.269933
        11        26        45     1      113.678696      403.269933
        12        11        24     1      125.626076      420.552523
        12        11        26     1      125.626076      420.552523
        14        10        32     1      109.738464      491.211662
        14        10        33     1      109.738464      491.211662
        14        15        16     1      119.124245      690.083433
        14        15        34     1      120.385292      379.597543
        14        19        18     1      122.351158      638.178428
        14        19        36     1      118.692238      398.132984
        15        14        19     1      119.857811      675.831300
        15        16        17     1      119.673256      745.940114
        15        16        20     1      136.228241      467.982532
        16        15        34     1      120.733803      405.996179
        16        17        18     1      121.680832      628.233703
        16        17        22     1      106.429855      167.360000
        16        20        21     1      111.200684      374.093019
        16        20        37     1      129.112213      351.438603
        17        16        20     1      104.156937      405.356921
        17        18        19     1      117.142593      781.145637
        17        18        35     1      121.966003      423.035656
        17        22        21     1      111.620140      448.620807
        17        22        23     1      127.753769      475.761359
        18        17        22     1      131.870255      459.750869
        18        19        36     1      119.160912      418.881183
        19        18        35     1      121.033043      426.416162
        20        21        22     1      106.528038      506.624009
        21        20        37     1      119.544449      397.727263
        21        22        23     1      120.299301      539.922485
        22        23        38     1      109.812828      469.144215
        22        23        39     1      109.812828      469.144215
        22        23        40     1      109.812828      469.144215
        24        11        26     1       93.682518      495.085386
        24        25        26     1       88.374222      554.943859
        24        25        27     1      114.953430      575.399339
        24        25        43     1      113.742325      405.653631
        25        24        41     1      114.892868      419.722375
        25        24        42     1      114.892868      419.722375
        25        26        44     1      114.892868      419.722375
        25        26        45     1      114.892868      419.722375
        25        27        46     1      108.394142      590.572596
        26        25        27     1      114.953430      575.399403
        26        25        43     1      113.742325      405.653599
        27        25        43     1      109.898071      445.621282
        32        10        33     1      106.946144      364.204732
        38        23        39     1      109.288673      350.199638
        38        23        40     1      109.288673      350.199638
        39        23        40     1      109.288673      350.199638
        41        24        42     1      109.787033      345.501608
        44        26        45     1      109.787033      345.501608

[ dihedrals ] ; propers for gromacs 4.5 or higher, use funct 9
;       ai        aj        ak        al funct           phase               k        pn
         1         2         6         5     9        0.000000       -0.084436         1
         1         2         6         5     9      180.000000       19.068807         2
         1         2         6         5     9        0.000000       -2.419288         3
         1         2         6         5     9      180.000000       -0.470411         4
         1         2         6         7     9        0.000000       -0.578541         1
         1         2         6         7     9      180.000000       13.403319         2
         1         2         6         7     9        0.000000       -0.957627         3
         1         2         6         7     9      180.000000       -0.227049         4
         1         4         3         5     9        0.000000       -0.218081         1
         1         4         3         5     9      180.000000       21.877859         2
         1         4         3         5     9        0.000000       -1.551413         3
         1         4         3         5     9      180.000000       -0.631483         4
         1         4         3        29     9        0.000000        0.117095         1
         1         4         3        29     9      180.000000       14.733774         2
         1         4         3        29     9        0.000000       -0.499614         3
         1         4         3        29     9      180.000000        0.119286         4
         1        12        11        24     9        0.000000        2.263713         1
         1        12        11        24     9      180.000000       15.156734         2
         1        12        11        24     9        0.000000        3.605687         3
         1        12        11        24     9      180.000000       -2.012609         4
         1        12        11        26     9        0.000000        2.263713         1
         1        12        11        26     9      180.000000       15.156732         2
         1        12        11        26     9        0.000000        3.605687         3
         1        12        11        26     9      180.000000       -2.012609         4
         2         1         4         3     9        0.000000        0.115652         1
         2         1         4         3     9      180.000000       17.007258         2
         2         1         4         3     9        0.000000       -1.155248         3
         2         1         4         3     9      180.000000       -0.307939         4
         2         1         4        30     9        0.000000        0.146013         1
         2         1         4        30     9      180.000000       12.423433         2
         2         1         4        30     9        0.000000       -0.592569         3
         2         1         4        30     9      180.000000        0.106716         4
         2         1        12        11     9        0.000000       -0.262986         1
         2         1        12        11     9      180.000000        4.747359         2
         2         1        12        11     9        0.000000       -0.182194         3
         2         1        12        11     9      180.000000        0.289501         4
         2         1        12        13     9        0.000000        0.949259         1
         2         1        12        13     9      180.000000        2.817206         2
         2         1        12        13     9        0.000000        0.134335         3
         2         1        12        13     9      180.000000        0.098216         4
         2         6         5         3     9        0.000000       -0.195762         1
         2         6         5         3     9      180.000000       10.749530         2
         2         6         5         3     9        0.000000       -1.572919         3
         2         6         5         3     9      180.000000       -0.082469         4
         2         6         5         9     9        0.000000        0.274159         1
         2         6         5         9     9      180.000000        9.238163         2
         2         6         5         9     9        0.000000       -1.953803         3
         2         6         5         9     9      180.000000        0.148151         4
         2         6         7         8     9        0.000000       -0.209309         1
         2         6         7         8     9      180.000000        4.085668         2
         2         6         7         8     9        0.000000       -0.840227         3
         2         6         7         8     9      180.000000        0.056637         4
         2         6         7        10     9        0.000000       -0.343262         1
         2         6         7        10     9      180.000000        4.361152         2
         2         6         7        10     9        0.000000        0.256433         3
         2         6         7        10     9      180.000000        0.059964         4
         3         4         1        12     9        0.000000        0.113611         1
         3         4         1        12     9      180.000000       13.305000         2
         3         4         1        12     9        0.000000       -0.132197         3
         3         4         1        12     9      180.000000       -0.321351         4
         3         5         6         7     9        0.000000        0.013838         1
         3         5         6         7     9      180.000000       11.373789         2
         3         5         6         7     9        0.000000       -2.395035         3
         3         5         6         7     9      180.000000       -0.032859         4
         3         5         9         8     9        0.000000        1.391886         1
         3         5         9         8     9      180.000000        5.500433         2
         3         5         9         8     9        0.000000        0.460508         3
         3         5         9         8     9      180.000000       -0.031759         4
         3         5         9        31     9        0.000000       -0.155130         1
         3         5         9        31     9      180.000000        1.489668         2
         3         5         9        31     9        0.000000        0.111269         3
         3         5         9        31     9      180.000000       -0.115684         4
         4         1         2         6     9        0.000000       -0.048396         1
         4         1         2         6     9      180.000000       20.809983         2
         4         1         2         6     9        0.000000       -1.418066         3
         4         1         2         6     9      180.000000       -0.624534         4
         4         1         2        28     9        0.000000        0.121159         1
         4         1         2        28     9      180.000000       14.290878         2
         4         1         2        28     9        0.000000       -0.423232         3
         4         1         2        28     9      180.000000       -0.012774         4
         4         1        12        11     9        0.000000       -0.067153         1
         4         1        12        11     9      180.000000        4.952062         2
         4         1        12        11     9        0.000000       -0.113066         3
         4         1        12        11     9      180.000000        0.301336         4
         4         1        12        13     9        0.000000       -0.136499         1
         4         1        12        13     9      180.000000        2.987094         2
         4         1        12        13     9        0.000000        0.059713         3
         4         1        12        13     9      180.000000        0.113905         4
         4         3         5         6     9        0.000000       -0.196973         1
         4         3         5         6     9      180.000000       16.821023         2
         4         3         5         6     9        0.000000       -1.839915         3
         4         3         5         6     9      180.000000       -0.310841         4
         4         3         5         9     9        0.000000        0.221937         1
         4         3         5         9     9      180.000000       13.228857         2
         4         3         5         9     9        0.000000       -0.056407         3
         4         3         5         9     9      180.000000       -0.094443         4
         5         3         4        30     9        0.000000        0.123305         1
         5         3         4        30     9      180.000000       16.883736         2
         5         3         4        30     9        0.000000       -0.538778         3
         5         3         4        30     9      180.000000       -0.056855         4
         5         6         2        28     9        0.000000        0.310052         1
         5         6         2        28     9      180.000000       14.131912         2
         5         6         2        28     9        0.000000       -0.275931         3
         5         6         2        28     9      180.000000       -0.176272         4
         5         6         7         8     9        0.000000       -0.159034         1
         5         6         7         8     9      180.000000       30.942001         2
         5         6         7         8     9        0.000000       -9.483940         3
         5         6         7         8     9      180.000000       -0.194560         4
         5         6         7        10     9        0.000000        0.902282         1
         5         6         7        10     9      180.000000       14.549289         2
         5         6         7        10     9        0.000000        0.080426         3
         5         6         7        10     9      180.000000       -0.589593         4
         5         9         8         7     9        0.000000       -0.212417         1
         5         9         8         7     9      180.000000       17.202000         2
         5         9         8         7     9        0.000000       -2.172826         3
         5         9         8         7     9      180.000000       -1.162576         4
         6         2         1        12     9        0.000000        0.033482         1
         6         2         1        12     9      180.000000       16.813850         2
         6         2         1        12     9        0.000000       -0.149984         3
         6         2         1        12     9      180.000000       -0.619633         4
         6         5         3        29     9        0.000000        0.118704         1
         6         5         3        29     9      180.000000       11.302316         2
         6         5         3        29     9        0.000000       -0.309522         3
         6         5         3        29     9      180.000000        0.009496         4
         6         5         9         8     9        0.000000        0.393208         1
         6         5         9         8     9      180.000000       24.565269         2
         6         5         9         8     9        0.000000       -5.044677         3
         6         5         9         8     9      180.000000       -1.045598         4
         6         5         9        31     9        0.000000        0.311195         1
         6         5         9        31     9      180.000000        1.569059         2
         6         5         9        31     9        0.000000        0.500088         3
         6         5         9        31     9      180.000000        0.027770         4
         6         7         8         9     9        0.000000       -0.261319         1
         6         7         8         9     9      180.000000       41.380156         2
         6         7         8         9     9        0.000000       -4.753235         3
         6         7         8         9     9      180.000000       -0.128667         4
         6         7        10        14     9        0.000000        0.300260         1
         6         7        10        14     9      180.000000       -0.357736         2
         6         7        10        14     9        0.000000        0.618164         3
         6         7        10        14     9      180.000000        0.012906         4
         6         7        10        32     9        0.000000       -0.070234         1
         6         7        10        32     9      180.000000        0.146127         2
         6         7        10        32     9        0.000000        0.522981         3
         6         7        10        32     9      180.000000        0.015674         4
         6         7        10        33     9        0.000000       -0.070234         1
         6         7        10        33     9      180.000000        0.146127         2
         6         7        10        33     9        0.000000        0.522981         3
         6         7        10        33     9      180.000000        0.015674         4
         7         6         2        28     9        0.000000       -0.131642         1
         7         6         2        28     9      180.000000        9.453311         2
         7         6         2        28     9        0.000000        0.078368         3
         7         6         2        28     9      180.000000        0.066842         4
         7         6         5         9     9        0.000000        0.188179         1
         7         6         5         9     9      180.000000       17.395055         2
         7         6         5         9     9        0.000000       -6.333516         3
         7         6         5         9     9      180.000000       -0.227370         4
         7         8         9        31     9        0.000000        2.361158         1
         7         8         9        31     9      180.000000        2.980257         2
         7         8         9        31     9        0.000000        0.434237         3
         7         8         9        31     9      180.000000        0.025133         4
         7        10        14        15     9        0.000000       -0.041230         1
         7        10        14        15     9      180.000000        0.067239         2
         7        10        14        15     9        0.000000       -0.153176         3
         7        10        14        15     9      180.000000        0.064302         4
         7        10        14        19     9        0.000000       -0.099781         1
         7        10        14        19     9      180.000000        0.037192         2
         7        10        14        19     9        0.000000        0.227242         3
         7        10        14        19     9      180.000000        0.016814         4
         8         7        10        14     9        0.000000       -1.261962         1
         8         7        10        14     9      180.000000       -0.168968         2
         8         7        10        14     9        0.000000        0.041303         3
         8         7        10        14     9      180.000000        0.010698         4
         8         7        10        32     9        0.000000        0.223715         1
         8         7        10        32     9      180.000000        0.093023         2
         8         7        10        32     9        0.000000       -0.189378         3
         8         7        10        32     9      180.000000        0.040775         4
         8         7        10        33     9        0.000000        0.223715         1
         8         7        10        33     9      180.000000        0.093023         2
         8         7        10        33     9        0.000000       -0.189378         3
         8         7        10        33     9      180.000000        0.040775         4
         9         5         3        29     9        0.000000       -0.105227         1
         9         5         3        29     9      180.000000        9.618129         2
         9         5         3        29     9        0.000000       -0.061985         3
         9         5         3        29     9      180.000000        0.052739         4
         9         8         7        10     9        0.000000        0.476446         1
         9         8         7        10     9      180.000000       32.353064         2
         9         8         7        10     9        0.000000        0.815797         3
         9         8         7        10     9      180.000000       -0.851938         4
        10        14        15        16     9        0.000000        0.009257         1
        10        14        15        16     9      180.000000       18.674644         2
        10        14        15        16     9        0.000000       -0.120348         3
        10        14        15        16     9      180.000000       -0.670552         4
        10        14        15        34     9        0.000000       -0.055554         1
        10        14        15        34     9      180.000000       13.186443         2
        10        14        15        34     9        0.000000       -0.327489         3
        10        14        15        34     9      180.000000        0.127685         4
        10        14        19        18     9        0.000000        0.041301         1
        10        14        19        18     9      180.000000       14.360254         2
        10        14        19        18     9        0.000000       -0.129779         3
        10        14        19        18     9      180.000000       -0.172532         4
        10        14        19        36     9        0.000000       -0.054024         1
        10        14        19        36     9      180.000000       12.258338         2
        10        14        19        36     9        0.000000       -0.375148         3
        10        14        19        36     9      180.000000        0.148638         4
        11        24        25        26     9        0.000000       -0.774773         1
        11        24        25        26     9      180.000000       16.184544         2
        11        24        25        26     9        0.000000       -1.338816         3
        11        24        25        26     9      180.000000        0.344654         4
        11        24        25        27     9        0.000000        0.207681         1
        11        24        25        27     9      180.000000        1.909362         2
        11        24        25        27     9        0.000000        1.107160         3
        11        24        25        27     9      180.000000        1.974255         4
        11        24        25        43     9        0.000000        0.508609         1
        11        24        25        43     9      180.000000        1.671033         2
        11        24        25        43     9        0.000000        0.519601         3
        11        24        25        43     9      180.000000        1.352671         4
        11        26        25        24     9        0.000000       -0.774773         1
        11        26        25        24     9      180.000000       16.184544         2
        11        26        25        24     9        0.000000       -1.338817         3
        11        26        25        24     9      180.000000        0.344655         4
        11        26        25        27     9        0.000000        0.207680         1
        11        26        25        27     9      180.000000        1.909363         2
        11        26        25        27     9        0.000000        1.107160         3
        11        26        25        27     9      180.000000        1.974255         4
        11        26        25        43     9        0.000000        0.508609         1
        11        26        25        43     9      180.000000        1.671033         2
        11        26        25        43     9        0.000000        0.519601         3
        11        26        25        43     9      180.000000        1.352671         4
        12         1         2        28     9        0.000000        0.080732         1
        12         1         2        28     9      180.000000       12.541280         2
        12         1         2        28     9        0.000000       -0.289233         3
        12         1         2        28     9      180.000000        0.008551         4
        12         1         4        30     9        0.000000        0.059680         1
        12         1         4        30     9      180.000000       11.663992         2
        12         1         4        30     9        0.000000       -0.328066         3
        12         1         4        30     9      180.000000        0.025269         4
        12        11        24        25     9        0.000000        0.467418         1
        12        11        24        25     9      180.000000        0.242755         2
        12        11        24        25     9        0.000000       -0.046500         3
        12        11        24        25     9      180.000000       -0.898639         4
        12        11        24        41     9        0.000000       -0.079977         1
        12        11        24        41     9      180.000000        0.092567         2
        12        11        24        41     9        0.000000        0.243032         3
        12        11        24        41     9      180.000000        0.036811         4
        12        11        24        42     9        0.000000       -0.079977         1
        12        11        24        42     9      180.000000        0.092567         2
        12        11        24        42     9        0.000000        0.243032         3
        12        11        24        42     9      180.000000        0.036811         4
        12        11        26        25     9        0.000000        0.467417         1
        12        11        26        25     9      180.000000        0.242755         2
        12        11        26        25     9        0.000000       -0.046501         3
        12        11        26        25     9      180.000000       -0.898639         4
        12        11        26        44     9        0.000000       -0.079977         1
        12        11        26        44     9      180.000000        0.092567         2
        12        11        26        44     9        0.000000        0.243031         3
        12        11        26        44     9      180.000000        0.036811         4
        12        11        26        45     9        0.000000       -0.079977         1
        12        11        26        45     9      180.000000        0.092567         2
        12        11        26        45     9        0.000000        0.243031         3
        12        11        26        45     9      180.000000        0.036811         4
        13        12        11        24     9        0.000000        0.047087         1
        13        12        11        24     9      180.000000       11.221339         2
        13        12        11        24     9        0.000000       -0.135303         3
        13        12        11        24     9      180.000000       -0.502334         4
        13        12        11        26     9        0.000000        0.047086         1
        13        12        11        26     9      180.000000       11.221339         2
        13        12        11        26     9        0.000000       -0.135302         3
        13        12        11        26     9      180.000000       -0.502334         4
        14        15        16        17     9        0.000000       -0.078803         1
        14        15        16        17     9      180.000000       18.898255         2
        14        15        16        17     9        0.000000       -1.972406         3
        14        15        16        17     9      180.000000       -0.480351         4
        14        15        16        20     9        0.000000       -0.170164         1
        14        15        16        20     9      180.000000       11.866871         2
        14        15        16        20     9        0.000000       -0.652506         3
        14        15        16        20     9      180.000000       -0.093021         4
        14        19        18        17     9        0.000000        0.033895         1
        14        19        18        17     9      180.000000       21.816384         2
        14        19        18        17     9        0.000000       -1.543464         3
        14        19        18        17     9      180.000000       -0.527859         4
        14        19        18        35     9        0.000000        0.042383         1
        14        19        18        35     9      180.000000       15.365326         2
        14        19        18        35     9        0.000000       -0.513372         3
        14        19        18        35     9      180.000000        0.030415         4
        15        14        10        32     9        0.000000        0.000215         1
        15        14        10        32     9      180.000000        0.010257         2
        15        14        10        32     9        0.000000       -0.173531         3
        15        14        10        32     9      180.000000       -0.005921         4
        15        14        10        33     9        0.000000        0.000215         1
        15        14        10        33     9      180.000000        0.010257         2
        15        14        10        33     9        0.000000       -0.173531         3
        15        14        10        33     9      180.000000       -0.005921         4
        15        14        19        18     9        0.000000       -0.058867         1
        15        14        19        18     9      180.000000       17.386450         2
        15        14        19        18     9        0.000000       -1.187962         3
        15        14        19        18     9      180.000000       -0.362341         4
        15        14        19        36     9        0.000000        0.110685         1
        15        14        19        36     9      180.000000       13.351948         2
        15        14        19        36     9        0.000000       -0.633175         3
        15        14        19        36     9      180.000000        0.063514         4
        15        16        17        18     9        0.000000       -0.018008         1
        15        16        17        18     9      180.000000       10.863879         2
        15        16        17        18     9        0.000000       -1.423270         3
        15        16        17        18     9      180.000000       -0.061566         4
        15        16        17        22     9        0.000000        0.334963         1
        15        16        17        22     9      180.000000       10.266971         2
        15        16        17        22     9        0.000000       -2.541748         3
        15        16        17        22     9      180.000000        0.093714         4
        15        16        20        21     9        0.000000        0.245816         1
        15        16        20        21     9      180.000000        4.612387         2
        15        16        20        21     9        0.000000       -0.489836         3
        15        16        20        21     9      180.000000        0.041425         4
        15        16        20        37     9        0.000000       -0.462277         1
        15        16        20        37     9      180.000000        4.704010         2
        15        16        20        37     9        0.000000        0.076634         3
        15        16        20        37     9      180.000000        0.101219         4
        16        15        14        19     9        0.000000       -0.065722         1
        16        15        14        19     9      180.000000       21.557267         2
        16        15        14        19     9        0.000000       -1.402324         3
        16        15        14        19     9      180.000000       -0.641113         4
        16        17        18        19     9        0.000000       -0.188055         1
        16        17        18        19     9      180.000000       17.214779         2
        16        17        18        19     9        0.000000       -1.939364         3
        16        17        18        19     9      180.000000       -0.295283         4
        16        17        18        35     9        0.000000        0.112343         1
        16        17        18        35     9      180.000000       11.517716         2
        16        17        18        35     9        0.000000       -0.192778         3
        16        17        18        35     9      180.000000       -0.040450         4
        16        17        22        21     9        0.000000       -0.084196         1
        16        17        22        21     9      180.000000       25.294062         2
        16        17        22        21     9        0.000000       -6.105160         3
        16        17        22        21     9      180.000000       -0.410272         4
        16        17        22        23     9        0.000000        0.278065         1
        16        17        22        23     9      180.000000        3.350612         2
        16        17        22        23     9        0.000000        0.761433         3
        16        17        22        23     9      180.000000        0.095819         4
        16        20        21        22     9        0.000000       -0.280634         1
        16        20        21        22     9      180.000000       41.455998         2
        16        20        21        22     9        0.000000       -5.327205         3
        16        20        21        22     9      180.000000       -0.203315         4
        17        16        15        34     9        0.000000        0.423329         1
        17        16        15        34     9      180.000000       13.268964         2
        17        16        15        34     9        0.000000       -0.163073         3
        17        16        15        34     9      180.000000       -0.109450         4
        17        16        20        21     9        0.000000       -0.103930         1
        17        16        20        21     9      180.000000       30.729596         2
        17        16        20        21     9        0.000000       -9.652096         3
        17        16        20        21     9      180.000000       -0.336765         4
        17        16        20        37     9        0.000000        0.934169         1
        17        16        20        37     9      180.000000       12.774197         2
        17        16        20        37     9        0.000000        0.452474         3
        17        16        20        37     9      180.000000       -0.324343         4
        17        18        19        36     9        0.000000        0.075035         1
        17        18        19        36     9      180.000000       17.271072         2
        17        18        19        36     9        0.000000       -0.368368         3
        17        18        19        36     9      180.000000       -0.132390         4
        17        22        21        20     9        0.000000       -0.561708         1
        17        22        21        20     9      180.000000       22.826383         2
        17        22        21        20     9        0.000000       -3.369753         3
        17        22        21        20     9      180.000000       -0.422870         4
        17        22        23        38     9        0.000000        0.014913         1
        17        22        23        38     9      180.000000        0.019881         2
        17        22        23        38     9        0.000000        0.542826         3
        17        22        23        38     9      180.000000       -0.005520         4
        17        22        23        39     9        0.000000        0.014913         1
        17        22        23        39     9      180.000000        0.019881         2
        17        22        23        39     9        0.000000        0.542826         3
        17        22        23        39     9      180.000000       -0.005520         4
        17        22        23        40     9        0.000000        0.014913         1
        17        22        23        40     9      180.000000        0.019881         2
        17        22        23        40     9        0.000000        0.542826         3
        17        22        23        40     9      180.000000       -0.005520         4
        18        17        16        20     9        0.000000        0.000872         1
        18        17        16        20     9      180.000000        9.880126         2
        18        17        16        20     9        0.000000       -2.020836         3
        18        17        16        20     9      180.000000        0.107998         4
        18        17        22        21     9        0.000000        1.125086         1
        18        17        22        21     9      180.000000        4.562914         2
        18        17        22        21     9        0.000000        0.638073         3
        18        17        22        21     9      180.000000       -0.010920         4
        18        17        22        23     9        0.000000       -0.152729         1
        18        17        22        23     9      180.000000        2.288042         2
        18        17        22        23     9        0.000000        0.087417         3
        18        17        22        23     9      180.000000       -0.011101         4
        19        14        10        32     9        0.000000        0.002170         1
        19        14        10        32     9      180.000000       -0.010324         2
        19        14        10        32     9        0.000000        0.129496         3
        19        14        10        32     9      180.000000        0.006624         4
        19        14        10        33     9        0.000000        0.002170         1
        19        14        10        33     9      180.000000       -0.010324         2
        19        14        10        33     9        0.000000        0.129496         3
        19        14        10        33     9      180.000000        0.006624         4
        19        14        15        34     9        0.000000        0.121884         1
        19        14        15        34     9      180.000000       15.132209         2
        19        14        15        34     9        0.000000       -0.407556         3
        19        14        15        34     9      180.000000       -0.044660         4
        19        18        17        22     9        0.000000        0.338603         1
        19        18        17        22     9      180.000000       13.036899         2
        19        18        17        22     9        0.000000       -0.207218         3
        19        18        17        22     9      180.000000       -0.199472         4
        20        16        15        34     9        0.000000       -0.002975         1
        20        16        15        34     9      180.000000        9.255177         2
        20        16        15        34     9        0.000000        0.038231         3
        20        16        15        34     9      180.000000        0.064808         4
        20        16        17        22     9        0.000000        0.227491         1
        20        16        17        22     9      180.000000       17.510110         2
        20        16        17        22     9        0.000000       -6.848148         3
        20        16        17        22     9      180.000000       -0.205011         4
        20        21        22        23     9        0.000000        1.087049         1
        20        21        22        23     9      180.000000        7.030249         2
        20        21        22        23     9        0.000000        0.652683         3
        20        21        22        23     9      180.000000        0.046221         4
        21        22        23        38     9        0.000000       -0.006792         1
        21        22        23        38     9      180.000000       -0.008435         2
        21        22        23        38     9        0.000000        0.359852         3
        21        22        23        38     9      180.000000        0.009143         4
        21        22        23        39     9        0.000000       -0.006792         1
        21        22        23        39     9      180.000000       -0.008435         2
        21        22        23        39     9        0.000000        0.359852         3
        21        22        23        39     9      180.000000        0.009143         4
        21        22        23        40     9        0.000000       -0.006792         1
        21        22        23        40     9      180.000000       -0.008435         2
        21        22        23        40     9        0.000000        0.359852         3
        21        22        23        40     9      180.000000        0.009143         4
        22        17        18        35     9        0.000000       -0.167821         1
        22        17        18        35     9      180.000000        9.429548         2
        22        17        18        35     9        0.000000       -0.040251         3
        22        17        18        35     9      180.000000        0.108171         4
        22        21        20        37     9        0.000000        1.583699         1
        22        21        20        37     9      180.000000       27.754742         2
        22        21        20        37     9        0.000000        0.409579         3
        22        21        20        37     9      180.000000       -0.110624         4
        24        11        26        25     9        0.000000       -0.774259         1
        24        11        26        25     9      180.000000       17.593889         2
        24        11        26        25     9        0.000000       -1.362105         3
        24        11        26        25     9      180.000000       -2.360486         4
        24        11        26        44     9        0.000000        0.054115         1
        24        11        26        44     9      180.000000       -0.323826         2
        24        11        26        44     9        0.000000       -0.015533         3
        24        11        26        44     9      180.000000        0.305391         4
        24        11        26        45     9        0.000000        0.054115         1
        24        11        26        45     9      180.000000       -0.323826         2
        24        11        26        45     9        0.000000       -0.015533         3
        24        11        26        45     9      180.000000        0.305391         4
        24        25        26        44     9        0.000000        0.228942         1
        24        25        26        44     9      180.000000       -0.311570         2
        24        25        26        44     9        0.000000        0.081596         3
        24        25        26        44     9      180.000000        0.503351         4
        24        25        26        45     9        0.000000        0.228942         1
        24        25        26        45     9      180.000000       -0.311570         2
        24        25        26        45     9        0.000000        0.081596         3
        24        25        26        45     9      180.000000        0.503351         4
        24        25        27        46     9        0.000000        2.365360         1
        24        25        27        46     9      180.000000       -2.250467         2
        24        25        27        46     9        0.000000        0.640412         3
        24        25        27        46     9      180.000000        0.125496         4
        25        24        11        26     9        0.000000       -0.774258         1
        25        24        11        26     9      180.000000       17.593891         2
        25        24        11        26     9        0.000000       -1.362105         3
        25        24        11        26     9      180.000000       -2.360486         4
        26        11        24        41     9        0.000000        0.054115         1
        26        11        24        41     9      180.000000       -0.323824         2
        26        11        24        41     9        0.000000       -0.015533         3
        26        11        24        41     9      180.000000        0.305391         4
        26        11        24        42     9        0.000000        0.054115         1
        26        11        24        42     9      180.000000       -0.323824         2
        26        11        24        42     9        0.000000       -0.015533         3
        26        11        24        42     9      180.000000        0.305391         4
        26        25        24        41     9        0.000000        0.228942         1
        26        25        24        41     9      180.000000       -0.311571         2
        26        25        24        41     9        0.000000        0.081596         3
        26        25        24        41     9      180.000000        0.503350         4
        26        25        24        42     9        0.000000        0.228942         1
        26        25        24        42     9      180.000000       -0.311571         2
        26        25        24        42     9        0.000000        0.081596         3
        26        25        24        42     9      180.000000        0.503350         4
        26        25        27        46     9        0.000000        2.365359         1
        26        25        27        46     9      180.000000       -2.250467         2
        26        25        27        46     9        0.000000        0.640412         3
        26        25        27        46     9      180.000000        0.125496         4
        27        25        24        41     9        0.000000        0.445825         1
        27        25        24        41     9      180.000000       -1.082070         2
        27        25        24        41     9        0.000000        1.630696         3
        27        25        24        41     9      180.000000       -0.034333         4
        27        25        24        42     9        0.000000        0.445825         1
        27        25        24        42     9      180.000000       -1.082070         2
        27        25        24        42     9        0.000000        1.630696         3
        27        25        24        42     9      180.000000       -0.034333         4
        27        25        26        44     9        0.000000        0.445826         1
        27        25        26        44     9      180.000000       -1.082071         2
        27        25        26        44     9        0.000000        1.630695         3
        27        25        26        44     9      180.000000       -0.034333         4
        27        25        26        45     9        0.000000        0.445826         1
        27        25        26        45     9      180.000000       -1.082071         2
        27        25        26        45     9        0.000000        1.630695         3
        27        25        26        45     9      180.000000       -0.034333         4
        29         3         4        30     9        0.000000       -0.078678         1
        29         3         4        30     9      180.000000       12.576921         2
        29         3         4        30     9        0.000000       -0.684070         3
        29         3         4        30     9      180.000000        0.292368         4
        35        18        19        36     9        0.000000       -0.092820         1
        35        18        19        36     9      180.000000       12.773764         2
        35        18        19        36     9        0.000000       -0.678611         3
        35        18        19        36     9      180.000000        0.307461         4
        41        24        25        43     9        0.000000       -0.283759         1
        41        24        25        43     9      180.000000       -0.107311         2
        41        24        25        43     9        0.000000        0.927302         3
        41        24        25        43     9      180.000000       -0.115201         4
        42        24        25        43     9        0.000000       -0.283759         1
        42        24        25        43     9      180.000000       -0.107311         2
        42        24        25        43     9        0.000000        0.927302         3
        42        24        25        43     9      180.000000       -0.115201         4
        43        25        26        44     9        0.000000       -0.283759         1
        43        25        26        44     9      180.000000       -0.107311         2
        43        25        26        44     9        0.000000        0.927302         3
        43        25        26        44     9      180.000000       -0.115201         4
        43        25        26        45     9        0.000000       -0.283759         1
        43        25        26        45     9      180.000000       -0.107311         2
        43        25        26        45     9        0.000000        0.927302         3
        43        25        26        45     9      180.000000       -0.115201         4
        43        25        27        46     9        0.000000        1.407703         1
        43        25        27        46     9      180.000000       -1.403352         2
        43        25        27        46     9        0.000000        0.733567         3
        43        25        27        46     9      180.000000        0.220799         4

[ dihedrals ] ; impropers
;       ai        aj        ak        al funct           phase               k        pn
         2         1         6        28     4      180.000000        1.781806         2
         2         6        28         1     4      180.000000        1.781806         2
         2        28         1         6     4      180.000000        1.781806         2
        12         1        11        13     4      180.000000       23.883361         2
        12        11        13         1     4      180.000000       23.883361         2
        12        13         1        11     4      180.000000       23.883361         2
        15        14        16        34     4      180.000000        4.601587         2
        15        16        34        14     4      180.000000        4.601587         2
        15        34        14        16     4      180.000000        4.601587         2
        18        17        19        35     4      180.000000        2.152422         2
        18        19        35        17     4      180.000000        2.152422         2
        18        35        17        19     4      180.000000        2.152422         2
        19        14        18        36     4      180.000000        1.055853         2
        19        18        36        14     4      180.000000        1.055853         2
        19        36        14        18     4      180.000000        1.055853         2

[ pairs ]
;       ai        aj funct
         1         5     1
         1         7     1
         1        24     1
         1        26     1
         1        29     1
         2         3     1
         2         8     1
         2         9     1
         2        10     1
         2        11     1
         2        13     1
         2        30     1
         3         7     1
         3         8     1
         3        12     1
         3        31     1
         4         6     1
         4         9     1
         4        11     1
         4        13     1
         4        28     1
         5        10     1
         5        28     1
         5        30     1
         6        12     1
         6        14     1
         6        29     1
         6        31     1
         6        32     1
         6        33     1
         7        15     1
         7        19     1
         7        28     1
         7        31     1
         8        14     1
         8        32     1
         8        33     1
         9        10     1
         9        29     1
        10        16     1
        10        18     1
        10        34     1
        10        36     1
        11        27     1
        11        43     1
        12        25     1
        12        28     1
        12        30     1
        12        41     1
        12        42     1
        12        44     1
        12        45     1
        13        24     1
        13        26     1
        14        17     1
        14        20     1
        14        35     1
        15        18     1
        15        21     1
        15        22     1
        15        32     1
        15        33     1
        15        36     1
        15        37     1
        16        19     1
        16        23     1
        16        35     1
        17        34     1
        17        36     1
        17        37     1
        17        38     1
        17        39     1
        17        40     1
        18        20     1
        18        21     1
        18        23     1
        19        22     1
        19        32     1
        19        33     1
        19        34     1
        20        23     1
        20        34     1
        21        38     1
        21        39     1
        21        40     1
        22        35     1
        22        37     1
        24        44     1
        24        45     1
        24        46     1
        26        41     1
        26        42     1
        26        46     1
        27        41     1
        27        42     1
        27        44     1
        27        45     1
        29        30     1
        35        36     1
        41        43     1
        42        43     1
        43        44     1
        43        45     1
        43        46     1
