; ITP file created by ByteFF-joint-25, 2025-07-14 11:27:21.006663

[ atomtypes ]
;name           bonded.type        at.num        mass        charge   ptype           sigma         epsilon
 c0bf                                   6      0.0000       0.00000       A     3.31497e-01     4.13733e-01    ;  uncertainty sigma = 0.000014, epsilon = 0.000997
 c1bf                                   6      0.0000       0.00000       A     3.31530e-01     4.13120e-01    ;  uncertainty sigma = 0.000007, epsilon = 0.000684
 c2bf                                   6      0.0000       0.00000       A     3.31520e-01     4.13206e-01    ;  uncertainty sigma = 0.000006, epsilon = 0.000557
 c3bf                                   6      0.0000       0.00000       A     3.31524e-01     4.13536e-01    ;  uncertainty sigma = 0.000005, epsilon = 0.000497
 c4bf                                   6      0.0000       0.00000       A     3.31525e-01     4.13842e-01    ;  uncertainty sigma = 0.000005, epsilon = 0.000828
 n5bf                                   7      0.0000       0.00000       A     3.38411e-01     3.93697e-01    ;  uncertainty sigma = 0.000020, epsilon = 0.000913
 c6bf                                   6      0.0000       0.00000       A     3.31535e-01     4.13044e-01    ;  uncertainty sigma = 0.000015, epsilon = 0.001003
 n7bf                                   7      0.0000       0.00000       A     3.38419e-01     3.94073e-01    ;  uncertainty sigma = 0.000013, epsilon = 0.000679
 n8bf                                   7      0.0000       0.00000       A     3.20619e-01     8.54611e-01    ;  uncertainty sigma = 0.000016, epsilon = 0.001880
 h9bf                                   1      0.0000       0.00000       A     2.62561e-01     6.69291e-02    ;  uncertainty sigma = 0.000021, epsilon = 0.000422
 h10bf                                  1      0.0000       0.00000       A     2.62570e-01     6.69395e-02    ;  uncertainty sigma = 0.000016, epsilon = 0.000481
 h11bf                                  1      0.0000       0.00000       A     1.10684e-01     4.13486e-02    ;  uncertainty sigma = 0.000124, epsilon = 0.000806
 h12bf                                  1      0.0000       0.00000       A     2.62560e-01     6.70745e-02    ;  uncertainty sigma = 0.000011, epsilon = 0.000661
 f13bf                                  9      0.0000       0.00000       A     3.03422e-01     3.47876e-01    ;  uncertainty sigma = 0.000009, epsilon = 0.001355
 c14bf                                  6      0.0000       0.00000       A     3.39782e-01     4.50140e-01    ;  uncertainty sigma = 0.000005, epsilon = 0.001489
 f15bf                                  9      0.0000       0.00000       A     3.03422e-01     3.47876e-01    ;  uncertainty sigma = 0.000009, epsilon = 0.001355
 f16bf                                  9      0.0000       0.00000       A     3.03422e-01     3.47876e-01    ;  uncertainty sigma = 0.000009, epsilon = 0.001355
 c17bf                                  6      0.0000       0.00000       A     3.31480e-01     4.13032e-01    ;  uncertainty sigma = 0.000010, epsilon = 0.000867
 c18bf                                  6      0.0000       0.00000       A     3.31540e-01     4.12939e-01    ;  uncertainty sigma = 0.000013, epsilon = 0.000808
 c19bf                                  6      0.0000       0.00000       A     3.31525e-01     4.13453e-01    ;  uncertainty sigma = 0.000006, epsilon = 0.000716
 c20bf                                  6      0.0000       0.00000       A     3.31517e-01     4.13658e-01    ;  uncertainty sigma = 0.000011, epsilon = 0.000613
 n21bf                                  7      0.0000       0.00000       A     3.38414e-01     3.93940e-01    ;  uncertainty sigma = 0.000017, epsilon = 0.001294
 c22bf                                  6      0.0000       0.00000       A     3.31543e-01     4.13211e-01    ;  uncertainty sigma = 0.000008, epsilon = 0.000677
 h23bf                                  1      0.0000       0.00000       A     2.62561e-01     6.70301e-02    ;  uncertainty sigma = 0.000008, epsilon = 0.000547
 h24bf                                  1      0.0000       0.00000       A     2.53651e-01     6.69296e-02    ;  uncertainty sigma = 0.000013, epsilon = 0.000381
 h25bf                                  1      0.0000       0.00000       A     2.53627e-01     6.72964e-02    ;  uncertainty sigma = 0.000055, epsilon = 0.000565

[ moleculetype ]
;name             nrexcl
 MOL                   3

[ atoms ]
;       nr            type      resi   res      atom      cgnr      charge          mass ; qtot
         1            c0bf         1   UNL        c0         1     0.32060       12.0110 ; qtot    0.321
         2            c1bf         1   UNL        c1         2    -0.19156       12.0110 ; qtot    0.129
         3            c2bf         1   UNL        c2         3    -0.09411       12.0110 ; qtot    0.035
         4            c3bf         1   UNL        c3         4    -0.20631       12.0110 ; qtot   -0.171
         5            c4bf         1   UNL        c4         5     0.42163       12.0110 ; qtot    0.250
         6            n5bf         1   UNL        n5         6    -0.62239       14.0070 ; qtot   -0.372
         7            c6bf         1   UNL        c6         7     0.27667       12.0110 ; qtot   -0.095
         8            n7bf         1   UNL        n7         8    -0.48031       14.0070 ; qtot   -0.576
         9            n8bf         1   UNL        n8         9    -0.01046       14.0070 ; qtot   -0.586
        10            h9bf         1   UNL        h9        10     0.16187        1.0080 ; qtot   -0.424
        11           h10bf         1   UNL       h10        11     0.15530        1.0080 ; qtot   -0.269
        12           h11bf         1   UNL       h11        12     0.33690        1.0080 ; qtot    0.068
        13           h12bf         1   UNL       h12        13     0.14738        1.0080 ; qtot    0.215
        14           f13bf         1   UNL       f13        14    -0.22071       18.9980 ; qtot   -0.005
        15           c14bf         1   UNL       c14        15     0.61632       12.0110 ; qtot    0.611
        16           f15bf         1   UNL       f15        16    -0.22071       18.9980 ; qtot    0.390
        17           f16bf         1   UNL       f16        17    -0.22071       18.9980 ; qtot    0.169
        18           c17bf         1   UNL       c17        18    -0.16841       12.0110 ; qtot    0.001
        19           c18bf         1   UNL       c18        19    -0.16333       12.0110 ; qtot   -0.162
        20           c19bf         1   UNL       c19        20    -0.16499       12.0110 ; qtot   -0.327
        21           c20bf         1   UNL       c20        21     0.35968       12.0110 ; qtot    0.032
        22           n21bf         1   UNL       n21        22    -0.63964       14.0070 ; qtot   -0.607
        23           c22bf         1   UNL       c22        23     0.39899       12.0110 ; qtot   -0.208
        24           h23bf         1   UNL       h23        24     0.15860        1.0080 ; qtot   -0.050
        25           h24bf         1   UNL       h24        25     0.02274        1.0080 ; qtot   -0.027
        26           h25bf         1   UNL       h25        26     0.02696        1.0080 ; qtot    0.000

[ bonds ]
;       ai        aj funct               r               k
         1         2     1        0.139062   338324.971582    ;  uncertainty r = 0.000048, k = 6.774082
         1         6     1        0.131511   382208.936279    ;  uncertainty r = 0.000084, k = 9.076112
         1        15     1        0.149121   227058.407031    ;  uncertainty r = 0.000116, k = 2.356228
         2         3     1        0.139461   378306.278613    ;  uncertainty r = 0.000048, k = 1.117711
         2        10     1        0.108677   337143.318457    ;  uncertainty r = 0.000029, k = 1.105166
         3         4     1        0.138850   381325.020312    ;  uncertainty r = 0.000047, k = 2.161963
         3        13     1        0.108728   332632.162549    ;  uncertainty r = 0.000012, k = 1.239015
         4         5     1        0.140267   337660.087402    ;  uncertainty r = 0.000032, k = 6.264106
         4        11     1        0.108776   338627.765088    ;  uncertainty r = 0.000017, k = 1.022300
         5         6     1        0.133578   369471.970996    ;  uncertainty r = 0.000096, k = 6.399531
         5         7     1        0.144918   263926.536133    ;  uncertainty r = 0.000135, k = 15.687954
         7         8     1        0.133165   428711.986914    ;  uncertainty r = 0.000119, k = 10.918583
         7        19     1        0.144024   210703.522852    ;  uncertainty r = 0.000074, k = 15.166448
         8         9     1        0.135187   289006.275879    ;  uncertainty r = 0.000096, k = 10.303489
         9        12     1        0.101108   415794.321045    ;  uncertainty r = 0.000034, k = 4.267977
         9        18     1        0.137567   297081.365234    ;  uncertainty r = 0.000076, k = 13.173470
        14        15     1        0.134638   290642.183105    ;  uncertainty r = 0.000048, k = 3.990315
        15        16     1        0.134638   290642.183105    ;  uncertainty r = 0.000048, k = 3.990315
        15        17     1        0.134638   290642.183105    ;  uncertainty r = 0.000048, k = 3.990315
        18        19     1        0.141302   403242.397656    ;  uncertainty r = 0.000092, k = 9.030985
        18        23     1        0.140204   353396.769238    ;  uncertainty r = 0.000054, k = 7.085538
        19        20     1        0.140009   364604.878857    ;  uncertainty r = 0.000083, k = 4.505898
        20        21     1        0.138903   360362.066895    ;  uncertainty r = 0.000061, k = 11.609215
        20        24     1        0.108734   336813.685449    ;  uncertainty r = 0.000045, k = 1.155366
        21        22     1        0.135670   364739.382813    ;  uncertainty r = 0.000086, k = 9.533800
        21        25     1        0.108976   339126.019629    ;  uncertainty r = 0.000016, k = 3.393130
        22        23     1        0.132489   414143.602295    ;  uncertainty r = 0.000076, k = 9.684088
        23        26     1        0.109111   333054.878320    ;  uncertainty r = 0.000052, k = 2.633710

[ angles ]
;       ai        aj        ak funct           theta             cth
         1         2         3     1      116.174423      445.266156    ;  uncertainty theta = 0.002712, k = 0.226367
         1         2        10     1      121.245499      276.926010    ;  uncertainty theta = 0.003733, k = 0.144163
         1         6         5     1      117.181137      381.125780    ;  uncertainty theta = 0.008109, k = 0.179735
         1        15        14     1      112.111267      588.573487    ;  uncertainty theta = 0.001556, k = 0.116752
         1        15        16     1      112.111267      588.573487    ;  uncertainty theta = 0.001556, k = 0.116752
         1        15        17     1      112.111267      588.573487    ;  uncertainty theta = 0.001556, k = 0.116752
         2         1         6     1      125.959084      637.593565    ;  uncertainty theta = 0.003375, k = 0.128495
         2         1        15     1      118.050674      336.880280    ;  uncertainty theta = 0.005477, k = 0.181908
         2         3         4     1      118.897293      534.346553    ;  uncertainty theta = 0.001303, k = 0.063917
         2         3        13     1      120.532433      279.428487    ;  uncertainty theta = 0.001987, k = 0.034821
         3         2        10     1      122.081848      285.089969    ;  uncertainty theta = 0.002297, k = 0.069448
         3         4         5     1      116.831947      485.974000    ;  uncertainty theta = 0.003188, k = 0.124522
         3         4        11     1      121.802551      291.063290    ;  uncertainty theta = 0.001807, k = 0.049817
         4         3        13     1      120.605614      279.909702    ;  uncertainty theta = 0.002131, k = 0.043874
         4         5         6     1      124.250534      601.565683    ;  uncertainty theta = 0.001794, k = 0.131900
         4         5         7     1      119.395752      387.909234    ;  uncertainty theta = 0.003949, k = 0.045112
         5         4        11     1      120.797607      269.873331    ;  uncertainty theta = 0.001324, k = 0.083901
         5         7         8     1      116.753784      398.475341    ;  uncertainty theta = 0.001237, k = 0.185929
         5         7        19     1      125.280411      312.718631    ;  uncertainty theta = 0.006572, k = 0.358622
         6         1        15     1      108.803223      397.005457    ;  uncertainty theta = 0.006462, k = 0.166147
         6         5         7     1      114.072365      454.282097    ;  uncertainty theta = 0.003584, k = 0.131988
         7         8         9     1      109.527969      933.098077    ;  uncertainty theta = 0.003274, k = 0.116739
         7        19        18     1      104.222839      736.621559    ;  uncertainty theta = 0.004483, k = 0.201601
         7        19        20     1      132.672684      353.074063    ;  uncertainty theta = 0.002689, k = 0.141192
         8         7        19     1      113.711609      826.342107    ;  uncertainty theta = 0.003988, k = 0.087479
         8         9        12     1      108.619995      344.714778    ;  uncertainty theta = 0.005895, k = 0.109643
         8         9        18     1      108.659500      999.574046    ;  uncertainty theta = 0.003598, k = 0.072033
         9        18        19     1      105.671677      675.382358    ;  uncertainty theta = 0.003009, k = 0.245144
         9        18        23     1      129.589310      362.310868    ;  uncertainty theta = 0.003544, k = 0.227537
        12         9        18     1      115.817001      273.714591    ;  uncertainty theta = 0.006864, k = 0.226136
        14        15        16     1      108.550537      789.083911    ;  uncertainty theta = 0.000956, k = 0.024253
        14        15        17     1      108.550537      789.083911    ;  uncertainty theta = 0.000956, k = 0.024253
        16        15        17     1      108.550537      789.083911    ;  uncertainty theta = 0.000956, k = 0.024253
        18        19        20     1      115.970016      404.550204    ;  uncertainty theta = 0.005668, k = 0.255540
        18        23        22     1      120.629623      683.767468    ;  uncertainty theta = 0.003080, k = 0.091816
        18        23        26     1      122.644409      283.062961    ;  uncertainty theta = 0.002885, k = 0.052189
        19        18        23     1      118.806763      363.257305    ;  uncertainty theta = 0.009187, k = 0.238480
        19        20        21     1      115.314865      532.656539    ;  uncertainty theta = 0.002632, k = 0.167830
        19        20        24     1      122.400612      279.121818    ;  uncertainty theta = 0.002869, k = 0.166139
        20        21        22     1      124.778404      691.036031    ;  uncertainty theta = 0.002990, k = 0.069403
        20        21        25     1      119.864586      278.454087    ;  uncertainty theta = 0.001011, k = 0.065519
        21        20        24     1      122.263321      281.429543    ;  uncertainty theta = 0.001664, k = 0.102395
        21        22        23     1      120.828514      421.094612    ;  uncertainty theta = 0.000536, k = 0.229021
        22        21        25     1      115.400146      335.590752    ;  uncertainty theta = 0.001276, k = 0.019317
        22        23        26     1      116.830650      338.670080    ;  uncertainty theta = 0.002752, k = 0.124589

[ dihedrals ] ; propers for gromacs 4.5 or higher, use funct 9
;       ai        aj        ak        al funct           phase               k        pn
         1         2         3         4     9        0.000000       -0.084819         1    ;  uncertainty k = 0.308334
         1         2         3         4     9      180.000000       13.392514         2    ;  uncertainty k = 0.413218
         1         2         3         4     9        0.000000       -1.123712         3    ;  uncertainty k = 0.395325
         1         2         3         4     9      180.000000        0.622469         4    ;  uncertainty k = 0.329656
         1         2         3        13     9        0.000000       -0.059187         1    ;  uncertainty k = 0.321777
         1         2         3        13     9      180.000000        7.694171         2    ;  uncertainty k = 0.383123
         1         2         3        13     9        0.000000        1.284460         3    ;  uncertainty k = 0.296471
         1         2         3        13     9      180.000000        1.478500         4    ;  uncertainty k = 0.101745
         1         6         5         4     9        0.000000       -0.167252         1    ;  uncertainty k = 1.236868
         1         6         5         4     9      180.000000       11.673695         2    ;  uncertainty k = 0.341582
         1         6         5         4     9        0.000000        1.932043         3    ;  uncertainty k = 0.453248
         1         6         5         4     9      180.000000        1.030011         4    ;  uncertainty k = 0.224938
         1         6         5         7     9        0.000000        0.332077         1    ;  uncertainty k = 1.591474
         1         6         5         7     9      180.000000       14.052128         2    ;  uncertainty k = 0.320948
         1         6         5         7     9        0.000000        2.574821         3    ;  uncertainty k = 0.142722
         1         6         5         7     9      180.000000        1.384196         4    ;  uncertainty k = 0.382668
         2         1         6         5     9        0.000000       -0.014761         1    ;  uncertainty k = 0.603732
         2         1         6         5     9      180.000000       13.654172         2    ;  uncertainty k = 0.193366
         2         1         6         5     9        0.000000        1.437821         3    ;  uncertainty k = 0.409096
         2         1         6         5     9      180.000000        1.294338         4    ;  uncertainty k = 0.242908
         2         1        15        14     9        0.000000       -1.235628         1    ;  uncertainty k = 1.082212
         2         1        15        14     9      180.000000        3.093013         2    ;  uncertainty k = 0.157163
         2         1        15        14     9        0.000000        0.284037         3    ;  uncertainty k = 0.084724
         2         1        15        14     9      180.000000        0.022619         4    ;  uncertainty k = 0.128741
         2         1        15        16     9        0.000000       -1.235628         1    ;  uncertainty k = 1.082212
         2         1        15        16     9      180.000000        3.093013         2    ;  uncertainty k = 0.157163
         2         1        15        16     9        0.000000        0.284037         3    ;  uncertainty k = 0.084724
         2         1        15        16     9      180.000000        0.022619         4    ;  uncertainty k = 0.128741
         2         1        15        17     9        0.000000       -1.235628         1    ;  uncertainty k = 1.082212
         2         1        15        17     9      180.000000        3.093013         2    ;  uncertainty k = 0.157163
         2         1        15        17     9        0.000000        0.284037         3    ;  uncertainty k = 0.084724
         2         1        15        17     9      180.000000        0.022619         4    ;  uncertainty k = 0.128741
         2         3         4         5     9        0.000000        0.104096         1    ;  uncertainty k = 0.231775
         2         3         4         5     9      180.000000       14.586135         2    ;  uncertainty k = 0.302792
         2         3         4         5     9        0.000000       -1.096279         3    ;  uncertainty k = 0.353738
         2         3         4         5     9      180.000000        0.582966         4    ;  uncertainty k = 0.309038
         2         3         4        11     9        0.000000        0.163226         1    ;  uncertainty k = 0.302091
         2         3         4        11     9      180.000000        8.613287         2    ;  uncertainty k = 0.300289
         2         3         4        11     9        0.000000        1.496713         3    ;  uncertainty k = 0.285433
         2         3         4        11     9      180.000000        1.948394         4    ;  uncertainty k = 0.219540
         3         2         1         6     9        0.000000       -0.243052         1    ;  uncertainty k = 0.431196
         3         2         1         6     9      180.000000       12.898788         2    ;  uncertainty k = 0.363807
         3         2         1         6     9        0.000000       -0.763973         3    ;  uncertainty k = 0.615877
         3         2         1         6     9      180.000000        1.001572         4    ;  uncertainty k = 0.158846
         3         2         1        15     9        0.000000        0.333497         1    ;  uncertainty k = 0.444060
         3         2         1        15     9      180.000000        8.720258         2    ;  uncertainty k = 0.689939
         3         2         1        15     9        0.000000        1.287446         3    ;  uncertainty k = 0.214102
         3         2         1        15     9      180.000000        1.688529         4    ;  uncertainty k = 0.231257
         3         4         5         6     9        0.000000       -0.032860         1    ;  uncertainty k = 0.143473
         3         4         5         6     9      180.000000       11.240332         2    ;  uncertainty k = 0.304789
         3         4         5         6     9        0.000000       -0.211259         3    ;  uncertainty k = 0.361340
         3         4         5         6     9      180.000000        1.159494         4    ;  uncertainty k = 0.206916
         3         4         5         7     9        0.000000       -0.020339         1    ;  uncertainty k = 0.531305
         3         4         5         7     9      180.000000        7.626310         2    ;  uncertainty k = 0.251254
         3         4         5         7     9        0.000000        0.820365         3    ;  uncertainty k = 0.172901
         3         4         5         7     9      180.000000        1.500739         4    ;  uncertainty k = 0.260031
         4         3         2        10     9        0.000000        0.158245         1    ;  uncertainty k = 0.142973
         4         3         2        10     9      180.000000        7.867580         2    ;  uncertainty k = 0.418116
         4         3         2        10     9        0.000000        1.480306         3    ;  uncertainty k = 0.369288
         4         3         2        10     9      180.000000        1.815467         4    ;  uncertainty k = 0.121267
         4         5         7         8     9        0.000000        1.526144         1    ;  uncertainty k = 0.923217
         4         5         7         8     9      180.000000        4.420865         2    ;  uncertainty k = 0.208928
         4         5         7         8     9        0.000000        0.636944         3    ;  uncertainty k = 0.214936
         4         5         7         8     9      180.000000       -0.019384         4    ;  uncertainty k = 0.060458
         4         5         7        19     9        0.000000       -0.438611         1    ;  uncertainty k = 0.408728
         4         5         7        19     9      180.000000        3.557020         2    ;  uncertainty k = 0.173563
         4         5         7        19     9        0.000000        0.643843         3    ;  uncertainty k = 0.214896
         4         5         7        19     9      180.000000       -0.076861         4    ;  uncertainty k = 0.021667
         5         4         3        13     9        0.000000       -0.057008         1    ;  uncertainty k = 0.228484
         5         4         3        13     9      180.000000        7.930354         2    ;  uncertainty k = 0.455951
         5         4         3        13     9        0.000000        1.272141         3    ;  uncertainty k = 0.271120
         5         4         3        13     9      180.000000        1.645841         4    ;  uncertainty k = 0.132504
         5         6         1        15     9        0.000000        1.015837         1    ;  uncertainty k = 1.008679
         5         6         1        15     9      180.000000       14.698290         2    ;  uncertainty k = 0.504909
         5         6         1        15     9        0.000000        2.151101         3    ;  uncertainty k = 0.513291
         5         6         1        15     9      180.000000        1.784427         4    ;  uncertainty k = 0.515043
         5         7         8         9     9        0.000000        0.855909         1    ;  uncertainty k = 0.728889
         5         7         8         9     9      180.000000       23.609477         2    ;  uncertainty k = 0.256983
         5         7         8         9     9        0.000000        1.788617         3    ;  uncertainty k = 0.548667
         5         7         8         9     9      180.000000        1.308836         4    ;  uncertainty k = 0.424636
         5         7        19        18     9        0.000000        0.084922         1    ;  uncertainty k = 0.656374
         5         7        19        18     9      180.000000        8.644415         2    ;  uncertainty k = 0.261841
         5         7        19        18     9        0.000000        1.120134         3    ;  uncertainty k = 0.336047
         5         7        19        18     9      180.000000        0.567992         4    ;  uncertainty k = 0.194668
         5         7        19        20     9        0.000000        0.299717         1    ;  uncertainty k = 1.342290
         5         7        19        20     9      180.000000        4.556129         2    ;  uncertainty k = 0.824414
         5         7        19        20     9        0.000000        1.261282         3    ;  uncertainty k = 0.318844
         5         7        19        20     9      180.000000        0.063416         4    ;  uncertainty k = 0.173544
         6         1         2        10     9        0.000000       -0.102737         1    ;  uncertainty k = 0.317569
         6         1         2        10     9      180.000000        7.721981         2    ;  uncertainty k = 0.533450
         6         1         2        10     9        0.000000        1.030182         3    ;  uncertainty k = 0.233868
         6         1         2        10     9      180.000000        1.623182         4    ;  uncertainty k = 0.205123
         6         1        15        14     9        0.000000        7.005091         1    ;  uncertainty k = 1.010342
         6         1        15        14     9      180.000000        3.720806         2    ;  uncertainty k = 0.254243
         6         1        15        14     9        0.000000        0.713071         3    ;  uncertainty k = 0.028693
         6         1        15        14     9      180.000000        0.123162         4    ;  uncertainty k = 0.154329
         6         1        15        16     9        0.000000        7.005091         1    ;  uncertainty k = 1.010342
         6         1        15        16     9      180.000000        3.720806         2    ;  uncertainty k = 0.254243
         6         1        15        16     9        0.000000        0.713071         3    ;  uncertainty k = 0.028693
         6         1        15        16     9      180.000000        0.123162         4    ;  uncertainty k = 0.154329
         6         1        15        17     9        0.000000        7.005091         1    ;  uncertainty k = 1.010342
         6         1        15        17     9      180.000000        3.720806         2    ;  uncertainty k = 0.254243
         6         1        15        17     9        0.000000        0.713071         3    ;  uncertainty k = 0.028693
         6         1        15        17     9      180.000000        0.123162         4    ;  uncertainty k = 0.154329
         6         5         4        11     9        0.000000        0.061385         1    ;  uncertainty k = 0.267173
         6         5         4        11     9      180.000000        7.096364         2    ;  uncertainty k = 0.400931
         6         5         4        11     9        0.000000        1.213708         3    ;  uncertainty k = 0.210867
         6         5         4        11     9      180.000000        1.654210         4    ;  uncertainty k = 0.166223
         6         5         7         8     9        0.000000       -1.374032         1    ;  uncertainty k = 0.680888
         6         5         7         8     9      180.000000        5.167449         2    ;  uncertainty k = 0.360939
         6         5         7         8     9        0.000000        0.799636         3    ;  uncertainty k = 0.183922
         6         5         7         8     9      180.000000        0.013084         4    ;  uncertainty k = 0.061971
         6         5         7        19     9        0.000000        1.107789         1    ;  uncertainty k = 0.669475
         6         5         7        19     9      180.000000        4.387347         2    ;  uncertainty k = 0.199238
         6         5         7        19     9        0.000000        0.692691         3    ;  uncertainty k = 0.265555
         6         5         7        19     9      180.000000        0.031721         4    ;  uncertainty k = 0.097061
         7         5         4        11     9        0.000000       -0.265429         1    ;  uncertainty k = 0.195189
         7         5         4        11     9      180.000000        6.195363         2    ;  uncertainty k = 0.443955
         7         5         4        11     9        0.000000        0.530145         3    ;  uncertainty k = 0.220858
         7         5         4        11     9      180.000000        0.893386         4    ;  uncertainty k = 0.384271
         7         8         9        12     9        0.000000        2.793334         1    ;  uncertainty k = 0.754670
         7         8         9        12     9      180.000000       14.159470         2    ;  uncertainty k = 0.362549
         7         8         9        12     9        0.000000        1.713397         3    ;  uncertainty k = 1.045536
         7         8         9        12     9      180.000000       -0.262581         4    ;  uncertainty k = 0.520807
         7         8         9        18     9        0.000000       -0.786642         1    ;  uncertainty k = 0.789538
         7         8         9        18     9      180.000000       18.764018         2    ;  uncertainty k = 0.605935
         7         8         9        18     9        0.000000       -4.689695         3    ;  uncertainty k = 1.198051
         7         8         9        18     9      180.000000        1.119825         4    ;  uncertainty k = 0.532220
         7        19        18         9     9        0.000000       -0.104137         1    ;  uncertainty k = 0.495871
         7        19        18         9     9      180.000000       12.800174         2    ;  uncertainty k = 0.905977
         7        19        18         9     9        0.000000       -3.963873         3    ;  uncertainty k = 1.499758
         7        19        18         9     9      180.000000        1.593292         4    ;  uncertainty k = 0.567155
         7        19        18        23     9        0.000000        0.241081         1    ;  uncertainty k = 0.421495
         7        19        18        23     9      180.000000        6.655494         2    ;  uncertainty k = 0.565988
         7        19        18        23     9        0.000000       -0.039860         3    ;  uncertainty k = 0.629791
         7        19        18        23     9      180.000000        1.398377         4    ;  uncertainty k = 0.336232
         7        19        20        21     9        0.000000        0.226179         1    ;  uncertainty k = 0.421182
         7        19        20        21     9      180.000000        8.637214         2    ;  uncertainty k = 0.506114
         7        19        20        21     9        0.000000        0.571820         3    ;  uncertainty k = 0.697499
         7        19        20        21     9      180.000000        1.277687         4    ;  uncertainty k = 0.246185
         7        19        20        24     9        0.000000        0.365775         1    ;  uncertainty k = 0.835607
         7        19        20        24     9      180.000000        5.522418         2    ;  uncertainty k = 0.352537
         7        19        20        24     9        0.000000        1.089212         3    ;  uncertainty k = 0.207389
         7        19        20        24     9      180.000000        0.627788         4    ;  uncertainty k = 0.249963
         8         7        19        18     9        0.000000        0.604267         1    ;  uncertainty k = 0.475322
         8         7        19        18     9      180.000000       14.244587         2    ;  uncertainty k = 0.773259
         8         7        19        18     9        0.000000      -10.516735         3    ;  uncertainty k = 2.159481
         8         7        19        18     9      180.000000        1.871358         4    ;  uncertainty k = 0.509320
         8         7        19        20     9        0.000000        0.377435         1    ;  uncertainty k = 0.777144
         8         7        19        20     9      180.000000        7.125770         2    ;  uncertainty k = 0.770039
         8         7        19        20     9        0.000000       -0.081450         3    ;  uncertainty k = 0.533536
         8         7        19        20     9      180.000000        1.062860         4    ;  uncertainty k = 0.279195
         8         9        18        19     9        0.000000        0.198820         1    ;  uncertainty k = 0.505963
         8         9        18        19     9      180.000000       17.491902         2    ;  uncertainty k = 1.147064
         8         9        18        19     9        0.000000       -8.920169         3    ;  uncertainty k = 1.237534
         8         9        18        19     9      180.000000        0.707682         4    ;  uncertainty k = 0.552471
         8         9        18        23     9        0.000000        1.250443         1    ;  uncertainty k = 1.088918
         8         9        18        23     9      180.000000        5.981516         2    ;  uncertainty k = 0.369490
         8         9        18        23     9        0.000000        0.589869         3    ;  uncertainty k = 0.714586
         8         9        18        23     9      180.000000        0.388073         4    ;  uncertainty k = 0.288659
         9         8         7        19     9        0.000000       -0.295772         1    ;  uncertainty k = 0.467629
         9         8         7        19     9      180.000000       23.518533         2    ;  uncertainty k = 0.252051
         9         8         7        19     9        0.000000       -3.843108         3    ;  uncertainty k = 0.892551
         9         8         7        19     9      180.000000        2.026821         4    ;  uncertainty k = 0.486513
         9        18        19        20     9        0.000000       -0.054233         1    ;  uncertainty k = 0.538743
         9        18        19        20     9      180.000000        8.598682         2    ;  uncertainty k = 0.302891
         9        18        19        20     9        0.000000       -0.428091         3    ;  uncertainty k = 0.421523
         9        18        19        20     9      180.000000        1.318324         4    ;  uncertainty k = 0.383713
         9        18        23        22     9        0.000000        0.055374         1    ;  uncertainty k = 0.454362
         9        18        23        22     9      180.000000        9.704178         2    ;  uncertainty k = 0.644769
         9        18        23        22     9        0.000000        0.313974         3    ;  uncertainty k = 0.439173
         9        18        23        22     9      180.000000        1.094409         4    ;  uncertainty k = 0.271749
         9        18        23        26     9        0.000000        0.123656         1    ;  uncertainty k = 0.378738
         9        18        23        26     9      180.000000        4.665962         2    ;  uncertainty k = 0.815524
         9        18        23        26     9        0.000000        0.879977         3    ;  uncertainty k = 0.356095
         9        18        23        26     9      180.000000        0.645808         4    ;  uncertainty k = 0.249958
        10         2         1        15     9        0.000000        0.131553         1    ;  uncertainty k = 0.649349
        10         2         1        15     9      180.000000        7.144930         2    ;  uncertainty k = 0.357480
        10         2         1        15     9        0.000000        0.692889         3    ;  uncertainty k = 0.464507
        10         2         1        15     9      180.000000        0.904799         4    ;  uncertainty k = 0.249976
        10         2         3        13     9        0.000000       -0.122632         1    ;  uncertainty k = 0.332238
        10         2         3        13     9      180.000000        7.905625         2    ;  uncertainty k = 0.600896
        10         2         3        13     9        0.000000       -0.445130         3    ;  uncertainty k = 0.332768
        10         2         3        13     9      180.000000        0.089549         4    ;  uncertainty k = 0.178003
        11         4         3        13     9        0.000000       -0.105927         1    ;  uncertainty k = 0.191636
        11         4         3        13     9      180.000000        8.319326         2    ;  uncertainty k = 0.449822
        11         4         3        13     9        0.000000       -0.546855         3    ;  uncertainty k = 0.405762
        11         4         3        13     9      180.000000        0.110783         4    ;  uncertainty k = 0.222959
        12         9        18        19     9        0.000000        5.255176         1    ;  uncertainty k = 1.283403
        12         9        18        19     9      180.000000        5.663120         2    ;  uncertainty k = 1.032600
        12         9        18        19     9        0.000000        1.336996         3    ;  uncertainty k = 0.234967
        12         9        18        19     9      180.000000        0.139973         4    ;  uncertainty k = 0.217766
        12         9        18        23     9        0.000000        1.702967         1    ;  uncertainty k = 1.043351
        12         9        18        23     9      180.000000        1.365467         2    ;  uncertainty k = 0.490234
        12         9        18        23     9        0.000000        1.123548         3    ;  uncertainty k = 0.561912
        12         9        18        23     9      180.000000        0.118546         4    ;  uncertainty k = 0.199135
        18        19        20        21     9        0.000000       -0.105249         1    ;  uncertainty k = 0.409560
        18        19        20        21     9      180.000000       13.891131         2    ;  uncertainty k = 0.426635
        18        19        20        21     9        0.000000       -2.697408         3    ;  uncertainty k = 0.564760
        18        19        20        21     9      180.000000        0.770388         4    ;  uncertainty k = 0.435204
        18        19        20        24     9        0.000000        0.002490         1    ;  uncertainty k = 0.505599
        18        19        20        24     9      180.000000        8.093019         2    ;  uncertainty k = 1.174660
        18        19        20        24     9        0.000000        1.404286         3    ;  uncertainty k = 0.404479
        18        19        20        24     9      180.000000        1.228516         4    ;  uncertainty k = 0.470746
        18        23        22        21     9        0.000000       -0.252878         1    ;  uncertainty k = 0.510021
        18        23        22        21     9      180.000000       20.853105         2    ;  uncertainty k = 0.234796
        18        23        22        21     9        0.000000        1.081840         3    ;  uncertainty k = 0.496388
        18        23        22        21     9      180.000000        1.388528         4    ;  uncertainty k = 0.211664
        19        18        23        22     9        0.000000       -0.414121         1    ;  uncertainty k = 0.905317
        19        18        23        22     9      180.000000       11.568613         2    ;  uncertainty k = 0.440632
        19        18        23        22     9        0.000000       -1.614811         3    ;  uncertainty k = 0.805391
        19        18        23        22     9      180.000000        0.741723         4    ;  uncertainty k = 0.376121
        19        18        23        26     9        0.000000       -0.473064         1    ;  uncertainty k = 0.698789
        19        18        23        26     9      180.000000        5.465762         2    ;  uncertainty k = 0.712927
        19        18        23        26     9        0.000000        1.000807         3    ;  uncertainty k = 0.167300
        19        18        23        26     9      180.000000        0.799321         4    ;  uncertainty k = 0.291971
        19        20        21        22     9        0.000000        0.071452         1    ;  uncertainty k = 0.300532
        19        20        21        22     9      180.000000       17.659210         2    ;  uncertainty k = 0.349063
        19        20        21        22     9        0.000000       -0.689604         3    ;  uncertainty k = 0.376615
        19        20        21        22     9      180.000000        0.663388         4    ;  uncertainty k = 0.313603
        19        20        21        25     9        0.000000        0.009015         1    ;  uncertainty k = 0.430458
        19        20        21        25     9      180.000000        9.659973         2    ;  uncertainty k = 0.438793
        19        20        21        25     9        0.000000        1.485842         3    ;  uncertainty k = 0.316066
        19        20        21        25     9      180.000000        1.579440         4    ;  uncertainty k = 0.291768
        20        19        18        23     9        0.000000       -0.759391         1    ;  uncertainty k = 0.601547
        20        19        18        23     9      180.000000        7.190858         2    ;  uncertainty k = 0.949990
        20        19        18        23     9        0.000000       -0.251390         3    ;  uncertainty k = 0.448304
        20        19        18        23     9      180.000000        1.091825         4    ;  uncertainty k = 0.320191
        20        21        22        23     9        0.000000       -0.436620         1    ;  uncertainty k = 0.776255
        20        21        22        23     9      180.000000       12.946580         2    ;  uncertainty k = 0.786682
        20        21        22        23     9        0.000000        1.183851         3    ;  uncertainty k = 0.644883
        20        21        22        23     9      180.000000        0.998173         4    ;  uncertainty k = 0.226636
        21        22        23        26     9        0.000000       -0.033956         1    ;  uncertainty k = 0.265338
        21        22        23        26     9      180.000000       17.351656         2    ;  uncertainty k = 0.485593
        21        22        23        26     9        0.000000        2.240643         3    ;  uncertainty k = 0.459831
        21        22        23        26     9      180.000000        1.512407         4    ;  uncertainty k = 0.334544
        22        21        20        24     9        0.000000        0.142019         1    ;  uncertainty k = 0.386626
        22        21        20        24     9      180.000000       10.815320         2    ;  uncertainty k = 0.413759
        22        21        20        24     9        0.000000        1.155863         3    ;  uncertainty k = 0.306211
        22        21        20        24     9      180.000000        1.703716         4    ;  uncertainty k = 0.177377
        23        22        21        25     9        0.000000        0.290229         1    ;  uncertainty k = 0.545024
        23        22        21        25     9      180.000000       12.968728         2    ;  uncertainty k = 0.341072
        23        22        21        25     9        0.000000        1.987336         3    ;  uncertainty k = 0.646505
        23        22        21        25     9      180.000000        1.339015         4    ;  uncertainty k = 0.220979
        24        20        21        25     9        0.000000       -0.121980         1    ;  uncertainty k = 0.219748
        24        20        21        25     9      180.000000        7.231505         2    ;  uncertainty k = 0.210280
        24        20        21        25     9        0.000000       -0.016899         3    ;  uncertainty k = 0.156263
        24        20        21        25     9      180.000000        0.322036         4    ;  uncertainty k = 0.227772

[ dihedrals ] ; impropers
;       ai        aj        ak        al funct           phase               k        pn
         1         2         6        15     4      180.000000       17.926600         2    ;  uncertainty k = 0.057846
         1         6        15         2     4      180.000000       17.926600         2    ;  uncertainty k = 0.057846
         1        15         2         6     4      180.000000       17.926600         2    ;  uncertainty k = 0.057846
         2         1         3        10     4      180.000000        3.817307         2    ;  uncertainty k = 0.197476
         2         3        10         1     4      180.000000        3.817307         2    ;  uncertainty k = 0.197476
         2        10         1         3     4      180.000000        3.817307         2    ;  uncertainty k = 0.197476
         3         2         4        13     4      180.000000        6.134914         2    ;  uncertainty k = 0.109908
         3         4        13         2     4      180.000000        6.134914         2    ;  uncertainty k = 0.109908
         3        13         2         4     4      180.000000        6.134914         2    ;  uncertainty k = 0.109908
         4         3         5        11     4      180.000000        3.956535         2    ;  uncertainty k = 0.042708
         4         5        11         3     4      180.000000        3.956535         2    ;  uncertainty k = 0.042708
         4        11         3         5     4      180.000000        3.956535         2    ;  uncertainty k = 0.042708
         5         4         6         7     4      180.000000       22.149814         2    ;  uncertainty k = 0.071474
         5         6         7         4     4      180.000000       22.149814         2    ;  uncertainty k = 0.071474
         5         7         4         6     4      180.000000       22.149814         2    ;  uncertainty k = 0.071474
         7         5         8        19     4      180.000000        5.171219         2    ;  uncertainty k = 0.304165
         7         8        19         5     4      180.000000        5.171219         2    ;  uncertainty k = 0.304165
         7        19         5         8     4      180.000000        5.171219         2    ;  uncertainty k = 0.304165
        18         9        19        23     4      180.000000        1.076621         2    ;  uncertainty k = 2.143127
        18        19        23         9     4      180.000000        1.076621         2    ;  uncertainty k = 2.143127
        18        23         9        19     4      180.000000        1.076621         2    ;  uncertainty k = 2.143127
        19         7        18        20     4      180.000000        0.290203         2    ;  uncertainty k = 0.648915
        19        18        20         7     4      180.000000        0.290203         2    ;  uncertainty k = 0.648915
        19        20         7        18     4      180.000000        0.290203         2    ;  uncertainty k = 0.648915
        20        19        21        24     4      180.000000        3.987912         2    ;  uncertainty k = 0.218158
        20        21        24        19     4      180.000000        3.987912         2    ;  uncertainty k = 0.218158
        20        24        19        21     4      180.000000        3.987912         2    ;  uncertainty k = 0.218158
        21        20        22        25     4      180.000000       11.655334         2    ;  uncertainty k = 0.072161
        21        22        25        20     4      180.000000       11.655334         2    ;  uncertainty k = 0.072161
        21        25        20        22     4      180.000000       11.655334         2    ;  uncertainty k = 0.072161
        23        18        22        26     4      180.000000       11.621964         2    ;  uncertainty k = 0.089394
        23        22        26        18     4      180.000000       11.621964         2    ;  uncertainty k = 0.089394
        23        26        18        22     4      180.000000       11.621964         2    ;  uncertainty k = 0.089394

[ pairs ]
;       ai        aj funct
         1         4     1
         1         7     1
         1        13     1
         2         5     1
         2        11     1
         2        14     1
         2        16     1
         2        17     1
         3         6     1
         3         7     1
         3        15     1
         4         8     1
         4        10     1
         4        19     1
         5         9     1
         5        13     1
         5        15     1
         5        18     1
         5        20     1
         6         8     1
         6        10     1
         6        11     1
         6        14     1
         6        16     1
         6        17     1
         6        19     1
         7        11     1
         7        12     1
         7        21     1
         7        23     1
         7        24     1
         8        20     1
         8        23     1
         9        20     1
         9        22     1
         9        26     1
        10        13     1
        10        15     1
        11        13     1
        12        19     1
        12        23     1
        18        21     1
        18        24     1
        19        22     1
        19        25     1
        19        26     1
        20        23     1
        21        26     1
        22        24     1
        23        25     1
        24        25     1
