; ITP file created by ByteFF-joint-25, 2025-07-14 11:27:20.704037

[ atomtypes ]
;name           bonded.type        at.num        mass        charge   ptype           sigma         epsilon
 c0bf                                   6      0.0000       0.00000       A     3.31498e-01     4.13619e-01    ;  uncertainty sigma = 0.000020, epsilon = 0.001027
 c1bf                                   6      0.0000       0.00000       A     3.31542e-01     4.13105e-01    ;  uncertainty sigma = 0.000011, epsilon = 0.000810
 c2bf                                   6      0.0000       0.00000       A     3.31513e-01     4.14388e-01    ;  uncertainty sigma = 0.000015, epsilon = 0.001868
 c3bf                                   6      0.0000       0.00000       A     3.31535e-01     4.13369e-01    ;  uncertainty sigma = 0.000008, epsilon = 0.000834
 c4bf                                   6      0.0000       0.00000       A     3.31531e-01     4.13743e-01    ;  uncertainty sigma = 0.000009, epsilon = 0.000903
 n5bf                                   7      0.0000       0.00000       A     3.38421e-01     3.93540e-01    ;  uncertainty sigma = 0.000019, epsilon = 0.000671
 c6bf                                   6      0.0000       0.00000       A     3.31534e-01     4.12975e-01    ;  uncertainty sigma = 0.000014, epsilon = 0.001072
 n7bf                                   7      0.0000       0.00000       A     3.38419e-01     3.94073e-01    ;  uncertainty sigma = 0.000013, epsilon = 0.000679
 n8bf                                   7      0.0000       0.00000       A     3.20619e-01     8.54611e-01    ;  uncertainty sigma = 0.000016, epsilon = 0.001880
 h9bf                                   1      0.0000       0.00000       A     2.62552e-01     6.67138e-02    ;  uncertainty sigma = 0.000018, epsilon = 0.000655
 h10bf                                  1      0.0000       0.00000       A     2.62546e-01     6.69328e-02    ;  uncertainty sigma = 0.000017, epsilon = 0.000640
 h11bf                                  1      0.0000       0.00000       A     1.10684e-01     4.13486e-02    ;  uncertainty sigma = 0.000124, epsilon = 0.000806
 f12bf                                  9      0.0000       0.00000       A     3.03422e-01     3.47876e-01    ;  uncertainty sigma = 0.000009, epsilon = 0.001355
 c13bf                                  6      0.0000       0.00000       A     3.39790e-01     4.50171e-01    ;  uncertainty sigma = 0.000006, epsilon = 0.001485
 f14bf                                  9      0.0000       0.00000       A     3.03422e-01     3.47876e-01    ;  uncertainty sigma = 0.000009, epsilon = 0.001355
 f15bf                                  9      0.0000       0.00000       A     3.03422e-01     3.47876e-01    ;  uncertainty sigma = 0.000009, epsilon = 0.001355
 c16bf                                  6      0.0000       0.00000       A     3.31480e-01     4.13032e-01    ;  uncertainty sigma = 0.000010, epsilon = 0.000867
 c17bf                                  6      0.0000       0.00000       A     3.31540e-01     4.12939e-01    ;  uncertainty sigma = 0.000013, epsilon = 0.000808
 c18bf                                  6      0.0000       0.00000       A     3.31525e-01     4.13453e-01    ;  uncertainty sigma = 0.000006, epsilon = 0.000716
 c19bf                                  6      0.0000       0.00000       A     3.31517e-01     4.13658e-01    ;  uncertainty sigma = 0.000011, epsilon = 0.000613
 n20bf                                  7      0.0000       0.00000       A     3.38414e-01     3.93940e-01    ;  uncertainty sigma = 0.000017, epsilon = 0.001294
 c21bf                                  6      0.0000       0.00000       A     3.31543e-01     4.13211e-01    ;  uncertainty sigma = 0.000008, epsilon = 0.000677
 h22bf                                  1      0.0000       0.00000       A     2.62561e-01     6.70301e-02    ;  uncertainty sigma = 0.000008, epsilon = 0.000547
 h23bf                                  1      0.0000       0.00000       A     2.53651e-01     6.69297e-02    ;  uncertainty sigma = 0.000013, epsilon = 0.000381
 h24bf                                  1      0.0000       0.00000       A     2.53627e-01     6.72964e-02    ;  uncertainty sigma = 0.000055, epsilon = 0.000565
 n25bf                                  7      0.0000       0.00000       A     3.27913e-01     6.45896e-01    ;  uncertainty sigma = 0.000037, epsilon = 0.003325
 h26bf                                  1      0.0000       0.00000       A     1.10651e-01     4.14428e-02    ;  uncertainty sigma = 0.000095, epsilon = 0.001224
 c27bf                                  6      0.0000       0.00000       A     3.39762e-01     4.51045e-01    ;  uncertainty sigma = 0.000018, epsilon = 0.001056
 h28bf                                  1      0.0000       0.00000       A     2.42173e-01     8.64379e-02    ;  uncertainty sigma = 0.000029, epsilon = 0.000740
 h29bf                                  1      0.0000       0.00000       A     2.42173e-01     8.64379e-02    ;  uncertainty sigma = 0.000029, epsilon = 0.000740
 c30bf                                  6      0.0000       0.00000       A     3.39779e-01     4.50838e-01    ;  uncertainty sigma = 0.000015, epsilon = 0.000186
 h31bf                                  1      0.0000       0.00000       A     2.42163e-01     8.63064e-02    ;  uncertainty sigma = 0.000031, epsilon = 0.000753
 h32bf                                  1      0.0000       0.00000       A     2.42163e-01     8.63063e-02    ;  uncertainty sigma = 0.000031, epsilon = 0.000754
 o33bf                                  8      0.0000       0.00000       A     3.24285e-01     3.88090e-01    ;  uncertainty sigma = 0.000032, epsilon = 0.001409
 h34bf                                  1      0.0000       0.00000       A     5.37995e-02     1.93816e-02    ;  uncertainty sigma = 0.000100, epsilon = 0.001338

[ moleculetype ]
;name             nrexcl
 MOL                   3

[ atoms ]
;       nr            type      resi   res      atom      cgnr      charge          mass ; qtot
         1            c0bf         1   UNL        c0         1     0.36121       12.0110 ; qtot    0.361
         2            c1bf         1   UNL        c1         2    -0.27068       12.0110 ; qtot    0.091
         3            c2bf         1   UNL        c2         3     0.21701       12.0110 ; qtot    0.308
         4            c3bf         1   UNL        c3         4    -0.28940       12.0110 ; qtot    0.018
         5            c4bf         1   UNL        c4         5     0.45623       12.0110 ; qtot    0.474
         6            n5bf         1   UNL        n5         6    -0.63693       14.0070 ; qtot   -0.163
         7            c6bf         1   UNL        c6         7     0.27738       12.0110 ; qtot    0.115
         8            n7bf         1   UNL        n7         8    -0.47953       14.0070 ; qtot   -0.365
         9            n8bf         1   UNL        n8         9    -0.01046       14.0070 ; qtot   -0.375
        10            h9bf         1   UNL        h9        10     0.15791        1.0080 ; qtot   -0.217
        11           h10bf         1   UNL       h10        11     0.15005        1.0080 ; qtot   -0.067
        12           h11bf         1   UNL       h11        12     0.33690        1.0080 ; qtot    0.270
        13           f12bf         1   UNL       f12        13    -0.22068       18.9980 ; qtot    0.049
        14           c13bf         1   UNL       c13        14     0.61757       12.0110 ; qtot    0.667
        15           f14bf         1   UNL       f14        15    -0.22068       18.9980 ; qtot    0.446
        16           f15bf         1   UNL       f15        16    -0.22068       18.9980 ; qtot    0.225
        17           c16bf         1   UNL       c16        17    -0.16841       12.0110 ; qtot    0.057
        18           c17bf         1   UNL       c17        18    -0.16297       12.0110 ; qtot   -0.106
        19           c18bf         1   UNL       c18        19    -0.16499       12.0110 ; qtot   -0.271
        20           c19bf         1   UNL       c19        20     0.35968       12.0110 ; qtot    0.089
        21           n20bf         1   UNL       n20        21    -0.63964       14.0070 ; qtot   -0.551
        22           c21bf         1   UNL       c21        22     0.39899       12.0110 ; qtot   -0.152
        23           h22bf         1   UNL       h22        23     0.15860        1.0080 ; qtot    0.006
        24           h23bf         1   UNL       h23        24     0.02274        1.0080 ; qtot    0.029
        25           h24bf         1   UNL       h24        25     0.02700        1.0080 ; qtot    0.056
        26           n25bf         1   UNL       n25        26    -0.75965       14.0070 ; qtot   -0.703
        27           h26bf         1   UNL       h26        27     0.41743        1.0080 ; qtot   -0.286
        28           c27bf         1   UNL       c27        28     0.17481       12.0110 ; qtot   -0.111
        29           h28bf         1   UNL       h28        29     0.05396        1.0080 ; qtot   -0.057
        30           h29bf         1   UNL       h29        30     0.05396        1.0080 ; qtot   -0.003
        31           c30bf         1   UNL       c30        31     0.11319       12.0110 ; qtot    0.110
        32           h31bf         1   UNL       h31        32     0.04271        1.0080 ; qtot    0.153
        33           h32bf         1   UNL       h32        33     0.04271        1.0080 ; qtot    0.195
        34           o33bf         1   UNL       o33        34    -0.60305       15.9990 ; qtot   -0.408
        35           h34bf         1   UNL       h34        35     0.40771        1.0080 ; qtot    0.000

[ bonds ]
;       ai        aj funct               r               k
         1         2     1        0.138867   344857.415234    ;  uncertainty r = 0.000100, k = 6.526465
         1         6     1        0.131533   374280.710840    ;  uncertainty r = 0.000093, k = 6.882033
         1        14     1        0.148752   227397.922900    ;  uncertainty r = 0.000153, k = 5.422361
         2         3     1        0.141188   407063.975000    ;  uncertainty r = 0.000155, k = 7.792930
         2        10     1        0.108826   340967.985791    ;  uncertainty r = 0.000039, k = 2.252644
         3         4     1        0.140830   401223.995605    ;  uncertainty r = 0.000109, k = 7.869164
         3        26     1        0.138476   342886.920801    ;  uncertainty r = 0.000062, k = 3.156826
         4         5     1        0.140030   354153.944531    ;  uncertainty r = 0.000098, k = 12.519792
         4        11     1        0.108913   342289.658887    ;  uncertainty r = 0.000023, k = 2.308391
         5         6     1        0.133846   361951.879639    ;  uncertainty r = 0.000099, k = 5.441959
         5         7     1        0.144776   265070.930615    ;  uncertainty r = 0.000202, k = 22.078525
         7         8     1        0.133160   428682.619238    ;  uncertainty r = 0.000124, k = 10.357755
         7        18     1        0.144012   210925.772314    ;  uncertainty r = 0.000072, k = 14.214366
         8         9     1        0.135187   289006.275879    ;  uncertainty r = 0.000096, k = 10.303489
         9        12     1        0.101108   415794.346582    ;  uncertainty r = 0.000034, k = 4.267977
         9        17     1        0.137567   297081.365234    ;  uncertainty r = 0.000076, k = 13.173470
        13        14     1        0.134618   290808.710596    ;  uncertainty r = 0.000041, k = 3.653921
        14        15     1        0.134618   290808.710596    ;  uncertainty r = 0.000041, k = 3.653921
        14        16     1        0.134618   290808.710596    ;  uncertainty r = 0.000041, k = 3.653921
        17        18     1        0.141302   403242.397656    ;  uncertainty r = 0.000092, k = 9.030985
        17        22     1        0.140204   353396.743701    ;  uncertainty r = 0.000054, k = 7.085538
        18        19     1        0.140009   364604.878857    ;  uncertainty r = 0.000083, k = 4.505898
        19        20     1        0.138903   360362.117969    ;  uncertainty r = 0.000061, k = 11.609214
        19        23     1        0.108734   336813.685449    ;  uncertainty r = 0.000045, k = 1.155366
        20        21     1        0.135670   364739.382813    ;  uncertainty r = 0.000086, k = 9.533800
        20        24     1        0.108976   339125.994092    ;  uncertainty r = 0.000016, k = 3.393131
        21        22     1        0.132489   414143.551221    ;  uncertainty r = 0.000076, k = 9.684090
        22        25     1        0.109111   333054.878320    ;  uncertainty r = 0.000052, k = 2.633710
        26        27     1        0.101301   415177.982910    ;  uncertainty r = 0.000040, k = 5.085500
        26        28     1        0.144720   250613.377051    ;  uncertainty r = 0.000064, k = 6.294905
        28        29     1        0.109745   305401.151172    ;  uncertainty r = 0.000038, k = 1.462871
        28        30     1        0.109745   305401.151172    ;  uncertainty r = 0.000038, k = 1.462871
        28        31     1        0.152722   208915.644287    ;  uncertainty r = 0.000067, k = 6.067846
        31        32     1        0.109851   307411.125977    ;  uncertainty r = 0.000035, k = 1.484788
        31        33     1        0.109851   307411.125977    ;  uncertainty r = 0.000035, k = 1.484788
        31        34     1        0.142228   262056.632373    ;  uncertainty r = 0.000046, k = 4.549453
        34        35     1        0.096983   461465.679102    ;  uncertainty r = 0.000040, k = 3.123146

[ angles ]
;       ai        aj        ak funct           theta             cth
         1         2         3     1      116.510010      487.607003    ;  uncertainty theta = 0.004344, k = 0.126425
         1         2        10     1      121.435623      288.258996    ;  uncertainty theta = 0.002915, k = 0.189592
         1         6         5     1      115.643021      372.663612    ;  uncertainty theta = 0.009281, k = 0.199709
         1        14        13     1      111.942528      586.721281    ;  uncertainty theta = 0.002144, k = 0.117001
         1        14        15     1      111.942528      586.721281    ;  uncertainty theta = 0.002144, k = 0.117001
         1        14        16     1      111.942528      586.721281    ;  uncertainty theta = 0.002144, k = 0.117001
         2         1         6     1      126.992874      649.725352    ;  uncertainty theta = 0.003928, k = 0.077803
         2         1        14     1      116.801903      341.636726    ;  uncertainty theta = 0.007392, k = 0.212761
         2         3         4     1      116.420486      396.737381    ;  uncertainty theta = 0.009062, k = 0.263631
         2         3        26     1      123.545959      594.625782    ;  uncertainty theta = 0.007444, k = 0.101830
         3         2        10     1      121.204018      271.391672    ;  uncertainty theta = 0.001861, k = 0.049167
         3         4         5     1      117.448776      510.696157    ;  uncertainty theta = 0.005542, k = 0.304121
         3         4        11     1      120.814651      278.143205    ;  uncertainty theta = 0.002058, k = 0.063851
         3        26        27     1      110.773315      368.466588    ;  uncertainty theta = 0.005597, k = 0.056711
         3        26        28     1      114.313553      426.813743    ;  uncertainty theta = 0.004145, k = 0.102626
         4         3        26     1      123.861671      594.862320    ;  uncertainty theta = 0.006582, k = 0.150151
         4         5         6     1      125.248978      627.242544    ;  uncertainty theta = 0.001979, k = 0.124691
         4         5         7     1      118.717972      391.932574    ;  uncertainty theta = 0.002121, k = 0.071097
         5         4        11     1      121.128677      277.613246    ;  uncertainty theta = 0.001643, k = 0.137584
         5         7         8     1      116.665909      399.203563    ;  uncertainty theta = 0.002278, k = 0.202304
         5         7        18     1      125.208397      315.368649    ;  uncertainty theta = 0.006287, k = 0.408819
         6         1        14     1      109.088150      386.248715    ;  uncertainty theta = 0.005695, k = 0.275216
         6         5         7     1      114.278152      445.608322    ;  uncertainty theta = 0.004612, k = 0.105611
         7         8         9     1      109.530762      932.367014    ;  uncertainty theta = 0.003367, k = 0.116259
         7        18        17     1      104.232071      735.683964    ;  uncertainty theta = 0.004436, k = 0.202447
         7        18        19     1      132.667572      353.504747    ;  uncertainty theta = 0.002710, k = 0.136347
         8         7        18     1      113.726173      827.090599    ;  uncertainty theta = 0.003936, k = 0.082255
         8         9        12     1      108.619995      344.714778    ;  uncertainty theta = 0.005895, k = 0.109643
         8         9        17     1      108.659500      999.574046    ;  uncertainty theta = 0.003598, k = 0.072033
         9        17        18     1      105.671677      675.382358    ;  uncertainty theta = 0.003009, k = 0.245144
         9        17        22     1      129.589310      362.310868    ;  uncertainty theta = 0.003544, k = 0.227537
        12         9        17     1      115.817001      273.714591    ;  uncertainty theta = 0.006864, k = 0.226136
        13        14        15     1      108.583939      787.814334    ;  uncertainty theta = 0.001159, k = 0.026354
        13        14        16     1      108.583939      787.814334    ;  uncertainty theta = 0.001159, k = 0.026354
        15        14        16     1      108.583939      787.814334    ;  uncertainty theta = 0.001159, k = 0.026354
        17        18        19     1      115.970016      404.550204    ;  uncertainty theta = 0.005668, k = 0.255540
        17        22        21     1      120.629623      683.767468    ;  uncertainty theta = 0.003080, k = 0.091816
        17        22        25     1      122.644409      283.062961    ;  uncertainty theta = 0.002885, k = 0.052189
        18        17        22     1      118.806763      363.257305    ;  uncertainty theta = 0.009187, k = 0.238480
        18        19        20     1      115.314865      532.656539    ;  uncertainty theta = 0.002632, k = 0.167830
        18        19        23     1      122.400612      279.121818    ;  uncertainty theta = 0.002869, k = 0.166139
        19        20        21     1      124.778404      691.036031    ;  uncertainty theta = 0.002990, k = 0.069403
        19        20        24     1      119.864586      278.454087    ;  uncertainty theta = 0.001011, k = 0.065519
        20        19        23     1      122.263321      281.429543    ;  uncertainty theta = 0.001664, k = 0.102395
        20        21        22     1      120.828514      421.094612    ;  uncertainty theta = 0.000536, k = 0.229021
        21        20        24     1      115.400146      335.590752    ;  uncertainty theta = 0.001276, k = 0.019317
        21        22        25     1      116.830650      338.670048    ;  uncertainty theta = 0.002752, k = 0.124588
        26        28        29     1      107.689163      448.551090    ;  uncertainty theta = 0.000753, k = 0.025737
        26        28        30     1      107.689163      448.551090    ;  uncertainty theta = 0.000753, k = 0.025737
        26        28        31     1      109.607864      592.149704    ;  uncertainty theta = 0.002554, k = 0.082709
        27        26        28     1      110.460510      357.407487    ;  uncertainty theta = 0.004460, k = 0.106286
        28        31        32     1      108.909729      408.156363    ;  uncertainty theta = 0.001261, k = 0.018125
        28        31        33     1      108.909729      408.156363    ;  uncertainty theta = 0.001261, k = 0.018125
        28        31        34     1      110.570679      754.124055    ;  uncertainty theta = 0.000849, k = 0.076000
        29        28        30     1      106.188004      320.979822    ;  uncertainty theta = 0.001015, k = 0.026813
        29        28        31     1      108.323471      409.009494    ;  uncertainty theta = 0.000980, k = 0.034277
        30        28        31     1      108.323471      409.009494    ;  uncertainty theta = 0.000980, k = 0.034277
        31        34        35     1      107.231689      449.876466    ;  uncertainty theta = 0.001511, k = 0.037261
        32        31        33     1      107.491989      319.418324    ;  uncertainty theta = 0.001622, k = 0.044059
        32        31        34     1      108.490829      475.499444    ;  uncertainty theta = 0.000868, k = 0.016919
        33        31        34     1      108.490829      475.499444    ;  uncertainty theta = 0.000868, k = 0.016919

[ dihedrals ] ; propers for gromacs 4.5 or higher, use funct 9
;       ai        aj        ak        al funct           phase               k        pn
         1         2         3         4     9        0.000000        0.111540         1    ;  uncertainty k = 0.610091
         1         2         3         4     9      180.000000        6.906345         2    ;  uncertainty k = 0.174510
         1         2         3         4     9        0.000000        0.054444         3    ;  uncertainty k = 0.405411
         1         2         3         4     9      180.000000        1.282995         4    ;  uncertainty k = 0.202683
         1         2         3        26     9        0.000000       -0.028644         1    ;  uncertainty k = 0.894675
         1         2         3        26     9      180.000000        7.980864         2    ;  uncertainty k = 0.259681
         1         2         3        26     9        0.000000        0.832046         3    ;  uncertainty k = 0.310788
         1         2         3        26     9      180.000000        1.409796         4    ;  uncertainty k = 0.116721
         1         6         5         4     9        0.000000       -0.577248         1    ;  uncertainty k = 0.968917
         1         6         5         4     9      180.000000       11.732361         2    ;  uncertainty k = 0.429272
         1         6         5         4     9        0.000000        1.771716         3    ;  uncertainty k = 0.402030
         1         6         5         4     9      180.000000        1.118634         4    ;  uncertainty k = 0.221702
         1         6         5         7     9        0.000000        0.284523         1    ;  uncertainty k = 1.521075
         1         6         5         7     9      180.000000       14.202134         2    ;  uncertainty k = 0.307095
         1         6         5         7     9        0.000000        2.613692         3    ;  uncertainty k = 0.167358
         1         6         5         7     9      180.000000        1.370744         4    ;  uncertainty k = 0.410559
         2         1         6         5     9        0.000000       -0.000295         1    ;  uncertainty k = 0.479071
         2         1         6         5     9      180.000000       13.803258         2    ;  uncertainty k = 0.211403
         2         1         6         5     9        0.000000        1.374102         3    ;  uncertainty k = 0.412027
         2         1         6         5     9      180.000000        1.307398         4    ;  uncertainty k = 0.253973
         2         1        14        13     9        0.000000       -1.133641         1    ;  uncertainty k = 0.905888
         2         1        14        13     9      180.000000        3.105264         2    ;  uncertainty k = 0.377339
         2         1        14        13     9        0.000000        0.239679         3    ;  uncertainty k = 0.087242
         2         1        14        13     9      180.000000        0.020961         4    ;  uncertainty k = 0.147697
         2         1        14        15     9        0.000000       -1.133641         1    ;  uncertainty k = 0.905888
         2         1        14        15     9      180.000000        3.105264         2    ;  uncertainty k = 0.377339
         2         1        14        15     9        0.000000        0.239679         3    ;  uncertainty k = 0.087242
         2         1        14        15     9      180.000000        0.020961         4    ;  uncertainty k = 0.147697
         2         1        14        16     9        0.000000       -1.133641         1    ;  uncertainty k = 0.905888
         2         1        14        16     9      180.000000        3.105264         2    ;  uncertainty k = 0.377339
         2         1        14        16     9        0.000000        0.239679         3    ;  uncertainty k = 0.087242
         2         1        14        16     9      180.000000        0.020961         4    ;  uncertainty k = 0.147697
         2         3         4         5     9        0.000000        0.116321         1    ;  uncertainty k = 0.406824
         2         3         4         5     9      180.000000        7.613293         2    ;  uncertainty k = 0.347943
         2         3         4         5     9        0.000000        0.088175         3    ;  uncertainty k = 0.347656
         2         3         4         5     9      180.000000        1.316978         4    ;  uncertainty k = 0.220941
         2         3         4        11     9        0.000000        0.427421         1    ;  uncertainty k = 0.488585
         2         3         4        11     9      180.000000        6.311714         2    ;  uncertainty k = 0.449524
         2         3         4        11     9        0.000000        1.423482         3    ;  uncertainty k = 0.137713
         2         3         4        11     9      180.000000        1.601913         4    ;  uncertainty k = 0.128426
         2         3        26        27     9        0.000000        4.536640         1    ;  uncertainty k = 0.491738
         2         3        26        27     9      180.000000        8.170964         2    ;  uncertainty k = 0.199229
         2         3        26        27     9        0.000000        1.038392         3    ;  uncertainty k = 0.321075
         2         3        26        27     9      180.000000       -0.395894         4    ;  uncertainty k = 0.158655
         2         3        26        28     9        0.000000        3.415168         1    ;  uncertainty k = 0.654437
         2         3        26        28     9      180.000000        8.757140         2    ;  uncertainty k = 0.215334
         2         3        26        28     9        0.000000        0.691534         3    ;  uncertainty k = 0.276104
         2         3        26        28     9      180.000000       -0.267128         4    ;  uncertainty k = 0.137157
         3         2         1         6     9        0.000000       -0.327442         1    ;  uncertainty k = 0.617172
         3         2         1         6     9      180.000000       13.157879         2    ;  uncertainty k = 0.466405
         3         2         1         6     9        0.000000       -0.654309         3    ;  uncertainty k = 0.368255
         3         2         1         6     9      180.000000        0.989668         4    ;  uncertainty k = 0.370763
         3         2         1        14     9        0.000000        0.512572         1    ;  uncertainty k = 0.241939
         3         2         1        14     9      180.000000        8.857133         2    ;  uncertainty k = 0.565675
         3         2         1        14     9        0.000000        1.342171         3    ;  uncertainty k = 0.410913
         3         2         1        14     9      180.000000        1.590717         4    ;  uncertainty k = 0.259276
         3         4         5         6     9        0.000000       -0.155983         1    ;  uncertainty k = 0.259261
         3         4         5         6     9      180.000000       11.581949         2    ;  uncertainty k = 0.365327
         3         4         5         6     9        0.000000       -0.214537         3    ;  uncertainty k = 0.305978
         3         4         5         6     9      180.000000        1.116152         4    ;  uncertainty k = 0.264663
         3         4         5         7     9        0.000000       -0.129744         1    ;  uncertainty k = 0.508865
         3         4         5         7     9      180.000000        7.413711         2    ;  uncertainty k = 0.585560
         3         4         5         7     9        0.000000        0.944995         3    ;  uncertainty k = 0.226231
         3         4         5         7     9      180.000000        1.388115         4    ;  uncertainty k = 0.346101
         3        26        28        29     9        0.000000       -0.395739         1    ;  uncertainty k = 0.242487
         3        26        28        29     9      180.000000       -1.245961         2    ;  uncertainty k = 0.157730
         3        26        28        29     9        0.000000        0.508273         3    ;  uncertainty k = 0.074297
         3        26        28        29     9      180.000000        0.355112         4    ;  uncertainty k = 0.055896
         3        26        28        30     9        0.000000       -0.395739         1    ;  uncertainty k = 0.242487
         3        26        28        30     9      180.000000       -1.245961         2    ;  uncertainty k = 0.157730
         3        26        28        30     9        0.000000        0.508273         3    ;  uncertainty k = 0.074297
         3        26        28        30     9      180.000000        0.355112         4    ;  uncertainty k = 0.055896
         3        26        28        31     9        0.000000        1.196352         1    ;  uncertainty k = 0.393336
         3        26        28        31     9      180.000000       -1.172338         2    ;  uncertainty k = 0.286112
         3        26        28        31     9        0.000000        0.571561         3    ;  uncertainty k = 0.269917
         3        26        28        31     9      180.000000        0.341095         4    ;  uncertainty k = 0.043547
         4         3         2        10     9        0.000000        0.369501         1    ;  uncertainty k = 0.775248
         4         3         2        10     9      180.000000        6.035050         2    ;  uncertainty k = 0.633350
         4         3         2        10     9        0.000000        1.307625         3    ;  uncertainty k = 0.269073
         4         3         2        10     9      180.000000        1.446592         4    ;  uncertainty k = 0.178755
         4         3        26        27     9        0.000000        5.155627         1    ;  uncertainty k = 0.789508
         4         3        26        27     9      180.000000        7.991768         2    ;  uncertainty k = 0.229611
         4         3        26        27     9        0.000000        0.944340         3    ;  uncertainty k = 0.328145
         4         3        26        27     9      180.000000       -0.373103         4    ;  uncertainty k = 0.145097
         4         3        26        28     9        0.000000        3.728941         1    ;  uncertainty k = 0.786389
         4         3        26        28     9      180.000000        8.669704         2    ;  uncertainty k = 0.168335
         4         3        26        28     9        0.000000        0.651368         3    ;  uncertainty k = 0.322176
         4         3        26        28     9      180.000000       -0.237712         4    ;  uncertainty k = 0.142707
         4         5         7         8     9        0.000000        1.093672         1    ;  uncertainty k = 0.992818
         4         5         7         8     9      180.000000        4.255707         2    ;  uncertainty k = 0.230172
         4         5         7         8     9        0.000000        0.604971         3    ;  uncertainty k = 0.229770
         4         5         7         8     9      180.000000       -0.015520         4    ;  uncertainty k = 0.093062
         4         5         7        18     9        0.000000        0.119007         1    ;  uncertainty k = 0.554377
         4         5         7        18     9      180.000000        3.475820         2    ;  uncertainty k = 0.177022
         4         5         7        18     9        0.000000        0.555690         3    ;  uncertainty k = 0.219587
         4         5         7        18     9      180.000000       -0.076255         4    ;  uncertainty k = 0.055403
         5         4         3        26     9        0.000000       -0.069540         1    ;  uncertainty k = 0.679072
         5         4         3        26     9      180.000000        8.849546         2    ;  uncertainty k = 0.204972
         5         4         3        26     9        0.000000        0.741124         3    ;  uncertainty k = 0.479247
         5         4         3        26     9      180.000000        1.495585         4    ;  uncertainty k = 0.082886
         5         6         1        14     9        0.000000        0.963130         1    ;  uncertainty k = 0.808457
         5         6         1        14     9      180.000000       14.696904         2    ;  uncertainty k = 0.492874
         5         6         1        14     9        0.000000        2.117113         3    ;  uncertainty k = 0.470618
         5         6         1        14     9      180.000000        1.772207         4    ;  uncertainty k = 0.548269
         5         7         8         9     9        0.000000        0.812768         1    ;  uncertainty k = 0.692351
         5         7         8         9     9      180.000000       23.654023         2    ;  uncertainty k = 0.298806
         5         7         8         9     9        0.000000        1.808178         3    ;  uncertainty k = 0.523592
         5         7         8         9     9      180.000000        1.305590         4    ;  uncertainty k = 0.468473
         5         7        18        17     9        0.000000        0.075270         1    ;  uncertainty k = 0.733842
         5         7        18        17     9      180.000000        8.659693         2    ;  uncertainty k = 0.320491
         5         7        18        17     9        0.000000        1.064688         3    ;  uncertainty k = 0.381826
         5         7        18        17     9      180.000000        0.578302         4    ;  uncertainty k = 0.214841
         5         7        18        19     9        0.000000        0.273515         1    ;  uncertainty k = 1.211796
         5         7        18        19     9      180.000000        4.567780         2    ;  uncertainty k = 0.909360
         5         7        18        19     9        0.000000        1.236922         3    ;  uncertainty k = 0.313482
         5         7        18        19     9      180.000000        0.063660         4    ;  uncertainty k = 0.157617
         6         1         2        10     9        0.000000        0.003189         1    ;  uncertainty k = 0.288873
         6         1         2        10     9      180.000000        8.414355         2    ;  uncertainty k = 0.587037
         6         1         2        10     9        0.000000        1.201473         3    ;  uncertainty k = 0.177920
         6         1         2        10     9      180.000000        1.661943         4    ;  uncertainty k = 0.199304
         6         1        14        13     9        0.000000        6.969298         1    ;  uncertainty k = 0.875492
         6         1        14        13     9      180.000000        3.727146         2    ;  uncertainty k = 0.249490
         6         1        14        13     9        0.000000        0.676152         3    ;  uncertainty k = 0.046660
         6         1        14        13     9      180.000000        0.129554         4    ;  uncertainty k = 0.141840
         6         1        14        15     9        0.000000        6.969298         1    ;  uncertainty k = 0.875492
         6         1        14        15     9      180.000000        3.727146         2    ;  uncertainty k = 0.249490
         6         1        14        15     9        0.000000        0.676152         3    ;  uncertainty k = 0.046660
         6         1        14        15     9      180.000000        0.129554         4    ;  uncertainty k = 0.141840
         6         1        14        16     9        0.000000        6.969298         1    ;  uncertainty k = 0.875492
         6         1        14        16     9      180.000000        3.727146         2    ;  uncertainty k = 0.249490
         6         1        14        16     9        0.000000        0.676152         3    ;  uncertainty k = 0.046660
         6         1        14        16     9      180.000000        0.129554         4    ;  uncertainty k = 0.141840
         6         5         4        11     9        0.000000        0.358966         1    ;  uncertainty k = 0.386393
         6         5         4        11     9      180.000000        8.096725         2    ;  uncertainty k = 0.407726
         6         5         4        11     9        0.000000        1.319761         3    ;  uncertainty k = 0.200318
         6         5         4        11     9      180.000000        1.648155         4    ;  uncertainty k = 0.155355
         6         5         7         8     9        0.000000       -1.161552         1    ;  uncertainty k = 0.900491
         6         5         7         8     9      180.000000        5.172957         2    ;  uncertainty k = 0.444484
         6         5         7         8     9        0.000000        0.785619         3    ;  uncertainty k = 0.200312
         6         5         7         8     9      180.000000        0.020642         4    ;  uncertainty k = 0.069686
         6         5         7        18     9        0.000000        0.986394         1    ;  uncertainty k = 0.614143
         6         5         7        18     9      180.000000        4.373334         2    ;  uncertainty k = 0.129474
         6         5         7        18     9        0.000000        0.717560         3    ;  uncertainty k = 0.314953
         6         5         7        18     9      180.000000        0.028367         4    ;  uncertainty k = 0.106696
         7         5         4        11     9        0.000000       -0.362058         1    ;  uncertainty k = 0.520478
         7         5         4        11     9      180.000000        6.604698         2    ;  uncertainty k = 0.418323
         7         5         4        11     9        0.000000        0.460571         3    ;  uncertainty k = 0.314318
         7         5         4        11     9      180.000000        0.798496         4    ;  uncertainty k = 0.540739
         7         8         9        12     9        0.000000        2.770976         1    ;  uncertainty k = 0.746788
         7         8         9        12     9      180.000000       14.134509         2    ;  uncertainty k = 0.357857
         7         8         9        12     9        0.000000        1.716562         3    ;  uncertainty k = 1.043337
         7         8         9        12     9      180.000000       -0.258112         4    ;  uncertainty k = 0.519689
         7         8         9        17     9        0.000000       -0.787726         1    ;  uncertainty k = 0.797012
         7         8         9        17     9      180.000000       18.727338         2    ;  uncertainty k = 0.600130
         7         8         9        17     9        0.000000       -4.685325         3    ;  uncertainty k = 1.208671
         7         8         9        17     9      180.000000        1.127230         4    ;  uncertainty k = 0.530634
         7        18        17         9     9        0.000000       -0.108771         1    ;  uncertainty k = 0.488647
         7        18        17         9     9      180.000000       12.807814         2    ;  uncertainty k = 0.904617
         7        18        17         9     9        0.000000       -3.956686         3    ;  uncertainty k = 1.506008
         7        18        17         9     9      180.000000        1.600022         4    ;  uncertainty k = 0.567450
         7        18        17        22     9        0.000000        0.236718         1    ;  uncertainty k = 0.412601
         7        18        17        22     9      180.000000        6.659846         2    ;  uncertainty k = 0.563647
         7        18        17        22     9        0.000000       -0.043692         3    ;  uncertainty k = 0.631194
         7        18        17        22     9      180.000000        1.401156         4    ;  uncertainty k = 0.333630
         7        18        19        20     9        0.000000        0.233782         1    ;  uncertainty k = 0.407408
         7        18        19        20     9      180.000000        8.603015         2    ;  uncertainty k = 0.504771
         7        18        19        20     9        0.000000        0.577450         3    ;  uncertainty k = 0.697361
         7        18        19        20     9      180.000000        1.283013         4    ;  uncertainty k = 0.243696
         7        18        19        23     9        0.000000        0.364330         1    ;  uncertainty k = 0.836888
         7        18        19        23     9      180.000000        5.523524         2    ;  uncertainty k = 0.350426
         7        18        19        23     9        0.000000        1.090698         3    ;  uncertainty k = 0.205085
         7        18        19        23     9      180.000000        0.628127         4    ;  uncertainty k = 0.251616
         8         7        18        17     9        0.000000        0.610273         1    ;  uncertainty k = 0.501014
         8         7        18        17     9      180.000000       14.255016         2    ;  uncertainty k = 0.771338
         8         7        18        17     9        0.000000      -10.546579         3    ;  uncertainty k = 2.225753
         8         7        18        17     9      180.000000        1.865383         4    ;  uncertainty k = 0.506309
         8         7        18        19     9        0.000000        0.365432         1    ;  uncertainty k = 0.758914
         8         7        18        19     9      180.000000        7.157477         2    ;  uncertainty k = 0.776425
         8         7        18        19     9        0.000000       -0.101410         3    ;  uncertainty k = 0.566784
         8         7        18        19     9      180.000000        1.064836         4    ;  uncertainty k = 0.278638
         8         9        17        18     9        0.000000        0.198820         1    ;  uncertainty k = 0.505963
         8         9        17        18     9      180.000000       17.491902         2    ;  uncertainty k = 1.147064
         8         9        17        18     9        0.000000       -8.920169         3    ;  uncertainty k = 1.237534
         8         9        17        18     9      180.000000        0.707682         4    ;  uncertainty k = 0.552471
         8         9        17        22     9        0.000000        1.250443         1    ;  uncertainty k = 1.088918
         8         9        17        22     9      180.000000        5.981516         2    ;  uncertainty k = 0.369490
         8         9        17        22     9        0.000000        0.589869         3    ;  uncertainty k = 0.714586
         8         9        17        22     9      180.000000        0.388073         4    ;  uncertainty k = 0.288659
         9         8         7        18     9        0.000000       -0.301837         1    ;  uncertainty k = 0.464219
         9         8         7        18     9      180.000000       23.584448         2    ;  uncertainty k = 0.259292
         9         8         7        18     9        0.000000       -3.861664         3    ;  uncertainty k = 0.895442
         9         8         7        18     9      180.000000        2.020885         4    ;  uncertainty k = 0.482726
         9        17        18        19     9        0.000000       -0.054233         1    ;  uncertainty k = 0.538743
         9        17        18        19     9      180.000000        8.598682         2    ;  uncertainty k = 0.302891
         9        17        18        19     9        0.000000       -0.428091         3    ;  uncertainty k = 0.421523
         9        17        18        19     9      180.000000        1.318324         4    ;  uncertainty k = 0.383713
         9        17        22        21     9        0.000000        0.055374         1    ;  uncertainty k = 0.454362
         9        17        22        21     9      180.000000        9.704178         2    ;  uncertainty k = 0.644769
         9        17        22        21     9        0.000000        0.313974         3    ;  uncertainty k = 0.439173
         9        17        22        21     9      180.000000        1.094409         4    ;  uncertainty k = 0.271749
         9        17        22        25     9        0.000000        0.123656         1    ;  uncertainty k = 0.378738
         9        17        22        25     9      180.000000        4.665962         2    ;  uncertainty k = 0.815524
         9        17        22        25     9        0.000000        0.879977         3    ;  uncertainty k = 0.356095
         9        17        22        25     9      180.000000        0.645808         4    ;  uncertainty k = 0.249958
        10         2         1        14     9        0.000000        0.310445         1    ;  uncertainty k = 0.509218
        10         2         1        14     9      180.000000        7.996177         2    ;  uncertainty k = 0.537909
        10         2         1        14     9        0.000000        0.676391         3    ;  uncertainty k = 0.461488
        10         2         1        14     9      180.000000        0.865359         4    ;  uncertainty k = 0.303946
        10         2         3        26     9        0.000000       -0.314833         1    ;  uncertainty k = 0.474361
        10         2         3        26     9      180.000000        7.352823         2    ;  uncertainty k = 0.527574
        10         2         3        26     9        0.000000        0.944084         3    ;  uncertainty k = 0.306283
        10         2         3        26     9      180.000000        0.914553         4    ;  uncertainty k = 0.285262
        11         4         3        26     9        0.000000       -0.561592         1    ;  uncertainty k = 0.457444
        11         4         3        26     9      180.000000        7.516009         2    ;  uncertainty k = 0.491409
        11         4         3        26     9        0.000000        0.917281         3    ;  uncertainty k = 0.284962
        11         4         3        26     9      180.000000        1.046722         4    ;  uncertainty k = 0.289129
        12         9        17        18     9        0.000000        5.255176         1    ;  uncertainty k = 1.283403
        12         9        17        18     9      180.000000        5.663120         2    ;  uncertainty k = 1.032600
        12         9        17        18     9        0.000000        1.336996         3    ;  uncertainty k = 0.234967
        12         9        17        18     9      180.000000        0.139973         4    ;  uncertainty k = 0.217766
        12         9        17        22     9        0.000000        1.702967         1    ;  uncertainty k = 1.043351
        12         9        17        22     9      180.000000        1.365467         2    ;  uncertainty k = 0.490234
        12         9        17        22     9        0.000000        1.123548         3    ;  uncertainty k = 0.561912
        12         9        17        22     9      180.000000        0.118546         4    ;  uncertainty k = 0.199135
        17        18        19        20     9        0.000000       -0.105249         1    ;  uncertainty k = 0.409560
        17        18        19        20     9      180.000000       13.891131         2    ;  uncertainty k = 0.426635
        17        18        19        20     9        0.000000       -2.697408         3    ;  uncertainty k = 0.564760
        17        18        19        20     9      180.000000        0.770388         4    ;  uncertainty k = 0.435204
        17        18        19        23     9        0.000000        0.002490         1    ;  uncertainty k = 0.505599
        17        18        19        23     9      180.000000        8.093019         2    ;  uncertainty k = 1.174660
        17        18        19        23     9        0.000000        1.404286         3    ;  uncertainty k = 0.404479
        17        18        19        23     9      180.000000        1.228516         4    ;  uncertainty k = 0.470746
        17        22        21        20     9        0.000000       -0.252878         1    ;  uncertainty k = 0.510021
        17        22        21        20     9      180.000000       20.853105         2    ;  uncertainty k = 0.234796
        17        22        21        20     9        0.000000        1.081840         3    ;  uncertainty k = 0.496388
        17        22        21        20     9      180.000000        1.388528         4    ;  uncertainty k = 0.211664
        18        17        22        21     9        0.000000       -0.414121         1    ;  uncertainty k = 0.905317
        18        17        22        21     9      180.000000       11.568613         2    ;  uncertainty k = 0.440632
        18        17        22        21     9        0.000000       -1.614811         3    ;  uncertainty k = 0.805391
        18        17        22        21     9      180.000000        0.741723         4    ;  uncertainty k = 0.376121
        18        17        22        25     9        0.000000       -0.473064         1    ;  uncertainty k = 0.698789
        18        17        22        25     9      180.000000        5.465762         2    ;  uncertainty k = 0.712927
        18        17        22        25     9        0.000000        1.000807         3    ;  uncertainty k = 0.167300
        18        17        22        25     9      180.000000        0.799321         4    ;  uncertainty k = 0.291971
        18        19        20        21     9        0.000000        0.071452         1    ;  uncertainty k = 0.300532
        18        19        20        21     9      180.000000       17.659210         2    ;  uncertainty k = 0.349063
        18        19        20        21     9        0.000000       -0.689604         3    ;  uncertainty k = 0.376615
        18        19        20        21     9      180.000000        0.663388         4    ;  uncertainty k = 0.313603
        18        19        20        24     9        0.000000        0.009015         1    ;  uncertainty k = 0.430458
        18        19        20        24     9      180.000000        9.659973         2    ;  uncertainty k = 0.438793
        18        19        20        24     9        0.000000        1.485842         3    ;  uncertainty k = 0.316066
        18        19        20        24     9      180.000000        1.579440         4    ;  uncertainty k = 0.291768
        19        18        17        22     9        0.000000       -0.759391         1    ;  uncertainty k = 0.601547
        19        18        17        22     9      180.000000        7.190857         2    ;  uncertainty k = 0.949990
        19        18        17        22     9        0.000000       -0.251390         3    ;  uncertainty k = 0.448304
        19        18        17        22     9      180.000000        1.091825         4    ;  uncertainty k = 0.320191
        19        20        21        22     9        0.000000       -0.436620         1    ;  uncertainty k = 0.776255
        19        20        21        22     9      180.000000       12.946578         2    ;  uncertainty k = 0.786682
        19        20        21        22     9        0.000000        1.183851         3    ;  uncertainty k = 0.644883
        19        20        21        22     9      180.000000        0.998173         4    ;  uncertainty k = 0.226636
        20        21        22        25     9        0.000000       -0.033956         1    ;  uncertainty k = 0.265338
        20        21        22        25     9      180.000000       17.351656         2    ;  uncertainty k = 0.485593
        20        21        22        25     9        0.000000        2.240643         3    ;  uncertainty k = 0.459831
        20        21        22        25     9      180.000000        1.512407         4    ;  uncertainty k = 0.334544
        21        20        19        23     9        0.000000        0.142019         1    ;  uncertainty k = 0.386626
        21        20        19        23     9      180.000000       10.815321         2    ;  uncertainty k = 0.413759
        21        20        19        23     9        0.000000        1.155863         3    ;  uncertainty k = 0.306211
        21        20        19        23     9      180.000000        1.703716         4    ;  uncertainty k = 0.177377
        22        21        20        24     9        0.000000        0.290229         1    ;  uncertainty k = 0.545024
        22        21        20        24     9      180.000000       12.968728         2    ;  uncertainty k = 0.341072
        22        21        20        24     9        0.000000        1.987336         3    ;  uncertainty k = 0.646505
        22        21        20        24     9      180.000000        1.339015         4    ;  uncertainty k = 0.220979
        23        19        20        24     9        0.000000       -0.121980         1    ;  uncertainty k = 0.219748
        23        19        20        24     9      180.000000        7.231504         2    ;  uncertainty k = 0.210280
        23        19        20        24     9        0.000000       -0.016899         3    ;  uncertainty k = 0.156263
        23        19        20        24     9      180.000000        0.322036         4    ;  uncertainty k = 0.227772
        26        28        31        32     9        0.000000       -0.348028         1    ;  uncertainty k = 0.637090
        26        28        31        32     9      180.000000       -0.454736         2    ;  uncertainty k = 0.569111
        26        28        31        32     9        0.000000        1.147182         3    ;  uncertainty k = 0.103490
        26        28        31        32     9      180.000000       -0.009899         4    ;  uncertainty k = 0.113999
        26        28        31        33     9        0.000000       -0.348028         1    ;  uncertainty k = 0.637090
        26        28        31        33     9      180.000000       -0.454736         2    ;  uncertainty k = 0.569111
        26        28        31        33     9        0.000000        1.147182         3    ;  uncertainty k = 0.103490
        26        28        31        33     9      180.000000       -0.009899         4    ;  uncertainty k = 0.113999
        26        28        31        34     9        0.000000       -1.224818         1    ;  uncertainty k = 1.062569
        26        28        31        34     9      180.000000       -1.090037         2    ;  uncertainty k = 0.395248
        26        28        31        34     9        0.000000        2.478194         3    ;  uncertainty k = 0.368188
        26        28        31        34     9      180.000000       -0.733840         4    ;  uncertainty k = 0.382592
        27        26        28        29     9        0.000000        2.415556         1    ;  uncertainty k = 0.717309
        27        26        28        29     9      180.000000       -2.673917         2    ;  uncertainty k = 0.356855
        27        26        28        29     9        0.000000        0.200139         3    ;  uncertainty k = 0.102264
        27        26        28        29     9      180.000000        0.154116         4    ;  uncertainty k = 0.057310
        27        26        28        30     9        0.000000        2.415556         1    ;  uncertainty k = 0.717309
        27        26        28        30     9      180.000000       -2.673917         2    ;  uncertainty k = 0.356855
        27        26        28        30     9        0.000000        0.200139         3    ;  uncertainty k = 0.102264
        27        26        28        30     9      180.000000        0.154116         4    ;  uncertainty k = 0.057310
        27        26        28        31     9        0.000000        3.787697         1    ;  uncertainty k = 0.394558
        27        26        28        31     9      180.000000       -3.675009         2    ;  uncertainty k = 0.168468
        27        26        28        31     9        0.000000        0.543143         3    ;  uncertainty k = 0.052556
        27        26        28        31     9      180.000000        0.020842         4    ;  uncertainty k = 0.095309
        28        31        34        35     9        0.000000       15.176044         1    ;  uncertainty k = 0.137079
        28        31        34        35     9      180.000000       -4.086705         2    ;  uncertainty k = 0.496434
        28        31        34        35     9        0.000000        1.213049         3    ;  uncertainty k = 0.126945
        28        31        34        35     9      180.000000        0.401606         4    ;  uncertainty k = 0.083969
        29        28        31        32     9        0.000000       -0.044449         1    ;  uncertainty k = 0.152239
        29        28        31        32     9      180.000000       -0.061200         2    ;  uncertainty k = 0.180439
        29        28        31        32     9        0.000000        0.247130         3    ;  uncertainty k = 0.063917
        29        28        31        32     9      180.000000       -0.033708         4    ;  uncertainty k = 0.131233
        29        28        31        33     9        0.000000       -0.044449         1    ;  uncertainty k = 0.152239
        29        28        31        33     9      180.000000       -0.061200         2    ;  uncertainty k = 0.180439
        29        28        31        33     9        0.000000        0.247130         3    ;  uncertainty k = 0.063917
        29        28        31        33     9      180.000000       -0.033708         4    ;  uncertainty k = 0.131233
        29        28        31        34     9        0.000000       -1.857509         1    ;  uncertainty k = 0.576429
        29        28        31        34     9      180.000000        0.003193         2    ;  uncertainty k = 0.172125
        29        28        31        34     9        0.000000        1.638726         3    ;  uncertainty k = 0.191543
        29        28        31        34     9      180.000000       -0.225941         4    ;  uncertainty k = 0.131375
        30        28        31        32     9        0.000000       -0.044449         1    ;  uncertainty k = 0.152239
        30        28        31        32     9      180.000000       -0.061200         2    ;  uncertainty k = 0.180439
        30        28        31        32     9        0.000000        0.247130         3    ;  uncertainty k = 0.063917
        30        28        31        32     9      180.000000       -0.033708         4    ;  uncertainty k = 0.131233
        30        28        31        33     9        0.000000       -0.044449         1    ;  uncertainty k = 0.152239
        30        28        31        33     9      180.000000       -0.061200         2    ;  uncertainty k = 0.180439
        30        28        31        33     9        0.000000        0.247130         3    ;  uncertainty k = 0.063917
        30        28        31        33     9      180.000000       -0.033708         4    ;  uncertainty k = 0.131233
        30        28        31        34     9        0.000000       -1.857509         1    ;  uncertainty k = 0.576429
        30        28        31        34     9      180.000000        0.003193         2    ;  uncertainty k = 0.172125
        30        28        31        34     9        0.000000        1.638726         3    ;  uncertainty k = 0.191543
        30        28        31        34     9      180.000000       -0.225941         4    ;  uncertainty k = 0.131375
        32        31        34        35     9        0.000000       11.147358         1    ;  uncertainty k = 0.163628
        32        31        34        35     9      180.000000       -1.976642         2    ;  uncertainty k = 0.161522
        32        31        34        35     9        0.000000        0.746600         3    ;  uncertainty k = 0.033740
        32        31        34        35     9      180.000000        0.108305         4    ;  uncertainty k = 0.046986
        33        31        34        35     9        0.000000       11.147358         1    ;  uncertainty k = 0.163628
        33        31        34        35     9      180.000000       -1.976642         2    ;  uncertainty k = 0.161522
        33        31        34        35     9        0.000000        0.746600         3    ;  uncertainty k = 0.033740
        33        31        34        35     9      180.000000        0.108305         4    ;  uncertainty k = 0.046986

[ dihedrals ] ; impropers
;       ai        aj        ak        al funct           phase               k        pn
         1         2         6        14     4      180.000000       18.417019         2    ;  uncertainty k = 0.062889
         1         6        14         2     4      180.000000       18.417019         2    ;  uncertainty k = 0.062889
         1        14         2         6     4      180.000000       18.417019         2    ;  uncertainty k = 0.062889
         2         1         3        10     4      180.000000        2.088703         2    ;  uncertainty k = 0.497353
         2         3        10         1     4      180.000000        2.088703         2    ;  uncertainty k = 0.497353
         2        10         1         3     4      180.000000        2.088703         2    ;  uncertainty k = 0.497353
         3         2         4        26     4      180.000000       23.714723         2    ;  uncertainty k = 0.091470
         3         4        26         2     4      180.000000       23.714723         2    ;  uncertainty k = 0.091470
         3        26         2         4     4      180.000000       23.714723         2    ;  uncertainty k = 0.091470
         4         3         5        11     4      180.000000        2.347437         2    ;  uncertainty k = 0.468863
         4         5        11         3     4      180.000000        2.347437         2    ;  uncertainty k = 0.468863
         4        11         3         5     4      180.000000        2.347437         2    ;  uncertainty k = 0.468863
         5         4         6         7     4      180.000000       22.929302         2    ;  uncertainty k = 0.066839
         5         6         7         4     4      180.000000       22.929302         2    ;  uncertainty k = 0.066839
         5         7         4         6     4      180.000000       22.929302         2    ;  uncertainty k = 0.066839
         7         5         8        18     4      180.000000        4.987406         2    ;  uncertainty k = 0.325531
         7         8        18         5     4      180.000000        4.987406         2    ;  uncertainty k = 0.325531
         7        18         5         8     4      180.000000        4.987406         2    ;  uncertainty k = 0.325531
        17         9        18        22     4      180.000000        1.076621         2    ;  uncertainty k = 2.143127
        17        18        22         9     4      180.000000        1.076621         2    ;  uncertainty k = 2.143127
        17        22         9        18     4      180.000000        1.076621         2    ;  uncertainty k = 2.143127
        18         7        17        19     4      180.000000        0.290047         2    ;  uncertainty k = 0.648565
        18        17        19         7     4      180.000000        0.290047         2    ;  uncertainty k = 0.648565
        18        19         7        17     4      180.000000        0.290047         2    ;  uncertainty k = 0.648565
        19        18        20        23     4      180.000000        3.987912         2    ;  uncertainty k = 0.218158
        19        20        23        18     4      180.000000        3.987912         2    ;  uncertainty k = 0.218158
        19        23        18        20     4      180.000000        3.987912         2    ;  uncertainty k = 0.218158
        20        19        21        24     4      180.000000       11.655334         2    ;  uncertainty k = 0.072161
        20        21        24        19     4      180.000000       11.655334         2    ;  uncertainty k = 0.072161
        20        24        19        21     4      180.000000       11.655334         2    ;  uncertainty k = 0.072161
        22        17        21        25     4      180.000000       11.621964         2    ;  uncertainty k = 0.089393
        22        21        25        17     4      180.000000       11.621964         2    ;  uncertainty k = 0.089393
        22        25        17        21     4      180.000000       11.621964         2    ;  uncertainty k = 0.089393
        26         3        27        28     4      180.000000        0.298561         2    ;  uncertainty k = 0.667602
        26        27        28         3     4      180.000000        0.298561         2    ;  uncertainty k = 0.667602
        26        28         3        27     4      180.000000        0.298561         2    ;  uncertainty k = 0.667602

[ pairs ]
;       ai        aj funct
         1         4     1
         1         7     1
         1        26     1
         2         5     1
         2        11     1
         2        13     1
         2        15     1
         2        16     1
         2        27     1
         2        28     1
         3         6     1
         3         7     1
         3        14     1
         3        29     1
         3        30     1
         3        31     1
         4         8     1
         4        10     1
         4        18     1
         4        27     1
         4        28     1
         5         9     1
         5        14     1
         5        17     1
         5        19     1
         5        26     1
         6         8     1
         6        10     1
         6        11     1
         6        13     1
         6        15     1
         6        16     1
         6        18     1
         7        11     1
         7        12     1
         7        20     1
         7        22     1
         7        23     1
         8        19     1
         8        22     1
         9        19     1
         9        21     1
         9        25     1
        10        14     1
        10        26     1
        11        26     1
        12        18     1
        12        22     1
        17        20     1
        17        23     1
        18        21     1
        18        24     1
        18        25     1
        19        22     1
        20        25     1
        21        23     1
        22        24     1
        23        24     1
        26        32     1
        26        33     1
        26        34     1
        27        29     1
        27        30     1
        27        31     1
        28        35     1
        29        32     1
        29        33     1
        29        34     1
        30        32     1
        30        33     1
        30        34     1
        32        35     1
        33        35     1
