; ITP file created by ByteFF-joint-25, 2025-07-14 11:27:22.617353

[ atomtypes ]
;name           bonded.type        at.num        mass        charge   ptype           sigma         epsilon
 c0bf                                   6      0.0000       0.00000       A     3.31504e-01     4.13692e-01    ;  uncertainty sigma = 0.000017, epsilon = 0.000640
 c1bf                                   6      0.0000       0.00000       A     3.31545e-01     4.12653e-01    ;  uncertainty sigma = 0.000018, epsilon = 0.001179
 c2bf                                   6      0.0000       0.00000       A     3.31536e-01     4.13134e-01    ;  uncertainty sigma = 0.000015, epsilon = 0.001207
 n3bf                                   7      0.0000       0.00000       A     3.38425e-01     3.92894e-01    ;  uncertainty sigma = 0.000021, epsilon = 0.001063
 c4bf                                   6      0.0000       0.00000       A     3.31499e-01     4.13080e-01    ;  uncertainty sigma = 0.000019, epsilon = 0.001190
 n5bf                                   7      0.0000       0.00000       A     3.38421e-01     3.93149e-01    ;  uncertainty sigma = 0.000011, epsilon = 0.000882
 c6bf                                   6      0.0000       0.00000       A     3.31528e-01     4.13092e-01    ;  uncertainty sigma = 0.000013, epsilon = 0.001574
 n7bf                                   7      0.0000       0.00000       A     3.38424e-01     3.94177e-01    ;  uncertainty sigma = 0.000016, epsilon = 0.000656
 n8bf                                   7      0.0000       0.00000       A     3.20626e-01     8.54559e-01    ;  uncertainty sigma = 0.000017, epsilon = 0.002131
 h9bf                                   1      0.0000       0.00000       A     2.62554e-01     6.67660e-02    ;  uncertainty sigma = 0.000027, epsilon = 0.000851
 h10bf                                  1      0.0000       0.00000       A     1.10684e-01     4.13486e-02    ;  uncertainty sigma = 0.000124, epsilon = 0.000806
 f11bf                                  9      0.0000       0.00000       A     3.03422e-01     3.47876e-01    ;  uncertainty sigma = 0.000009, epsilon = 0.001355
 c12bf                                  6      0.0000       0.00000       A     3.39796e-01     4.50263e-01    ;  uncertainty sigma = 0.000006, epsilon = 0.001458
 f13bf                                  9      0.0000       0.00000       A     3.03422e-01     3.47876e-01    ;  uncertainty sigma = 0.000009, epsilon = 0.001355
 f14bf                                  9      0.0000       0.00000       A     3.03422e-01     3.47876e-01    ;  uncertainty sigma = 0.000009, epsilon = 0.001355
 c15bf                                  6      0.0000       0.00000       A     3.31479e-01     4.13004e-01    ;  uncertainty sigma = 0.000010, epsilon = 0.000916
 c16bf                                  6      0.0000       0.00000       A     3.31547e-01     4.12872e-01    ;  uncertainty sigma = 0.000013, epsilon = 0.000828
 c17bf                                  6      0.0000       0.00000       A     3.31522e-01     4.13480e-01    ;  uncertainty sigma = 0.000005, epsilon = 0.000687
 c18bf                                  6      0.0000       0.00000       A     3.31517e-01     4.13658e-01    ;  uncertainty sigma = 0.000011, epsilon = 0.000613
 n19bf                                  7      0.0000       0.00000       A     3.38414e-01     3.93940e-01    ;  uncertainty sigma = 0.000017, epsilon = 0.001294
 c20bf                                  6      0.0000       0.00000       A     3.31543e-01     4.13211e-01    ;  uncertainty sigma = 0.000008, epsilon = 0.000677
 h21bf                                  1      0.0000       0.00000       A     2.62561e-01     6.70301e-02    ;  uncertainty sigma = 0.000008, epsilon = 0.000547
 h22bf                                  1      0.0000       0.00000       A     2.53651e-01     6.69297e-02    ;  uncertainty sigma = 0.000013, epsilon = 0.000381
 h23bf                                  1      0.0000       0.00000       A     2.53627e-01     6.72964e-02    ;  uncertainty sigma = 0.000055, epsilon = 0.000565
 n24bf                                  7      0.0000       0.00000       A     3.27843e-01     6.47568e-01    ;  uncertainty sigma = 0.000016, epsilon = 0.002482
 h25bf                                  1      0.0000       0.00000       A     1.10622e-01     4.14174e-02    ;  uncertainty sigma = 0.000130, epsilon = 0.000724
 c26bf                                  6      0.0000       0.00000       A     3.39768e-01     4.50961e-01    ;  uncertainty sigma = 0.000014, epsilon = 0.000985
 h27bf                                  1      0.0000       0.00000       A     2.42199e-01     8.65037e-02    ;  uncertainty sigma = 0.000031, epsilon = 0.000810
 h28bf                                  1      0.0000       0.00000       A     2.42199e-01     8.65037e-02    ;  uncertainty sigma = 0.000031, epsilon = 0.000810
 c29bf                                  6      0.0000       0.00000       A     3.39779e-01     4.50818e-01    ;  uncertainty sigma = 0.000014, epsilon = 0.000243
 h30bf                                  1      0.0000       0.00000       A     2.42163e-01     8.63064e-02    ;  uncertainty sigma = 0.000031, epsilon = 0.000753
 h31bf                                  1      0.0000       0.00000       A     2.42163e-01     8.63064e-02    ;  uncertainty sigma = 0.000031, epsilon = 0.000753
 o32bf                                  8      0.0000       0.00000       A     3.24285e-01     3.88090e-01    ;  uncertainty sigma = 0.000032, epsilon = 0.001409
 h33bf                                  1      0.0000       0.00000       A     5.37995e-02     1.93816e-02    ;  uncertainty sigma = 0.000100, epsilon = 0.001338

[ moleculetype ]
;name             nrexcl
 MOL                   3

[ atoms ]
;       nr            type      resi   res      atom      cgnr      charge          mass ; qtot
         1            c0bf         1   UNL        c0         1     0.38953       12.0110 ; qtot    0.390
         2            c1bf         1   UNL        c1         2    -0.38051       12.0110 ; qtot    0.009
         3            c2bf         1   UNL        c2         3     0.71276       12.0110 ; qtot    0.722
         4            n3bf         1   UNL        n3         4    -0.76665       14.0070 ; qtot   -0.045
         5            c4bf         1   UNL        c4         5     0.71120       12.0110 ; qtot    0.666
         6            n5bf         1   UNL        n5         6    -0.67373       14.0070 ; qtot   -0.007
         7            c6bf         1   UNL        c6         7     0.27266       12.0110 ; qtot    0.265
         8            n7bf         1   UNL        n7         8    -0.45701       14.0070 ; qtot   -0.192
         9            n8bf         1   UNL        n8         9    -0.00855       14.0070 ; qtot   -0.200
        10            h9bf         1   UNL        h9        10     0.16890        1.0080 ; qtot   -0.031
        11           h10bf         1   UNL       h10        11     0.33884        1.0080 ; qtot    0.307
        12           f11bf         1   UNL       f11        12    -0.21850       18.9980 ; qtot    0.089
        13           c12bf         1   UNL       c12        13     0.61892       12.0110 ; qtot    0.708
        14           f13bf         1   UNL       f13        14    -0.21850       18.9980 ; qtot    0.489
        15           f14bf         1   UNL       f14        15    -0.21850       18.9980 ; qtot    0.271
        16           c15bf         1   UNL       c15        16    -0.17292       12.0110 ; qtot    0.098
        17           c16bf         1   UNL       c16        17    -0.15111       12.0110 ; qtot   -0.053
        18           c17bf         1   UNL       c17        18    -0.16224       12.0110 ; qtot   -0.215
        19           c18bf         1   UNL       c18        19     0.36191       12.0110 ; qtot    0.146
        20           n19bf         1   UNL       n19        20    -0.63964       14.0070 ; qtot   -0.493
        21           c20bf         1   UNL       c20        21     0.40071       12.0110 ; qtot   -0.092
        22           h21bf         1   UNL       h21        22     0.16210        1.0080 ; qtot    0.070
        23           h22bf         1   UNL       h22        23     0.02274        1.0080 ; qtot    0.092
        24           h23bf         1   UNL       h23        24     0.02700        1.0080 ; qtot    0.119
        25           n24bf         1   UNL       n24        25    -0.87532       14.0070 ; qtot   -0.756
        26           h25bf         1   UNL       h25        26     0.43890        1.0080 ; qtot   -0.317
        27           c26bf         1   UNL       c26        27     0.19246       12.0110 ; qtot   -0.125
        28           h27bf         1   UNL       h27        28     0.06017        1.0080 ; qtot   -0.064
        29           h28bf         1   UNL       h28        29     0.06017        1.0080 ; qtot   -0.004
        30           c29bf         1   UNL       c29        30     0.11166       12.0110 ; qtot    0.107
        31           h30bf         1   UNL       h30        31     0.04395        1.0080 ; qtot    0.151
        32           h31bf         1   UNL       h31        32     0.04395        1.0080 ; qtot    0.195
        33           o32bf         1   UNL       o32        33    -0.60307       15.9990 ; qtot   -0.408
        34           h33bf         1   UNL       h33        34     0.40772        1.0080 ; qtot   -0.000

[ bonds ]
;       ai        aj funct               r               k
         1         2     1        0.138675   382194.022607    ;  uncertainty r = 0.000101, k = 8.122017
         1         6     1        0.132135   376442.044092    ;  uncertainty r = 0.000038, k = 17.174398
         1        13     1        0.148620   230335.967334    ;  uncertainty r = 0.000225, k = 5.978346
         2         3     1        0.142415   442062.838770    ;  uncertainty r = 0.000085, k = 11.631608
         2        10     1        0.108884   345838.193457    ;  uncertainty r = 0.000045, k = 4.369171
         3         4     1        0.136138   545927.676465    ;  uncertainty r = 0.000237, k = 9.372185
         3        25     1        0.139629   464149.322852    ;  uncertainty r = 0.000331, k = 27.525790
         4         5     1        0.134729   376383.845020    ;  uncertainty r = 0.000076, k = 13.638540
         5         6     1        0.134581   350140.813330    ;  uncertainty r = 0.000143, k = 6.429353
         5         7     1        0.143846   270077.659668    ;  uncertainty r = 0.000194, k = 24.496393
         7         8     1        0.133004   426056.382910    ;  uncertainty r = 0.000152, k = 12.243280
         7        17     1        0.143977   213377.909399    ;  uncertainty r = 0.000137, k = 15.951510
         8         9     1        0.134831   288143.096045    ;  uncertainty r = 0.000088, k = 13.075901
         9        11     1        0.101141   415256.356299    ;  uncertainty r = 0.000034, k = 4.500065
         9        16     1        0.137723   295874.583594    ;  uncertainty r = 0.000079, k = 14.281078
        12        13     1        0.134463   290655.334717    ;  uncertainty r = 0.000049, k = 3.121904
        13        14     1        0.134463   290655.334717    ;  uncertainty r = 0.000049, k = 3.121904
        13        15     1        0.134463   290655.334717    ;  uncertainty r = 0.000049, k = 3.121904
        16        17     1        0.141275   400157.438232    ;  uncertainty r = 0.000065, k = 11.700887
        16        21     1        0.140192   353830.797949    ;  uncertainty r = 0.000051, k = 6.934780
        17        18     1        0.139961   364162.371826    ;  uncertainty r = 0.000064, k = 5.861931
        18        19     1        0.138924   359906.127344    ;  uncertainty r = 0.000066, k = 10.822327
        18        22     1        0.108704   336755.665137    ;  uncertainty r = 0.000039, k = 1.453410
        19        20     1        0.135670   364739.382813    ;  uncertainty r = 0.000086, k = 9.533800
        19        23     1        0.108976   339125.994092    ;  uncertainty r = 0.000016, k = 3.393131
        20        21     1        0.132489   414143.551221    ;  uncertainty r = 0.000076, k = 9.684090
        21        24     1        0.109111   333054.878320    ;  uncertainty r = 0.000052, k = 2.633710
        25        26     1        0.101730   420509.824902    ;  uncertainty r = 0.000057, k = 4.555356
        25        27     1        0.144605   254863.058496    ;  uncertainty r = 0.000047, k = 5.218224
        27        28     1        0.109597   306339.614404    ;  uncertainty r = 0.000041, k = 1.281780
        27        29     1        0.109597   306339.614404    ;  uncertainty r = 0.000041, k = 1.281780
        27        30     1        0.152776   209370.243140    ;  uncertainty r = 0.000078, k = 5.873167
        30        31     1        0.109837   307719.563184    ;  uncertainty r = 0.000037, k = 1.634039
        30        32     1        0.109837   307719.563184    ;  uncertainty r = 0.000037, k = 1.634039
        30        33     1        0.142217   264197.867920    ;  uncertainty r = 0.000055, k = 6.648277
        33        34     1        0.096983   461465.679102    ;  uncertainty r = 0.000040, k = 3.123149

[ angles ]
;       ai        aj        ak funct           theta             cth
         1         2         3     1      114.603127      489.259413    ;  uncertainty theta = 0.006461, k = 0.088003
         1         2        10     1      123.274315      284.913699    ;  uncertainty theta = 0.002545, k = 0.223062
         1         6         5     1      114.542358      344.360865    ;  uncertainty theta = 0.007807, k = 0.281904
         1        13        12     1      111.408249      587.736189    ;  uncertainty theta = 0.003104, k = 0.103996
         1        13        14     1      111.408249      587.736189    ;  uncertainty theta = 0.003104, k = 0.103996
         1        13        15     1      111.408249      587.736189    ;  uncertainty theta = 0.003104, k = 0.103996
         2         1         6     1      125.282288      668.319751    ;  uncertainty theta = 0.002201, k = 0.077662
         2         1        13     1      117.431580      343.182775    ;  uncertainty theta = 0.008535, k = 0.195912
         2         3         4     1      120.952652      552.408407    ;  uncertainty theta = 0.002834, k = 0.128165
         2         3        25     1      124.039841      615.885106    ;  uncertainty theta = 0.005779, k = 0.077183
         3         2        10     1      123.881882      269.057229    ;  uncertainty theta = 0.002063, k = 0.084535
         3         4         5     1      118.326866      412.317284    ;  uncertainty theta = 0.010857, k = 0.329020
         3        25        26     1      114.785049      407.063215    ;  uncertainty theta = 0.002660, k = 0.098555
         3        25        27     1      115.052658      406.174237    ;  uncertainty theta = 0.003273, k = 0.201738
         4         3        25     1      122.705505      891.603339    ;  uncertainty theta = 0.007110, k = 0.089272
         4         5         6     1      129.609772      826.870150    ;  uncertainty theta = 0.004681, k = 0.177369
         4         5         7     1      114.682083      424.261692    ;  uncertainty theta = 0.004732, k = 0.105461
         5         7         8     1      113.707542      395.314294    ;  uncertainty theta = 0.005754, k = 0.290906
         5         7        17     1      123.291466      308.988042    ;  uncertainty theta = 0.006414, k = 0.353533
         6         1        13     1      109.743629      374.883904    ;  uncertainty theta = 0.007119, k = 0.416440
         6         5         7     1      114.661049      411.435200    ;  uncertainty theta = 0.005739, k = 0.093283
         7         8         9     1      109.530502      943.679123    ;  uncertainty theta = 0.002507, k = 0.145225
         7        17        16     1      104.169418      735.499905    ;  uncertainty theta = 0.003678, k = 0.252198
         7        17        18     1      132.785446      346.981643    ;  uncertainty theta = 0.004023, k = 0.111852
         8         7        17     1      114.184891      823.069207    ;  uncertainty theta = 0.004342, k = 0.020696
         8         9        11     1      108.687378      341.342730    ;  uncertainty theta = 0.005554, k = 0.107244
         8         9        16     1      108.836166      993.977844    ;  uncertainty theta = 0.004048, k = 0.066322
         9        16        17     1      105.698875      677.831622    ;  uncertainty theta = 0.003279, k = 0.258635
         9        16        21     1      129.520828      362.237321    ;  uncertainty theta = 0.003774, k = 0.227724
        11         9        16     1      115.879135      273.000637    ;  uncertainty theta = 0.006783, k = 0.236885
        12        13        14     1      108.715065      787.874346    ;  uncertainty theta = 0.001846, k = 0.032344
        12        13        15     1      108.715065      787.874346    ;  uncertainty theta = 0.001846, k = 0.032344
        14        13        15     1      108.715065      787.874346    ;  uncertainty theta = 0.001846, k = 0.032344
        16        17        18     1      115.970985      399.056917    ;  uncertainty theta = 0.005813, k = 0.317801
        16        21        20     1      120.626907      683.724629    ;  uncertainty theta = 0.003039, k = 0.095186
        16        21        24     1      122.618301      282.968537    ;  uncertainty theta = 0.002878, k = 0.049272
        17        16        21     1      118.837082      362.342534    ;  uncertainty theta = 0.009251, k = 0.253565
        17        18        19     1      115.036987      530.698321    ;  uncertainty theta = 0.002768, k = 0.147150
        17        18        22     1      122.071030      278.648999    ;  uncertainty theta = 0.002953, k = 0.167950
        18        19        20     1      124.833717      693.865543    ;  uncertainty theta = 0.003154, k = 0.060837
        18        19        23     1      119.820602      278.761809    ;  uncertainty theta = 0.000959, k = 0.065316
        19        18        22     1      122.347633      281.393408    ;  uncertainty theta = 0.001680, k = 0.107704
        19        20        21     1      120.828514      421.094612    ;  uncertainty theta = 0.000536, k = 0.229021
        20        19        23     1      115.400146      335.590752    ;  uncertainty theta = 0.001276, k = 0.019317
        20        21        24     1      116.830650      338.670048    ;  uncertainty theta = 0.002752, k = 0.124588
        25        27        28     1      106.714050      445.961755    ;  uncertainty theta = 0.000465, k = 0.063938
        25        27        29     1      106.714050      445.961755    ;  uncertainty theta = 0.000465, k = 0.063938
        25        27        30     1      109.503708      601.220549    ;  uncertainty theta = 0.002888, k = 0.101606
        26        25        27     1      111.554787      341.047649    ;  uncertainty theta = 0.007155, k = 0.055918
        27        30        31     1      108.827065      406.312265    ;  uncertainty theta = 0.001415, k = 0.024801
        27        30        32     1      108.827065      406.312265    ;  uncertainty theta = 0.001415, k = 0.024801
        27        30        33     1      110.599625      738.101243    ;  uncertainty theta = 0.001087, k = 0.127060
        28        27        29     1      106.327744      320.573399    ;  uncertainty theta = 0.000877, k = 0.018067
        28        27        30     1      108.494469      407.674733    ;  uncertainty theta = 0.000868, k = 0.027871
        29        27        30     1      108.494469      407.674733    ;  uncertainty theta = 0.000868, k = 0.027871
        30        33        34     1      107.159508      449.081656    ;  uncertainty theta = 0.001512, k = 0.026754
        31        30        32     1      107.552513      319.565641    ;  uncertainty theta = 0.001549, k = 0.051600
        31        30        33     1      108.553268      476.989790    ;  uncertainty theta = 0.000919, k = 0.016159
        32        30        33     1      108.553268      476.989790    ;  uncertainty theta = 0.000919, k = 0.016159

[ dihedrals ] ; propers for gromacs 4.5 or higher, use funct 9
;       ai        aj        ak        al funct           phase               k        pn
         1         2         3         4     9        0.000000       -0.311990         1    ;  uncertainty k = 0.564251
         1         2         3         4     9      180.000000        7.077653         2    ;  uncertainty k = 0.646177
         1         2         3         4     9        0.000000       -1.056138         3    ;  uncertainty k = 0.714965
         1         2         3         4     9      180.000000        1.106414         4    ;  uncertainty k = 0.292495
         1         2         3        25     9        0.000000       -0.830536         1    ;  uncertainty k = 0.977131
         1         2         3        25     9      180.000000        5.985327         2    ;  uncertainty k = 0.343205
         1         2         3        25     9        0.000000        0.224733         3    ;  uncertainty k = 0.304280
         1         2         3        25     9      180.000000        0.803456         4    ;  uncertainty k = 0.235509
         1         6         5         4     9        0.000000       -0.443706         1    ;  uncertainty k = 0.816514
         1         6         5         4     9      180.000000       11.317170         2    ;  uncertainty k = 0.275762
         1         6         5         4     9        0.000000        1.405987         3    ;  uncertainty k = 0.395263
         1         6         5         4     9      180.000000        1.018597         4    ;  uncertainty k = 0.200386
         1         6         5         7     9        0.000000        0.345528         1    ;  uncertainty k = 1.322810
         1         6         5         7     9      180.000000       11.705479         2    ;  uncertainty k = 0.423367
         1         6         5         7     9        0.000000        2.368075         3    ;  uncertainty k = 0.262525
         1         6         5         7     9      180.000000        0.903462         4    ;  uncertainty k = 0.508639
         2         1         6         5     9        0.000000       -0.117846         1    ;  uncertainty k = 0.719325
         2         1         6         5     9      180.000000       14.192518         2    ;  uncertainty k = 0.233169
         2         1         6         5     9        0.000000        0.293854         3    ;  uncertainty k = 0.307871
         2         1         6         5     9      180.000000        1.309405         4    ;  uncertainty k = 0.305340
         2         1        13        12     9        0.000000       -1.002854         1    ;  uncertainty k = 0.978701
         2         1        13        12     9      180.000000        3.121866         2    ;  uncertainty k = 0.248361
         2         1        13        12     9        0.000000        0.197406         3    ;  uncertainty k = 0.123426
         2         1        13        12     9      180.000000        0.036027         4    ;  uncertainty k = 0.182559
         2         1        13        14     9        0.000000       -1.002854         1    ;  uncertainty k = 0.978701
         2         1        13        14     9      180.000000        3.121866         2    ;  uncertainty k = 0.248361
         2         1        13        14     9        0.000000        0.197406         3    ;  uncertainty k = 0.123426
         2         1        13        14     9      180.000000        0.036027         4    ;  uncertainty k = 0.182559
         2         1        13        15     9        0.000000       -1.002854         1    ;  uncertainty k = 0.978701
         2         1        13        15     9      180.000000        3.121866         2    ;  uncertainty k = 0.248361
         2         1        13        15     9        0.000000        0.197406         3    ;  uncertainty k = 0.123426
         2         1        13        15     9      180.000000        0.036027         4    ;  uncertainty k = 0.182559
         2         3         4         5     9        0.000000       -0.543454         1    ;  uncertainty k = 0.792343
         2         3         4         5     9      180.000000       10.071818         2    ;  uncertainty k = 0.389713
         2         3         4         5     9        0.000000        0.737104         3    ;  uncertainty k = 0.539472
         2         3         4         5     9      180.000000        1.153797         4    ;  uncertainty k = 0.216776
         2         3        25        26     9        0.000000        3.559989         1    ;  uncertainty k = 0.647298
         2         3        25        26     9      180.000000        8.704785         2    ;  uncertainty k = 0.078244
         2         3        25        26     9        0.000000        1.311550         3    ;  uncertainty k = 0.233470
         2         3        25        26     9      180.000000       -0.444466         4    ;  uncertainty k = 0.219950
         2         3        25        27     9        0.000000        5.259004         1    ;  uncertainty k = 0.909470
         2         3        25        27     9      180.000000        9.733429         2    ;  uncertainty k = 0.245964
         2         3        25        27     9        0.000000        0.569769         3    ;  uncertainty k = 0.240443
         2         3        25        27     9      180.000000       -0.559647         4    ;  uncertainty k = 0.179682
         3         2         1         6     9        0.000000       -0.270200         1    ;  uncertainty k = 0.535073
         3         2         1         6     9      180.000000       14.498726         2    ;  uncertainty k = 0.422824
         3         2         1         6     9        0.000000       -1.156942         3    ;  uncertainty k = 0.329937
         3         2         1         6     9      180.000000        0.860675         4    ;  uncertainty k = 0.368789
         3         2         1        13     9        0.000000        0.408940         1    ;  uncertainty k = 0.438472
         3         2         1        13     9      180.000000        9.911245         2    ;  uncertainty k = 0.429721
         3         2         1        13     9        0.000000        1.170300         3    ;  uncertainty k = 0.562792
         3         2         1        13     9      180.000000        1.334385         4    ;  uncertainty k = 0.155715
         3         4         5         6     9        0.000000       -0.133302         1    ;  uncertainty k = 1.108071
         3         4         5         6     9      180.000000       12.761404         2    ;  uncertainty k = 0.350128
         3         4         5         6     9        0.000000        1.097642         3    ;  uncertainty k = 0.517303
         3         4         5         6     9      180.000000        0.914983         4    ;  uncertainty k = 0.137743
         3         4         5         7     9        0.000000        0.591552         1    ;  uncertainty k = 1.281818
         3         4         5         7     9      180.000000       11.586652         2    ;  uncertainty k = 0.222436
         3         4         5         7     9        0.000000        1.962000         3    ;  uncertainty k = 0.151700
         3         4         5         7     9      180.000000        0.728002         4    ;  uncertainty k = 0.582726
         3        25        27        28     9        0.000000       -1.217085         1    ;  uncertainty k = 0.374852
         3        25        27        28     9      180.000000       -0.709674         2    ;  uncertainty k = 0.176053
         3        25        27        28     9        0.000000        0.256669         3    ;  uncertainty k = 0.213999
         3        25        27        28     9      180.000000        0.277553         4    ;  uncertainty k = 0.027427
         3        25        27        29     9        0.000000       -1.217085         1    ;  uncertainty k = 0.374852
         3        25        27        29     9      180.000000       -0.709674         2    ;  uncertainty k = 0.176053
         3        25        27        29     9        0.000000        0.256669         3    ;  uncertainty k = 0.213999
         3        25        27        29     9      180.000000        0.277553         4    ;  uncertainty k = 0.027427
         3        25        27        30     9        0.000000       -0.387290         1    ;  uncertainty k = 0.447407
         3        25        27        30     9      180.000000       -0.072612         2    ;  uncertainty k = 0.346474
         3        25        27        30     9        0.000000        0.281838         3    ;  uncertainty k = 0.325802
         3        25        27        30     9      180.000000        0.379648         4    ;  uncertainty k = 0.036275
         4         3         2        10     9        0.000000        0.390508         1    ;  uncertainty k = 0.689242
         4         3         2        10     9      180.000000        6.233121         2    ;  uncertainty k = 0.836741
         4         3         2        10     9        0.000000        1.157862         3    ;  uncertainty k = 0.370327
         4         3         2        10     9      180.000000        1.278880         4    ;  uncertainty k = 0.166325
         4         3        25        26     9        0.000000       13.183790         1    ;  uncertainty k = 0.177233
         4         3        25        26     9      180.000000       10.175701         2    ;  uncertainty k = 0.173588
         4         3        25        26     9        0.000000        0.582456         3    ;  uncertainty k = 0.276878
         4         3        25        26     9      180.000000       -0.333551         4    ;  uncertainty k = 0.169530
         4         3        25        27     9        0.000000        9.137419         1    ;  uncertainty k = 0.300903
         4         3        25        27     9      180.000000       13.836566         2    ;  uncertainty k = 0.186734
         4         3        25        27     9        0.000000        1.293449         3    ;  uncertainty k = 0.247503
         4         3        25        27     9      180.000000       -0.622163         4    ;  uncertainty k = 0.134386
         4         5         7         8     9        0.000000       -1.449472         1    ;  uncertainty k = 1.436871
         4         5         7         8     9      180.000000        4.865913         2    ;  uncertainty k = 0.323681
         4         5         7         8     9        0.000000        0.707233         3    ;  uncertainty k = 0.214912
         4         5         7         8     9      180.000000        0.041559         4    ;  uncertainty k = 0.109410
         4         5         7        17     9        0.000000        1.096222         1    ;  uncertainty k = 0.570472
         4         5         7        17     9      180.000000        4.095211         2    ;  uncertainty k = 0.122024
         4         5         7        17     9        0.000000        0.680227         3    ;  uncertainty k = 0.149550
         4         5         7        17     9      180.000000       -0.045207         4    ;  uncertainty k = 0.053561
         5         4         3        25     9        0.000000       -0.246509         1    ;  uncertainty k = 0.695248
         5         4         3        25     9      180.000000       12.582495         2    ;  uncertainty k = 0.205554
         5         4         3        25     9        0.000000        2.219082         3    ;  uncertainty k = 0.398128
         5         4         3        25     9      180.000000        1.757750         4    ;  uncertainty k = 0.515716
         5         6         1        13     9        0.000000        0.925174         1    ;  uncertainty k = 0.813287
         5         6         1        13     9      180.000000       14.271886         2    ;  uncertainty k = 0.602068
         5         6         1        13     9        0.000000        1.963781         3    ;  uncertainty k = 0.537346
         5         6         1        13     9      180.000000        1.705410         4    ;  uncertainty k = 0.428217
         5         7         8         9     9        0.000000        0.952819         1    ;  uncertainty k = 1.024462
         5         7         8         9     9      180.000000       22.105317         2    ;  uncertainty k = 0.274119
         5         7         8         9     9        0.000000        1.795048         3    ;  uncertainty k = 0.498061
         5         7         8         9     9      180.000000        1.441394         4    ;  uncertainty k = 0.585304
         5         7        17        16     9        0.000000        0.102962         1    ;  uncertainty k = 0.581859
         5         7        17        16     9      180.000000        8.666364         2    ;  uncertainty k = 0.161677
         5         7        17        16     9        0.000000        0.992206         3    ;  uncertainty k = 0.564959
         5         7        17        16     9      180.000000        0.632233         4    ;  uncertainty k = 0.313728
         5         7        17        18     9        0.000000        0.312849         1    ;  uncertainty k = 1.160053
         5         7        17        18     9      180.000000        4.904140         2    ;  uncertainty k = 0.470679
         5         7        17        18     9        0.000000        1.290141         3    ;  uncertainty k = 0.481135
         5         7        17        18     9      180.000000        0.001038         4    ;  uncertainty k = 0.110107
         6         1         2        10     9        0.000000       -0.000669         1    ;  uncertainty k = 0.436061
         6         1         2        10     9      180.000000        8.919442         2    ;  uncertainty k = 0.533884
         6         1         2        10     9        0.000000        1.216135         3    ;  uncertainty k = 0.347164
         6         1         2        10     9      180.000000        1.696270         4    ;  uncertainty k = 0.163695
         6         1        13        12     9        0.000000        6.509949         1    ;  uncertainty k = 0.745537
         6         1        13        12     9      180.000000        3.798855         2    ;  uncertainty k = 0.196346
         6         1        13        12     9        0.000000        0.604744         3    ;  uncertainty k = 0.117146
         6         1        13        12     9      180.000000        0.123144         4    ;  uncertainty k = 0.141118
         6         1        13        14     9        0.000000        6.509949         1    ;  uncertainty k = 0.745537
         6         1        13        14     9      180.000000        3.798855         2    ;  uncertainty k = 0.196346
         6         1        13        14     9        0.000000        0.604744         3    ;  uncertainty k = 0.117146
         6         1        13        14     9      180.000000        0.123144         4    ;  uncertainty k = 0.141118
         6         1        13        15     9        0.000000        6.509949         1    ;  uncertainty k = 0.745537
         6         1        13        15     9      180.000000        3.798855         2    ;  uncertainty k = 0.196346
         6         1        13        15     9        0.000000        0.604744         3    ;  uncertainty k = 0.117146
         6         1        13        15     9      180.000000        0.123144         4    ;  uncertainty k = 0.141118
         6         5         7         8     9        0.000000        0.280074         1    ;  uncertainty k = 1.451877
         6         5         7         8     9      180.000000        5.249803         2    ;  uncertainty k = 0.299378
         6         5         7         8     9        0.000000        0.781465         3    ;  uncertainty k = 0.099262
         6         5         7         8     9      180.000000        0.037712         4    ;  uncertainty k = 0.125177
         6         5         7        17     9        0.000000        0.902253         1    ;  uncertainty k = 0.688000
         6         5         7        17     9      180.000000        4.697084         2    ;  uncertainty k = 0.441093
         6         5         7        17     9        0.000000        0.615461         3    ;  uncertainty k = 0.212096
         6         5         7        17     9      180.000000       -0.028492         4    ;  uncertainty k = 0.086035
         7         8         9        11     9        0.000000        2.791360         1    ;  uncertainty k = 0.990434
         7         8         9        11     9      180.000000       15.566310         2    ;  uncertainty k = 0.461250
         7         8         9        11     9        0.000000        1.731015         3    ;  uncertainty k = 0.975827
         7         8         9        11     9      180.000000       -0.400802         4    ;  uncertainty k = 0.651168
         7         8         9        16     9        0.000000       -0.776168         1    ;  uncertainty k = 0.726292
         7         8         9        16     9      180.000000       19.233843         2    ;  uncertainty k = 0.541833
         7         8         9        16     9        0.000000       -4.662268         3    ;  uncertainty k = 1.530614
         7         8         9        16     9      180.000000        1.102759         4    ;  uncertainty k = 0.593534
         7        17        16         9     9        0.000000       -0.029591         1    ;  uncertainty k = 0.479867
         7        17        16         9     9      180.000000       12.943352         2    ;  uncertainty k = 0.901639
         7        17        16         9     9        0.000000       -3.926642         3    ;  uncertainty k = 1.564922
         7        17        16         9     9      180.000000        1.595603         4    ;  uncertainty k = 0.562502
         7        17        16        21     9        0.000000        0.242632         1    ;  uncertainty k = 0.434454
         7        17        16        21     9      180.000000        6.732968         2    ;  uncertainty k = 0.526620
         7        17        16        21     9        0.000000       -0.032054         3    ;  uncertainty k = 0.668056
         7        17        16        21     9      180.000000        1.403917         4    ;  uncertainty k = 0.321673
         7        17        18        19     9        0.000000        0.166026         1    ;  uncertainty k = 0.384462
         7        17        18        19     9      180.000000        8.712392         2    ;  uncertainty k = 0.529409
         7        17        18        19     9        0.000000        0.670597         3    ;  uncertainty k = 0.709700
         7        17        18        19     9      180.000000        1.278178         4    ;  uncertainty k = 0.228074
         7        17        18        22     9        0.000000        0.330140         1    ;  uncertainty k = 0.892141
         7        17        18        22     9      180.000000        5.667499         2    ;  uncertainty k = 0.376597
         7        17        18        22     9        0.000000        1.061796         3    ;  uncertainty k = 0.215378
         7        17        18        22     9      180.000000        0.623401         4    ;  uncertainty k = 0.247557
         8         7        17        16     9        0.000000        0.394849         1    ;  uncertainty k = 0.500772
         8         7        17        16     9      180.000000       14.288654         2    ;  uncertainty k = 0.825034
         8         7        17        16     9        0.000000      -10.197688         3    ;  uncertainty k = 1.945844
         8         7        17        16     9      180.000000        1.831773         4    ;  uncertainty k = 0.496496
         8         7        17        18     9        0.000000        0.256512         1    ;  uncertainty k = 0.955749
         8         7        17        18     9      180.000000        7.090549         2    ;  uncertainty k = 0.804718
         8         7        17        18     9        0.000000       -0.096308         3    ;  uncertainty k = 0.482268
         8         7        17        18     9      180.000000        1.041752         4    ;  uncertainty k = 0.302577
         8         9        16        17     9        0.000000        0.143733         1    ;  uncertainty k = 0.399875
         8         9        16        17     9      180.000000       17.467692         2    ;  uncertainty k = 1.179928
         8         9        16        17     9        0.000000       -8.873497         3    ;  uncertainty k = 1.300879
         8         9        16        17     9      180.000000        0.731850         4    ;  uncertainty k = 0.557441
         8         9        16        21     9        0.000000        1.148501         1    ;  uncertainty k = 1.080989
         8         9        16        21     9      180.000000        5.929857         2    ;  uncertainty k = 0.311978
         8         9        16        21     9        0.000000        0.582760         3    ;  uncertainty k = 0.719154
         8         9        16        21     9      180.000000        0.389789         4    ;  uncertainty k = 0.272889
         9         8         7        17     9        0.000000       -0.298124         1    ;  uncertainty k = 0.584266
         9         8         7        17     9      180.000000       23.449930         2    ;  uncertainty k = 0.271302
         9         8         7        17     9        0.000000       -4.066722         3    ;  uncertainty k = 0.846517
         9         8         7        17     9      180.000000        2.016197         4    ;  uncertainty k = 0.453944
         9        16        17        18     9        0.000000       -0.037472         1    ;  uncertainty k = 0.549080
         9        16        17        18     9      180.000000        8.638750         2    ;  uncertainty k = 0.282536
         9        16        17        18     9        0.000000       -0.429622         3    ;  uncertainty k = 0.446831
         9        16        17        18     9      180.000000        1.318593         4    ;  uncertainty k = 0.373874
         9        16        21        20     9        0.000000        0.085545         1    ;  uncertainty k = 0.460615
         9        16        21        20     9      180.000000        9.709358         2    ;  uncertainty k = 0.663098
         9        16        21        20     9        0.000000        0.314806         3    ;  uncertainty k = 0.453695
         9        16        21        20     9      180.000000        1.098719         4    ;  uncertainty k = 0.273792
         9        16        21        24     9        0.000000        0.102289         1    ;  uncertainty k = 0.370314
         9        16        21        24     9      180.000000        4.664822         2    ;  uncertainty k = 0.800203
         9        16        21        24     9        0.000000        0.871349         3    ;  uncertainty k = 0.359207
         9        16        21        24     9      180.000000        0.642025         4    ;  uncertainty k = 0.247198
        10         2         1        13     9        0.000000        0.346490         1    ;  uncertainty k = 0.576314
        10         2         1        13     9      180.000000        8.332389         2    ;  uncertainty k = 0.545418
        10         2         1        13     9        0.000000        0.752941         3    ;  uncertainty k = 0.405894
        10         2         1        13     9      180.000000        0.859397         4    ;  uncertainty k = 0.297035
        10         2         3        25     9        0.000000        0.141076         1    ;  uncertainty k = 0.239687
        10         2         3        25     9      180.000000        5.191053         2    ;  uncertainty k = 0.636854
        10         2         3        25     9        0.000000        0.924204         3    ;  uncertainty k = 0.439820
        10         2         3        25     9      180.000000        0.629698         4    ;  uncertainty k = 0.214772
        11         9        16        17     9        0.000000        5.239326         1    ;  uncertainty k = 1.133048
        11         9        16        17     9      180.000000        5.722269         2    ;  uncertainty k = 0.945628
        11         9        16        17     9        0.000000        1.317874         3    ;  uncertainty k = 0.259003
        11         9        16        17     9      180.000000        0.141770         4    ;  uncertainty k = 0.216756
        11         9        16        21     9        0.000000        1.691831         1    ;  uncertainty k = 0.967138
        11         9        16        21     9      180.000000        1.362218         2    ;  uncertainty k = 0.481684
        11         9        16        21     9        0.000000        1.116706         3    ;  uncertainty k = 0.554900
        11         9        16        21     9      180.000000        0.119539         4    ;  uncertainty k = 0.217026
        16        17        18        19     9        0.000000       -0.076360         1    ;  uncertainty k = 0.400554
        16        17        18        19     9      180.000000       13.868622         2    ;  uncertainty k = 0.457462
        16        17        18        19     9        0.000000       -2.741742         3    ;  uncertainty k = 0.577260
        16        17        18        19     9      180.000000        0.789615         4    ;  uncertainty k = 0.453962
        16        17        18        22     9        0.000000        0.001305         1    ;  uncertainty k = 0.495176
        16        17        18        22     9      180.000000        8.085674         2    ;  uncertainty k = 1.163169
        16        17        18        22     9        0.000000        1.408727         3    ;  uncertainty k = 0.440215
        16        17        18        22     9      180.000000        1.258082         4    ;  uncertainty k = 0.462192
        16        21        20        19     9        0.000000       -0.253781         1    ;  uncertainty k = 0.516556
        16        21        20        19     9      180.000000       20.886973         2    ;  uncertainty k = 0.226103
        16        21        20        19     9        0.000000        1.077976         3    ;  uncertainty k = 0.494499
        16        21        20        19     9      180.000000        1.390419         4    ;  uncertainty k = 0.207631
        17        16        21        20     9        0.000000       -0.415261         1    ;  uncertainty k = 0.851547
        17        16        21        20     9      180.000000       11.432065         2    ;  uncertainty k = 0.466989
        17        16        21        20     9        0.000000       -1.582788         3    ;  uncertainty k = 0.801820
        17        16        21        20     9      180.000000        0.756873         4    ;  uncertainty k = 0.372791
        17        16        21        24     9        0.000000       -0.518738         1    ;  uncertainty k = 0.770915
        17        16        21        24     9      180.000000        5.422473         2    ;  uncertainty k = 0.745893
        17        16        21        24     9        0.000000        1.020193         3    ;  uncertainty k = 0.179952
        17        16        21        24     9      180.000000        0.808537         4    ;  uncertainty k = 0.289820
        17        18        19        20     9        0.000000        0.052638         1    ;  uncertainty k = 0.287415
        17        18        19        20     9      180.000000       17.624919         2    ;  uncertainty k = 0.337840
        17        18        19        20     9        0.000000       -0.692830         3    ;  uncertainty k = 0.411042
        17        18        19        20     9      180.000000        0.662760         4    ;  uncertainty k = 0.301784
        17        18        19        23     9        0.000000       -0.008873         1    ;  uncertainty k = 0.400664
        17        18        19        23     9      180.000000        9.661029         2    ;  uncertainty k = 0.441453
        17        18        19        23     9        0.000000        1.481481         3    ;  uncertainty k = 0.329542
        17        18        19        23     9      180.000000        1.575381         4    ;  uncertainty k = 0.308624
        18        17        16        21     9        0.000000       -0.852877         1    ;  uncertainty k = 0.653449
        18        17        16        21     9      180.000000        7.318115         2    ;  uncertainty k = 0.945115
        18        17        16        21     9        0.000000       -0.298700         3    ;  uncertainty k = 0.479649
        18        17        16        21     9      180.000000        1.113407         4    ;  uncertainty k = 0.310704
        18        19        20        21     9        0.000000       -0.476459         1    ;  uncertainty k = 0.798831
        18        19        20        21     9      180.000000       13.019534         2    ;  uncertainty k = 0.812833
        18        19        20        21     9        0.000000        1.200174         3    ;  uncertainty k = 0.642325
        18        19        20        21     9      180.000000        0.991874         4    ;  uncertainty k = 0.242897
        19        20        21        24     9        0.000000       -0.033956         1    ;  uncertainty k = 0.265338
        19        20        21        24     9      180.000000       17.351656         2    ;  uncertainty k = 0.485593
        19        20        21        24     9        0.000000        2.240643         3    ;  uncertainty k = 0.459831
        19        20        21        24     9      180.000000        1.512407         4    ;  uncertainty k = 0.334544
        20        19        18        22     9        0.000000        0.130024         1    ;  uncertainty k = 0.371297
        20        19        18        22     9      180.000000       10.782734         2    ;  uncertainty k = 0.434053
        20        19        18        22     9        0.000000        1.127513         3    ;  uncertainty k = 0.312433
        20        19        18        22     9      180.000000        1.713730         4    ;  uncertainty k = 0.177245
        21        20        19        23     9        0.000000        0.290229         1    ;  uncertainty k = 0.545024
        21        20        19        23     9      180.000000       12.968728         2    ;  uncertainty k = 0.341072
        21        20        19        23     9        0.000000        1.987336         3    ;  uncertainty k = 0.646505
        21        20        19        23     9      180.000000        1.339015         4    ;  uncertainty k = 0.220979
        22        18        19        23     9        0.000000       -0.135854         1    ;  uncertainty k = 0.248666
        22        18        19        23     9      180.000000        7.228134         2    ;  uncertainty k = 0.208028
        22        18        19        23     9        0.000000       -0.032466         3    ;  uncertainty k = 0.174936
        22        18        19        23     9      180.000000        0.326002         4    ;  uncertainty k = 0.225580
        25        27        30        31     9        0.000000       -0.458214         1    ;  uncertainty k = 0.763771
        25        27        30        31     9      180.000000       -0.602950         2    ;  uncertainty k = 0.368111
        25        27        30        31     9        0.000000        1.184701         3    ;  uncertainty k = 0.065900
        25        27        30        31     9      180.000000       -0.040341         4    ;  uncertainty k = 0.099600
        25        27        30        32     9        0.000000       -0.458214         1    ;  uncertainty k = 0.763771
        25        27        30        32     9      180.000000       -0.602950         2    ;  uncertainty k = 0.368111
        25        27        30        32     9        0.000000        1.184701         3    ;  uncertainty k = 0.065900
        25        27        30        32     9      180.000000       -0.040341         4    ;  uncertainty k = 0.099600
        25        27        30        33     9        0.000000       -1.018702         1    ;  uncertainty k = 0.754493
        25        27        30        33     9      180.000000       -1.235564         2    ;  uncertainty k = 0.242617
        25        27        30        33     9        0.000000        2.356832         3    ;  uncertainty k = 0.371916
        25        27        30        33     9      180.000000       -0.734492         4    ;  uncertainty k = 0.223225
        26        25        27        28     9        0.000000        2.142295         1    ;  uncertainty k = 0.399674
        26        25        27        28     9      180.000000       -2.070032         2    ;  uncertainty k = 0.319534
        26        25        27        28     9        0.000000        0.227223         3    ;  uncertainty k = 0.067115
        26        25        27        28     9      180.000000        0.131980         4    ;  uncertainty k = 0.064111
        26        25        27        29     9        0.000000        2.142295         1    ;  uncertainty k = 0.399674
        26        25        27        29     9      180.000000       -2.070032         2    ;  uncertainty k = 0.319534
        26        25        27        29     9        0.000000        0.227223         3    ;  uncertainty k = 0.067115
        26        25        27        29     9      180.000000        0.131980         4    ;  uncertainty k = 0.064111
        26        25        27        30     9        0.000000        3.372308         1    ;  uncertainty k = 0.506198
        26        25        27        30     9      180.000000       -3.018073         2    ;  uncertainty k = 0.281746
        26        25        27        30     9        0.000000        0.635306         3    ;  uncertainty k = 0.061082
        26        25        27        30     9      180.000000       -0.013199         4    ;  uncertainty k = 0.102051
        27        30        33        34     9        0.000000       15.173546         1    ;  uncertainty k = 0.112599
        27        30        33        34     9      180.000000       -4.021218         2    ;  uncertainty k = 0.422374
        27        30        33        34     9        0.000000        1.229295         3    ;  uncertainty k = 0.122971
        27        30        33        34     9      180.000000        0.429799         4    ;  uncertainty k = 0.076647
        28        27        30        31     9        0.000000       -0.025951         1    ;  uncertainty k = 0.212804
        28        27        30        31     9      180.000000       -0.134293         2    ;  uncertainty k = 0.216032
        28        27        30        31     9        0.000000        0.235839         3    ;  uncertainty k = 0.077809
        28        27        30        31     9      180.000000       -0.031284         4    ;  uncertainty k = 0.111443
        28        27        30        32     9        0.000000       -0.025951         1    ;  uncertainty k = 0.212804
        28        27        30        32     9      180.000000       -0.134293         2    ;  uncertainty k = 0.216032
        28        27        30        32     9        0.000000        0.235839         3    ;  uncertainty k = 0.077809
        28        27        30        32     9      180.000000       -0.031284         4    ;  uncertainty k = 0.111443
        28        27        30        33     9        0.000000       -1.752325         1    ;  uncertainty k = 0.555188
        28        27        30        33     9      180.000000       -0.087942         2    ;  uncertainty k = 0.152451
        28        27        30        33     9        0.000000        1.579824         3    ;  uncertainty k = 0.210211
        28        27        30        33     9      180.000000       -0.205821         4    ;  uncertainty k = 0.117349
        29        27        30        31     9        0.000000       -0.025951         1    ;  uncertainty k = 0.212804
        29        27        30        31     9      180.000000       -0.134293         2    ;  uncertainty k = 0.216032
        29        27        30        31     9        0.000000        0.235839         3    ;  uncertainty k = 0.077809
        29        27        30        31     9      180.000000       -0.031284         4    ;  uncertainty k = 0.111443
        29        27        30        32     9        0.000000       -0.025951         1    ;  uncertainty k = 0.212804
        29        27        30        32     9      180.000000       -0.134293         2    ;  uncertainty k = 0.216032
        29        27        30        32     9        0.000000        0.235839         3    ;  uncertainty k = 0.077809
        29        27        30        32     9      180.000000       -0.031284         4    ;  uncertainty k = 0.111443
        29        27        30        33     9        0.000000       -1.752325         1    ;  uncertainty k = 0.555188
        29        27        30        33     9      180.000000       -0.087942         2    ;  uncertainty k = 0.152451
        29        27        30        33     9        0.000000        1.579824         3    ;  uncertainty k = 0.210211
        29        27        30        33     9      180.000000       -0.205821         4    ;  uncertainty k = 0.117349
        31        30        33        34     9        0.000000       11.105014         1    ;  uncertainty k = 0.173777
        31        30        33        34     9      180.000000       -1.971479         2    ;  uncertainty k = 0.162825
        31        30        33        34     9        0.000000        0.753880         3    ;  uncertainty k = 0.034683
        31        30        33        34     9      180.000000        0.108515         4    ;  uncertainty k = 0.042611
        32        30        33        34     9        0.000000       11.105014         1    ;  uncertainty k = 0.173777
        32        30        33        34     9      180.000000       -1.971479         2    ;  uncertainty k = 0.162825
        32        30        33        34     9        0.000000        0.753880         3    ;  uncertainty k = 0.034683
        32        30        33        34     9      180.000000        0.108515         4    ;  uncertainty k = 0.042611

[ dihedrals ] ; impropers
;       ai        aj        ak        al funct           phase               k        pn
         1         2         6        13     4      180.000000       20.875297         2    ;  uncertainty k = 0.097309
         1         6        13         2     4      180.000000       20.875297         2    ;  uncertainty k = 0.097309
         1        13         2         6     4      180.000000       20.875297         2    ;  uncertainty k = 0.097309
         2         1         3        10     4      180.000000        1.567257         2    ;  uncertainty k = 1.013823
         2         3        10         1     4      180.000000        1.567257         2    ;  uncertainty k = 1.013823
         2        10         1         3     4      180.000000        1.567257         2    ;  uncertainty k = 1.013823
         3         2         4        25     4      180.000000       35.102821         2    ;  uncertainty k = 0.071367
         3         4        25         2     4      180.000000       35.102821         2    ;  uncertainty k = 0.071367
         3        25         2         4     4      180.000000       35.102821         2    ;  uncertainty k = 0.071367
         5         4         6         7     4      180.000000       33.534225         2    ;  uncertainty k = 0.059615
         5         6         7         4     4      180.000000       33.534225         2    ;  uncertainty k = 0.059615
         5         7         4         6     4      180.000000       33.534225         2    ;  uncertainty k = 0.059615
         7         5         8        17     4      180.000000        4.039599         2    ;  uncertainty k = 0.303310
         7         8        17         5     4      180.000000        4.039599         2    ;  uncertainty k = 0.303310
         7        17         5         8     4      180.000000        4.039599         2    ;  uncertainty k = 0.303310
        16         9        17        21     4      180.000000        1.507891         2    ;  uncertainty k = 2.045821
        16        17        21         9     4      180.000000        1.507891         2    ;  uncertainty k = 2.045821
        16        21         9        17     4      180.000000        1.507891         2    ;  uncertainty k = 2.045821
        17         7        16        18     4      180.000000        0.291320         2    ;  uncertainty k = 0.651412
        17        16        18         7     4      180.000000        0.291320         2    ;  uncertainty k = 0.651412
        17        18         7        16     4      180.000000        0.291320         2    ;  uncertainty k = 0.651412
        18        17        19        22     4      180.000000        3.903972         2    ;  uncertainty k = 0.189773
        18        19        22        17     4      180.000000        3.903972         2    ;  uncertainty k = 0.189773
        18        22        17        19     4      180.000000        3.903972         2    ;  uncertainty k = 0.189773
        19        18        20        23     4      180.000000       11.770094         2    ;  uncertainty k = 0.065858
        19        20        23        18     4      180.000000       11.770094         2    ;  uncertainty k = 0.065858
        19        23        18        20     4      180.000000       11.770094         2    ;  uncertainty k = 0.065858
        21        16        20        24     4      180.000000       11.666853         2    ;  uncertainty k = 0.088456
        21        20        24        16     4      180.000000       11.666853         2    ;  uncertainty k = 0.088456
        21        24        16        20     4      180.000000       11.666853         2    ;  uncertainty k = 0.088456
        25         3        26        27     4      180.000000        0.240787         2    ;  uncertainty k = 0.538415
        25        26        27         3     4      180.000000        0.240787         2    ;  uncertainty k = 0.538415
        25        27         3        26     4      180.000000        0.240787         2    ;  uncertainty k = 0.538415

[ pairs ]
;       ai        aj funct
         1         4     1
         1         7     1
         1        25     1
         2         5     1
         2        12     1
         2        14     1
         2        15     1
         2        26     1
         2        27     1
         3         6     1
         3         7     1
         3        13     1
         3        28     1
         3        29     1
         3        30     1
         4         8     1
         4        10     1
         4        17     1
         4        26     1
         4        27     1
         5         9     1
         5        13     1
         5        16     1
         5        18     1
         5        25     1
         6         8     1
         6        10     1
         6        12     1
         6        14     1
         6        15     1
         6        17     1
         7        11     1
         7        19     1
         7        21     1
         7        22     1
         8        18     1
         8        21     1
         9        18     1
         9        20     1
         9        24     1
        10        13     1
        10        25     1
        11        17     1
        11        21     1
        16        19     1
        16        22     1
        17        20     1
        17        23     1
        17        24     1
        18        21     1
        19        24     1
        20        22     1
        21        23     1
        22        23     1
        25        31     1
        25        32     1
        25        33     1
        26        28     1
        26        29     1
        26        30     1
        27        34     1
        28        31     1
        28        32     1
        28        33     1
        29        31     1
        29        32     1
        29        33     1
        31        34     1
        32        34     1
