; ITP file created by ByteFF-joint-25, 2025-07-14 11:27:21.250612

[ atomtypes ]
;name           bonded.type        at.num        mass        charge   ptype           sigma         epsilon
 cl0bf                                 17      0.0000       0.00000       A     3.46645e-01     1.10572e+00    ;  uncertainty sigma = 0.000028, epsilon = 0.002440
 c1bf                                   6      0.0000       0.00000       A     3.31513e-01     4.12870e-01    ;  uncertainty sigma = 0.000008, epsilon = 0.000696
 c2bf                                   6      0.0000       0.00000       A     3.31518e-01     4.13038e-01    ;  uncertainty sigma = 0.000005, epsilon = 0.000541
 n3bf                                   7      0.0000       0.00000       A     3.38396e-01     3.93923e-01    ;  uncertainty sigma = 0.000012, epsilon = 0.000480
 c4bf                                   6      0.0000       0.00000       A     3.31528e-01     4.13103e-01    ;  uncertainty sigma = 0.000010, epsilon = 0.001045
 c5bf                                   6      0.0000       0.00000       A     3.31549e-01     4.13147e-01    ;  uncertainty sigma = 0.000014, epsilon = 0.000492
 n6bf                                   7      0.0000       0.00000       A     3.38405e-01     3.93956e-01    ;  uncertainty sigma = 0.000017, epsilon = 0.000646
 c7bf                                   6      0.0000       0.00000       A     3.31576e-01     4.13368e-01    ;  uncertainty sigma = 0.000021, epsilon = 0.001116
 n8bf                                   7      0.0000       0.00000       A     3.38443e-01     3.93557e-01    ;  uncertainty sigma = 0.000013, epsilon = 0.000286
 n9bf                                   7      0.0000       0.00000       A     3.20588e-01     8.54436e-01    ;  uncertainty sigma = 0.000034, epsilon = 0.001797
 c10bf                                  6      0.0000       0.00000       A     3.31525e-01     4.12738e-01    ;  uncertainty sigma = 0.000011, epsilon = 0.001047
 n11bf                                  7      0.0000       0.00000       A     3.38429e-01     3.93654e-01    ;  uncertainty sigma = 0.000032, epsilon = 0.001151
 h12bf                                  1      0.0000       0.00000       A     2.53667e-01     6.70953e-02    ;  uncertainty sigma = 0.000038, epsilon = 0.000760
 h13bf                                  1      0.0000       0.00000       A     2.53683e-01     6.69773e-02    ;  uncertainty sigma = 0.000027, epsilon = 0.000861
 h14bf                                  1      0.0000       0.00000       A     1.10671e-01     4.15054e-02    ;  uncertainty sigma = 0.000077, epsilon = 0.000867
 h15bf                                  1      0.0000       0.00000       A     2.44737e-01     6.76647e-02    ;  uncertainty sigma = 0.000034, epsilon = 0.000441

[ moleculetype ]
;name             nrexcl
 MOL                   3

[ atoms ]
;       nr            type      resi   res      atom      cgnr      charge          mass ; qtot
         1           cl0bf         1   UNL       cl0         1    -0.14598       35.4530 ; qtot   -0.146
         2            c1bf         1   UNL        c1         2     0.38978       12.0110 ; qtot    0.244
         3            c2bf         1   UNL        c2         3     0.31596       12.0110 ; qtot    0.560
         4            n3bf         1   UNL        n3         4    -0.62277       14.0070 ; qtot   -0.063
         5            c4bf         1   UNL        c4         5     0.31564       12.0110 ; qtot    0.253
         6            c5bf         1   UNL        c5         6     0.27749       12.0110 ; qtot    0.530
         7            n6bf         1   UNL        n6         7    -0.59947       14.0070 ; qtot   -0.069
         8            c7bf         1   UNL        c7         8     0.47917       12.0110 ; qtot    0.410
         9            n8bf         1   UNL        n8         9    -0.49688       14.0070 ; qtot   -0.087
        10            n9bf         1   UNL        n9        10    -0.16788       14.0070 ; qtot   -0.255
        11           c10bf         1   UNL       c10        11     0.42532       12.0110 ; qtot    0.170
        12           n11bf         1   UNL       n11        12    -0.67933       14.0070 ; qtot   -0.509
        13           h12bf         1   UNL       h12        13     0.05127        1.0080 ; qtot   -0.458
        14           h13bf         1   UNL       h13        14     0.05535        1.0080 ; qtot   -0.402
        15           h14bf         1   UNL       h14        15     0.33362        1.0080 ; qtot   -0.069
        16           h15bf         1   UNL       h15        16     0.06871        1.0080 ; qtot    0.000

[ bonds ]
;       ai        aj funct               r               k
         1         2     1        0.175130   190663.327344    ;  uncertainty r = 0.000103, k = 8.089092
         2         3     1        0.139676   365636.092871    ;  uncertainty r = 0.000079, k = 16.431163
         2         7     1        0.131105   411997.948828    ;  uncertainty r = 0.000038, k = 1.610741
         3         4     1        0.132667   458338.966504    ;  uncertainty r = 0.000092, k = 3.345649
         3        13     1        0.109043   344260.587451    ;  uncertainty r = 0.000040, k = 3.994189
         4         5     1        0.132870   438720.746191    ;  uncertainty r = 0.000070, k = 6.983541
         5         6     1        0.139447   341901.162842    ;  uncertainty r = 0.000081, k = 7.409572
         5        14     1        0.108922   340440.567871    ;  uncertainty r = 0.000027, k = 3.059196
         6         7     1        0.132498   430732.380859    ;  uncertainty r = 0.000030, k = 9.183367
         6         8     1        0.144951   264245.903223    ;  uncertainty r = 0.000126, k = 4.341913
         8         9     1        0.133418   443798.034277    ;  uncertainty r = 0.000106, k = 12.219411
         8        12     1        0.137157   267311.684277    ;  uncertainty r = 0.000128, k = 9.233938
         9        10     1        0.135093   345924.866406    ;  uncertainty r = 0.000078, k = 10.352832
        10        11     1        0.136150   300976.336230    ;  uncertainty r = 0.000062, k = 20.615570
        10        15     1        0.101417   420369.779395    ;  uncertainty r = 0.000021, k = 2.562005
        11        12     1        0.131977   468585.731641    ;  uncertainty r = 0.000124, k = 7.018776
        11        16     1        0.108289   339513.289893    ;  uncertainty r = 0.000035, k = 3.152896

[ angles ]
;       ai        aj        ak funct           theta             cth
         1         2         3     1      120.220070      382.402539    ;  uncertainty theta = 0.004224, k = 0.280028
         1         2         7     1      118.413353      513.552993    ;  uncertainty theta = 0.004700, k = 0.093400
         2         3         4     1      119.315041      569.946209    ;  uncertainty theta = 0.006124, k = 0.133148
         2         3        13     1      122.980942      270.545404    ;  uncertainty theta = 0.003258, k = 0.086577
         2         7         6     1      114.847244      390.182867    ;  uncertainty theta = 0.006223, k = 0.281239
         3         2         7     1      122.661804      476.769086    ;  uncertainty theta = 0.003379, k = 0.277199
         3         4         5     1      117.247437      429.683380    ;  uncertainty theta = 0.004532, k = 0.195044
         4         3        13     1      118.533043      337.405131    ;  uncertainty theta = 0.002775, k = 0.092622
         4         5         6     1      121.159645      626.731611    ;  uncertainty theta = 0.003834, k = 0.141073
         4         5        14     1      119.213745      343.872213    ;  uncertainty theta = 0.002560, k = 0.068291
         5         6         7     1      122.157593      508.813561    ;  uncertainty theta = 0.003375, k = 0.176701
         5         6         8     1      121.416916      386.219316    ;  uncertainty theta = 0.003382, k = 0.118702
         6         5        14     1      119.837784      249.286782    ;  uncertainty theta = 0.005279, k = 0.114351
         6         8         9     1      118.541664      361.926566    ;  uncertainty theta = 0.006176, k = 0.179397
         6         8        12     1      118.386986      370.875886    ;  uncertainty theta = 0.007910, k = 0.191407
         7         6         8     1      113.400284      422.675678    ;  uncertainty theta = 0.005875, k = 0.165633
         8         9        10     1      104.788757      939.469522    ;  uncertainty theta = 0.002321, k = 0.095508
         8        12        11     1      103.440285      822.321927    ;  uncertainty theta = 0.005098, k = 0.154571
         9         8        12     1      117.120316      910.896561    ;  uncertainty theta = 0.004113, k = 0.163952
         9        10        11     1      106.896301     1012.615848    ;  uncertainty theta = 0.002319, k = 0.098187
         9        10        15     1      109.961487      332.523394    ;  uncertainty theta = 0.001940, k = 0.068250
        10        11        12     1      110.103432      885.411292    ;  uncertainty theta = 0.002041, k = 0.070932
        10        11        16     1      119.909668      267.379760    ;  uncertainty theta = 0.004834, k = 0.175416
        11        10        15     1      117.917213      279.401258    ;  uncertainty theta = 0.007251, k = 0.128166
        12        11        16     1      125.204918      260.067975    ;  uncertainty theta = 0.002066, k = 0.167382

[ dihedrals ] ; propers for gromacs 4.5 or higher, use funct 9
;       ai        aj        ak        al funct           phase               k        pn
         1         2         3         4     9        0.000000       -0.246203         1    ;  uncertainty k = 0.393684
         1         2         3         4     9      180.000000        6.037077         2    ;  uncertainty k = 0.801417
         1         2         3         4     9        0.000000        0.973162         3    ;  uncertainty k = 0.225517
         1         2         3         4     9      180.000000        1.236185         4    ;  uncertainty k = 0.259368
         1         2         3        13     9        0.000000        0.094522         1    ;  uncertainty k = 0.788167
         1         2         3        13     9      180.000000        4.398227         2    ;  uncertainty k = 0.406407
         1         2         3        13     9        0.000000        0.584440         3    ;  uncertainty k = 0.237116
         1         2         3        13     9      180.000000        0.688997         4    ;  uncertainty k = 0.178574
         1         2         7         6     9        0.000000        0.492909         1    ;  uncertainty k = 0.979022
         1         2         7         6     9      180.000000       14.573619         2    ;  uncertainty k = 0.413892
         1         2         7         6     9        0.000000        2.529565         3    ;  uncertainty k = 0.514535
         1         2         7         6     9      180.000000        1.774144         4    ;  uncertainty k = 0.185041
         2         3         4         5     9        0.000000        0.018865         1    ;  uncertainty k = 1.105182
         2         3         4         5     9      180.000000       14.691223         2    ;  uncertainty k = 0.534571
         2         3         4         5     9        0.000000        0.623124         3    ;  uncertainty k = 1.034896
         2         3         4         5     9      180.000000        1.539752         4    ;  uncertainty k = 0.191587
         2         7         6         5     9        0.000000       -0.305714         1    ;  uncertainty k = 0.961991
         2         7         6         5     9      180.000000       11.296386         2    ;  uncertainty k = 0.434871
         2         7         6         5     9        0.000000        1.648113         3    ;  uncertainty k = 0.488846
         2         7         6         5     9      180.000000        1.137438         4    ;  uncertainty k = 0.200560
         2         7         6         8     9        0.000000        0.193941         1    ;  uncertainty k = 1.321078
         2         7         6         8     9      180.000000       14.656475         2    ;  uncertainty k = 0.344682
         2         7         6         8     9        0.000000        2.280399         3    ;  uncertainty k = 0.532409
         2         7         6         8     9      180.000000        1.535028         4    ;  uncertainty k = 0.442857
         3         2         7         6     9        0.000000       -0.127549         1    ;  uncertainty k = 0.699996
         3         2         7         6     9      180.000000       10.134606         2    ;  uncertainty k = 0.789380
         3         2         7         6     9        0.000000        1.740340         3    ;  uncertainty k = 0.587785
         3         2         7         6     9      180.000000        1.137197         4    ;  uncertainty k = 0.160971
         3         4         5         6     9        0.000000       -0.152944         1    ;  uncertainty k = 1.326887
         3         4         5         6     9      180.000000       12.703385         2    ;  uncertainty k = 0.311445
         3         4         5         6     9        0.000000        0.690435         3    ;  uncertainty k = 0.692451
         3         4         5         6     9      180.000000        1.485200         4    ;  uncertainty k = 0.155040
         3         4         5        14     9        0.000000        0.334093         1    ;  uncertainty k = 0.644825
         3         4         5        14     9      180.000000       14.837396         2    ;  uncertainty k = 0.084728
         3         4         5        14     9        0.000000        2.253376         3    ;  uncertainty k = 0.568859
         3         4         5        14     9      180.000000        1.766127         4    ;  uncertainty k = 0.315354
         4         3         2         7     9        0.000000       -0.388564         1    ;  uncertainty k = 0.630264
         4         3         2         7     9      180.000000        9.281598         2    ;  uncertainty k = 0.594871
         4         3         2         7     9        0.000000       -0.844526         3    ;  uncertainty k = 0.609000
         4         3         2         7     9      180.000000        1.127524         4    ;  uncertainty k = 0.422318
         4         5         6         7     9        0.000000       -0.216973         1    ;  uncertainty k = 0.367686
         4         5         6         7     9      180.000000       11.310103         2    ;  uncertainty k = 0.953203
         4         5         6         7     9        0.000000       -0.309741         3    ;  uncertainty k = 0.279989
         4         5         6         7     9      180.000000        1.185024         4    ;  uncertainty k = 0.538829
         4         5         6         8     9        0.000000       -0.147571         1    ;  uncertainty k = 0.647820
         4         5         6         8     9      180.000000        6.998512         2    ;  uncertainty k = 0.674913
         4         5         6         8     9        0.000000        0.586950         3    ;  uncertainty k = 0.166564
         4         5         6         8     9      180.000000        1.324431         4    ;  uncertainty k = 0.349542
         5         4         3        13     9        0.000000        0.645572         1    ;  uncertainty k = 0.367878
         5         4         3        13     9      180.000000       14.980968         2    ;  uncertainty k = 0.306002
         5         4         3        13     9        0.000000        2.215392         3    ;  uncertainty k = 0.689952
         5         4         3        13     9      180.000000        1.644089         4    ;  uncertainty k = 0.355522
         5         6         8         9     9        0.000000        1.204327         1    ;  uncertainty k = 1.262161
         5         6         8         9     9      180.000000        3.336973         2    ;  uncertainty k = 0.234926
         5         6         8         9     9        0.000000        0.535935         3    ;  uncertainty k = 0.189063
         5         6         8         9     9      180.000000       -0.047547         4    ;  uncertainty k = 0.123835
         5         6         8        12     9        0.000000        0.796283         1    ;  uncertainty k = 1.169684
         5         6         8        12     9      180.000000        3.342412         2    ;  uncertainty k = 0.292373
         5         6         8        12     9        0.000000        0.385097         3    ;  uncertainty k = 0.231705
         5         6         8        12     9      180.000000       -0.016776         4    ;  uncertainty k = 0.097898
         6         8         9        10     9        0.000000        0.500131         1    ;  uncertainty k = 0.666462
         6         8         9        10     9      180.000000       22.088941         2    ;  uncertainty k = 0.370188
         6         8         9        10     9        0.000000        1.296466         3    ;  uncertainty k = 0.455868
         6         8         9        10     9      180.000000        1.189021         4    ;  uncertainty k = 0.447075
         6         8        12        11     9        0.000000        0.735740         1    ;  uncertainty k = 1.028870
         6         8        12        11     9      180.000000       12.594222         2    ;  uncertainty k = 0.457074
         6         8        12        11     9        0.000000        1.396531         3    ;  uncertainty k = 0.280839
         6         8        12        11     9      180.000000        0.855571         4    ;  uncertainty k = 0.215306
         7         2         3        13     9        0.000000       -0.559786         1    ;  uncertainty k = 0.889322
         7         2         3        13     9      180.000000        4.868072         2    ;  uncertainty k = 0.706247
         7         2         3        13     9        0.000000        0.722581         3    ;  uncertainty k = 0.174962
         7         2         3        13     9      180.000000        1.095904         4    ;  uncertainty k = 0.272484
         7         6         5        14     9        0.000000        0.014873         1    ;  uncertainty k = 0.598664
         7         6         5        14     9      180.000000        5.389221         2    ;  uncertainty k = 0.765547
         7         6         5        14     9        0.000000        0.926753         3    ;  uncertainty k = 0.182303
         7         6         5        14     9      180.000000        1.356770         4    ;  uncertainty k = 0.280817
         7         6         8         9     9        0.000000       -1.497572         1    ;  uncertainty k = 0.444173
         7         6         8         9     9      180.000000        3.965847         2    ;  uncertainty k = 0.313348
         7         6         8         9     9        0.000000        0.506984         3    ;  uncertainty k = 0.189407
         7         6         8         9     9      180.000000       -0.048042         4    ;  uncertainty k = 0.048104
         7         6         8        12     9        0.000000       -2.691343         1    ;  uncertainty k = 0.619057
         7         6         8        12     9      180.000000        4.150291         2    ;  uncertainty k = 0.425803
         7         6         8        12     9        0.000000        0.836298         3    ;  uncertainty k = 0.237296
         7         6         8        12     9      180.000000       -0.035588         4    ;  uncertainty k = 0.059283
         8         6         5        14     9        0.000000       -0.088291         1    ;  uncertainty k = 0.575148
         8         6         5        14     9      180.000000        5.709925         2    ;  uncertainty k = 0.972500
         8         6         5        14     9        0.000000        0.628325         3    ;  uncertainty k = 0.283026
         8         6         5        14     9      180.000000        0.799378         4    ;  uncertainty k = 0.210341
         8         9        10        11     9        0.000000       -0.472148         1    ;  uncertainty k = 1.448505
         8         9        10        11     9      180.000000       15.647511         2    ;  uncertainty k = 0.502674
         8         9        10        11     9        0.000000       -7.717540         3    ;  uncertainty k = 1.547405
         8         9        10        11     9      180.000000        1.610030         4    ;  uncertainty k = 0.447144
         8         9        10        15     9        0.000000        3.177468         1    ;  uncertainty k = 1.847110
         8         9        10        15     9      180.000000       15.117851         2    ;  uncertainty k = 0.362986
         8         9        10        15     9        0.000000        1.680933         3    ;  uncertainty k = 0.939731
         8         9        10        15     9      180.000000       -0.518762         4    ;  uncertainty k = 0.254067
         8        12        11        10     9        0.000000        0.290668         1    ;  uncertainty k = 0.646038
         8        12        11        10     9      180.000000       24.629451         2    ;  uncertainty k = 0.464366
         8        12        11        10     9        0.000000      -10.168699         3    ;  uncertainty k = 1.458661
         8        12        11        10     9      180.000000        2.073094         4    ;  uncertainty k = 0.658571
         8        12        11        16     9        0.000000        0.209783         1    ;  uncertainty k = 1.171709
         8        12        11        16     9      180.000000       17.134000         2    ;  uncertainty k = 0.395019
         8        12        11        16     9        0.000000        1.058151         3    ;  uncertainty k = 0.893358
         8        12        11        16     9      180.000000        1.023204         4    ;  uncertainty k = 0.460192
         9         8        12        11     9        0.000000       -0.084724         1    ;  uncertainty k = 0.599531
         9         8        12        11     9      180.000000       17.654660         2    ;  uncertainty k = 0.658567
         9         8        12        11     9        0.000000       -7.239811         3    ;  uncertainty k = 0.941405
         9         8        12        11     9      180.000000        2.052780         4    ;  uncertainty k = 0.279959
         9        10        11        12     9        0.000000       -0.268817         1    ;  uncertainty k = 1.624632
         9        10        11        12     9      180.000000       19.276031         2    ;  uncertainty k = 0.889517
         9        10        11        12     9        0.000000      -12.562511         3    ;  uncertainty k = 1.780279
         9        10        11        12     9      180.000000        1.400962         4    ;  uncertainty k = 0.486920
         9        10        11        16     9        0.000000        0.861856         1    ;  uncertainty k = 0.958681
         9        10        11        16     9      180.000000       13.224286         2    ;  uncertainty k = 0.718420
         9        10        11        16     9        0.000000        1.426069         3    ;  uncertainty k = 0.406953
         9        10        11        16     9      180.000000       -0.089865         4    ;  uncertainty k = 0.402052
        10         9         8        12     9        0.000000        0.011855         1    ;  uncertainty k = 0.590542
        10         9         8        12     9      180.000000       26.573453         2    ;  uncertainty k = 0.348011
        10         9         8        12     9        0.000000       -8.908859         3    ;  uncertainty k = 1.087824
        10         9         8        12     9      180.000000        2.072924         4    ;  uncertainty k = 0.635941
        12        11        10        15     9        0.000000        3.103930         1    ;  uncertainty k = 2.170642
        12        11        10        15     9      180.000000       16.577105         2    ;  uncertainty k = 0.641469
        12        11        10        15     9        0.000000        1.199532         3    ;  uncertainty k = 0.571403
        12        11        10        15     9      180.000000       -0.613658         4    ;  uncertainty k = 0.206881
        15        10        11        16     9        0.000000       -0.813300         1    ;  uncertainty k = 1.186431
        15        10        11        16     9      180.000000        1.790139         2    ;  uncertainty k = 1.021086
        15        10        11        16     9        0.000000        1.140254         3    ;  uncertainty k = 0.531911
        15        10        11        16     9      180.000000       -0.141186         4    ;  uncertainty k = 0.381417

[ dihedrals ] ; impropers
;       ai        aj        ak        al funct           phase               k        pn
         2         1         3         7     4      180.000000       23.101087         2    ;  uncertainty k = 0.036799
         2         3         7         1     4      180.000000       23.101087         2    ;  uncertainty k = 0.036799
         2         7         1         3     4      180.000000       23.101087         2    ;  uncertainty k = 0.036799
         3         2         4        13     4      180.000000       12.014731         2    ;  uncertainty k = 0.047035
         3         4        13         2     4      180.000000       12.014731         2    ;  uncertainty k = 0.047035
         3        13         2         4     4      180.000000       12.014731         2    ;  uncertainty k = 0.047035
         5         4         6        14     4      180.000000       13.122084         2    ;  uncertainty k = 0.089670
         5         6        14         4     4      180.000000       13.122084         2    ;  uncertainty k = 0.089670
         5        14         4         6     4      180.000000       13.122084         2    ;  uncertainty k = 0.089670
         6         5         7         8     4      180.000000       19.101375         2    ;  uncertainty k = 0.055494
         6         7         8         5     4      180.000000       19.101375         2    ;  uncertainty k = 0.055494
         6         8         5         7     4      180.000000       19.101375         2    ;  uncertainty k = 0.055494
         8         6         9        12     4      180.000000        8.552531         2    ;  uncertainty k = 0.212699
         8         9        12         6     4      180.000000        8.552531         2    ;  uncertainty k = 0.212699
         8        12         6         9     4      180.000000        8.552531         2    ;  uncertainty k = 0.212699
        11        10        12        16     4      180.000000        4.057565         2    ;  uncertainty k = 0.285555
        11        12        16        10     4      180.000000        4.057565         2    ;  uncertainty k = 0.285555
        11        16        10        12     4      180.000000        4.057565         2    ;  uncertainty k = 0.285555

[ pairs ]
;       ai        aj funct
         1         4     1
         1         6     1
         1        13     1
         2         5     1
         2         8     1
         3         6     1
         3        14     1
         4         7     1
         4         8     1
         5         9     1
         5        12     1
         5        13     1
         6        10     1
         6        11     1
         7         9     1
         7        12     1
         7        13     1
         7        14     1
         8        14     1
         8        15     1
         8        16     1
         9        16     1
        12        15     1
        15        16     1
