; ITP file created by ByteFF-joint-25, 2025-07-14 11:27:20.039668

[ atomtypes ]
;name           bonded.type        at.num        mass        charge   ptype           sigma         epsilon
 cl0bf                                 17      0.0000       0.00000       A     3.46629e-01     1.10425e+00    ;  uncertainty sigma = 0.000024, epsilon = 0.001129
 c1bf                                   6      0.0000       0.00000       A     3.31522e-01     4.13002e-01    ;  uncertainty sigma = 0.000004, epsilon = 0.000631
 c2bf                                   6      0.0000       0.00000       A     3.31536e-01     4.13536e-01    ;  uncertainty sigma = 0.000006, epsilon = 0.000793
 c3bf                                   6      0.0000       0.00000       A     3.31520e-01     4.13201e-01    ;  uncertainty sigma = 0.000006, epsilon = 0.000605
 c4bf                                   6      0.0000       0.00000       A     3.31527e-01     4.13449e-01    ;  uncertainty sigma = 0.000009, epsilon = 0.000551
 c5bf                                   6      0.0000       0.00000       A     3.31541e-01     4.13758e-01    ;  uncertainty sigma = 0.000008, epsilon = 0.000795
 n6bf                                   7      0.0000       0.00000       A     3.38416e-01     3.93516e-01    ;  uncertainty sigma = 0.000017, epsilon = 0.000560
 c7bf                                   6      0.0000       0.00000       A     3.31579e-01     4.13242e-01    ;  uncertainty sigma = 0.000019, epsilon = 0.000997
 n8bf                                   7      0.0000       0.00000       A     3.38443e-01     3.93561e-01    ;  uncertainty sigma = 0.000013, epsilon = 0.000313
 n9bf                                   7      0.0000       0.00000       A     3.20588e-01     8.54436e-01    ;  uncertainty sigma = 0.000034, epsilon = 0.001797
 c10bf                                  6      0.0000       0.00000       A     3.31525e-01     4.12738e-01    ;  uncertainty sigma = 0.000011, epsilon = 0.001047
 n11bf                                  7      0.0000       0.00000       A     3.38428e-01     3.93752e-01    ;  uncertainty sigma = 0.000032, epsilon = 0.001184
 h12bf                                  1      0.0000       0.00000       A     2.62559e-01     6.70369e-02    ;  uncertainty sigma = 0.000022, epsilon = 0.000603
 h13bf                                  1      0.0000       0.00000       A     2.62576e-01     6.69457e-02    ;  uncertainty sigma = 0.000016, epsilon = 0.000553
 h14bf                                  1      0.0000       0.00000       A     1.10671e-01     4.15054e-02    ;  uncertainty sigma = 0.000077, epsilon = 0.000867
 h15bf                                  1      0.0000       0.00000       A     2.44737e-01     6.76647e-02    ;  uncertainty sigma = 0.000034, epsilon = 0.000441
 h16bf                                  1      0.0000       0.00000       A     2.62564e-01     6.70719e-02    ;  uncertainty sigma = 0.000010, epsilon = 0.000735

[ moleculetype ]
;name             nrexcl
 MOL                   3

[ atoms ]
;       nr            type      resi   res      atom      cgnr      charge          mass ; qtot
         1           cl0bf         1   UNL       cl0         1    -0.16692       35.4530 ; qtot   -0.167
         2            c1bf         1   UNL        c1         2     0.51074       12.0110 ; qtot    0.344
         3            c2bf         1   UNL        c2         3    -0.21912       12.0110 ; qtot    0.125
         4            c3bf         1   UNL        c3         4    -0.09205       12.0110 ; qtot    0.033
         5            c4bf         1   UNL        c4         5    -0.21117       12.0110 ; qtot   -0.179
         6            c5bf         1   UNL        c5         6     0.38811       12.0110 ; qtot    0.210
         7            n6bf         1   UNL        n6         7    -0.63909       14.0070 ; qtot   -0.430
         8            c7bf         1   UNL        c7         8     0.47480       12.0110 ; qtot    0.045
         9            n8bf         1   UNL        n8         9    -0.49655       14.0070 ; qtot   -0.451
        10            n9bf         1   UNL        n9        10    -0.17080       14.0070 ; qtot   -0.622
        11           c10bf         1   UNL       c10        11     0.42242       12.0110 ; qtot   -0.200
        12           n11bf         1   UNL       n11        12    -0.67787       14.0070 ; qtot   -0.878
        13           h12bf         1   UNL       h12        13     0.16208        1.0080 ; qtot   -0.715
        14           h13bf         1   UNL       h13        14     0.16575        1.0080 ; qtot   -0.550
        15           h14bf         1   UNL       h14        15     0.33362        1.0080 ; qtot   -0.216
        16           h15bf         1   UNL       h15        16     0.06872        1.0080 ; qtot   -0.147
        17           h16bf         1   UNL       h16        17     0.14733        1.0080 ; qtot   -0.000

[ bonds ]
;       ai        aj funct               r               k
         1         2     1        0.175968   187358.927539    ;  uncertainty r = 0.000084, k = 4.626813
         2         3     1        0.139810   348782.647705    ;  uncertainty r = 0.000046, k = 7.422494
         2         7     1        0.131656   367068.852393    ;  uncertainty r = 0.000060, k = 3.196434
         3         4     1        0.139128   388295.476465    ;  uncertainty r = 0.000044, k = 2.707396
         3        13     1        0.108716   340577.421240    ;  uncertainty r = 0.000016, k = 1.235010
         4         5     1        0.139183   378375.433105    ;  uncertainty r = 0.000059, k = 1.331356
         4        17     1        0.108704   332514.410938    ;  uncertainty r = 0.000011, k = 1.443248
         5         6     1        0.139735   342264.581445    ;  uncertainty r = 0.000087, k = 5.262308
         5        14     1        0.108691   337443.532715    ;  uncertainty r = 0.000020, k = 1.063494
         6         7     1        0.133251   385775.985254    ;  uncertainty r = 0.000046, k = 7.987575
         6         8     1        0.144604   267908.844043    ;  uncertainty r = 0.000149, k = 8.186761
         8         9     1        0.133411   441534.475977    ;  uncertainty r = 0.000102, k = 13.824359
         8        12     1        0.137202   266099.871826    ;  uncertainty r = 0.000125, k = 9.515771
         9        10     1        0.135115   345857.780420    ;  uncertainty r = 0.000091, k = 10.714992
        10        11     1        0.136150   300976.336230    ;  uncertainty r = 0.000062, k = 20.615570
        10        15     1        0.101417   420369.779395    ;  uncertainty r = 0.000021, k = 2.562005
        11        12     1        0.131950   468163.450000    ;  uncertainty r = 0.000125, k = 7.217777
        11        16     1        0.108289   339513.289893    ;  uncertainty r = 0.000035, k = 3.152896

[ angles ]
;       ai        aj        ak funct           theta             cth
         1         2         3     1      120.443680      414.528734    ;  uncertainty theta = 0.004509, k = 0.050713
         1         2         7     1      117.373459      522.183834    ;  uncertainty theta = 0.003457, k = 0.122633
         2         3         4     1      114.613602      462.974929    ;  uncertainty theta = 0.004457, k = 0.128920
         2         3        13     1      123.152184      287.283702    ;  uncertainty theta = 0.002461, k = 0.086362
         2         7         6     1      115.517410      369.696710    ;  uncertainty theta = 0.006279, k = 0.263710
         3         2         7     1      124.614609      550.070421    ;  uncertainty theta = 0.002430, k = 0.175078
         3         4         5     1      119.154930      531.513498    ;  uncertainty theta = 0.003101, k = 0.099219
         3         4        17     1      120.148048      281.910471    ;  uncertainty theta = 0.001935, k = 0.050289
         4         3        13     1      122.643410      282.113746    ;  uncertainty theta = 0.001277, k = 0.030878
         4         5         6     1      116.773399      475.573247    ;  uncertainty theta = 0.002275, k = 0.150062
         4         5        14     1      122.141983      289.045922    ;  uncertainty theta = 0.002095, k = 0.079029
         5         4        17     1      120.604446      277.380156    ;  uncertainty theta = 0.001937, k = 0.022166
         5         6         7     1      124.693604      598.215597    ;  uncertainty theta = 0.001241, k = 0.124652
         5         6         8     1      118.675026      382.433886    ;  uncertainty theta = 0.001577, k = 0.025925
         6         5        14     1      120.915268      263.993747    ;  uncertainty theta = 0.002164, k = 0.107767
         6         8         9     1      118.570801      360.979107    ;  uncertainty theta = 0.005571, k = 0.178508
         6         8        12     1      118.390480      370.054485    ;  uncertainty theta = 0.006461, k = 0.243840
         7         6         8     1      112.382385      419.248183    ;  uncertainty theta = 0.004227, k = 0.151624
         8         9        10     1      104.874268      940.031530    ;  uncertainty theta = 0.002465, k = 0.098395
         8        12        11     1      103.567551      822.713028    ;  uncertainty theta = 0.004862, k = 0.164084
         9         8        12     1      117.062904      908.919478    ;  uncertainty theta = 0.003431, k = 0.143397
         9        10        11     1      106.887352     1012.845171    ;  uncertainty theta = 0.002335, k = 0.094196
         9        10        15     1      109.961060      332.706878    ;  uncertainty theta = 0.002039, k = 0.069478
        10        11        12     1      110.090981      883.878172    ;  uncertainty theta = 0.002054, k = 0.069207
        10        11        16     1      119.909668      267.379792    ;  uncertainty theta = 0.004834, k = 0.175416
        11        10        15     1      117.917213      279.401258    ;  uncertainty theta = 0.007251, k = 0.128166
        12        11        16     1      125.222000      260.329475    ;  uncertainty theta = 0.002008, k = 0.177088

[ dihedrals ] ; propers for gromacs 4.5 or higher, use funct 9
;       ai        aj        ak        al funct           phase               k        pn
         1         2         3         4     9        0.000000       -0.084514         1    ;  uncertainty k = 0.153292
         1         2         3         4     9      180.000000        7.182186         2    ;  uncertainty k = 0.661841
         1         2         3         4     9        0.000000        1.214608         3    ;  uncertainty k = 0.357136
         1         2         3         4     9      180.000000        1.339007         4    ;  uncertainty k = 0.305833
         1         2         3        13     9        0.000000       -0.161954         1    ;  uncertainty k = 0.330538
         1         2         3        13     9      180.000000        5.791388         2    ;  uncertainty k = 0.307429
         1         2         3        13     9        0.000000        0.555097         3    ;  uncertainty k = 0.273384
         1         2         3        13     9      180.000000        0.815738         4    ;  uncertainty k = 0.166829
         1         2         7         6     9        0.000000        0.226872         1    ;  uncertainty k = 0.676473
         1         2         7         6     9      180.000000       14.947525         2    ;  uncertainty k = 0.446337
         1         2         7         6     9        0.000000        2.540462         3    ;  uncertainty k = 0.464205
         1         2         7         6     9      180.000000        1.678199         4    ;  uncertainty k = 0.230279
         2         3         4         5     9        0.000000       -0.021134         1    ;  uncertainty k = 0.253659
         2         3         4         5     9      180.000000       14.807393         2    ;  uncertainty k = 0.219842
         2         3         4         5     9        0.000000       -1.211134         3    ;  uncertainty k = 0.432659
         2         3         4         5     9      180.000000        0.708380         4    ;  uncertainty k = 0.254845
         2         3         4        17     9        0.000000       -0.006067         1    ;  uncertainty k = 0.393337
         2         3         4        17     9      180.000000        8.260958         2    ;  uncertainty k = 0.336014
         2         3         4        17     9        0.000000        1.297732         3    ;  uncertainty k = 0.253674
         2         3         4        17     9      180.000000        1.641499         4    ;  uncertainty k = 0.270397
         2         7         6         5     9        0.000000       -0.209884         1    ;  uncertainty k = 1.054106
         2         7         6         5     9      180.000000       12.502040         2    ;  uncertainty k = 0.386256
         2         7         6         5     9        0.000000        1.416635         3    ;  uncertainty k = 0.587295
         2         7         6         5     9      180.000000        1.144904         4    ;  uncertainty k = 0.211218
         2         7         6         8     9        0.000000        0.384877         1    ;  uncertainty k = 1.097716
         2         7         6         8     9      180.000000       14.724716         2    ;  uncertainty k = 0.335604
         2         7         6         8     9        0.000000        2.200820         3    ;  uncertainty k = 0.495562
         2         7         6         8     9      180.000000        1.482586         4    ;  uncertainty k = 0.402547
         3         2         7         6     9        0.000000       -0.064730         1    ;  uncertainty k = 0.604171
         3         2         7         6     9      180.000000       11.603693         2    ;  uncertainty k = 0.518882
         3         2         7         6     9        0.000000        1.664518         3    ;  uncertainty k = 0.442455
         3         2         7         6     9      180.000000        1.155145         4    ;  uncertainty k = 0.226871
         3         4         5         6     9        0.000000        0.066583         1    ;  uncertainty k = 0.174397
         3         4         5         6     9      180.000000       14.196579         2    ;  uncertainty k = 0.282503
         3         4         5         6     9        0.000000       -1.134723         3    ;  uncertainty k = 0.442187
         3         4         5         6     9      180.000000        0.621076         4    ;  uncertainty k = 0.322511
         3         4         5        14     9        0.000000        0.252096         1    ;  uncertainty k = 0.289712
         3         4         5        14     9      180.000000        8.110711         2    ;  uncertainty k = 0.251850
         3         4         5        14     9        0.000000        1.500501         3    ;  uncertainty k = 0.334739
         3         4         5        14     9      180.000000        1.960954         4    ;  uncertainty k = 0.165157
         4         3         2         7     9        0.000000       -0.039442         1    ;  uncertainty k = 0.234268
         4         3         2         7     9      180.000000       10.162062         2    ;  uncertainty k = 0.547465
         4         3         2         7     9        0.000000       -0.575418         3    ;  uncertainty k = 0.556882
         4         3         2         7     9      180.000000        1.187297         4    ;  uncertainty k = 0.194419
         4         5         6         7     9        0.000000       -0.060278         1    ;  uncertainty k = 0.204527
         4         5         6         7     9      180.000000       11.663139         2    ;  uncertainty k = 0.425643
         4         5         6         7     9        0.000000       -0.340000         3    ;  uncertainty k = 0.360491
         4         5         6         7     9      180.000000        1.120330         4    ;  uncertainty k = 0.221121
         4         5         6         8     9        0.000000        0.122018         1    ;  uncertainty k = 0.609035
         4         5         6         8     9      180.000000        8.324620         2    ;  uncertainty k = 0.125094
         4         5         6         8     9        0.000000        0.755823         3    ;  uncertainty k = 0.136766
         4         5         6         8     9      180.000000        1.514997         4    ;  uncertainty k = 0.205636
         5         4         3        13     9        0.000000        0.058728         1    ;  uncertainty k = 0.216238
         5         4         3        13     9      180.000000        8.448087         2    ;  uncertainty k = 0.428688
         5         4         3        13     9        0.000000        1.535054         3    ;  uncertainty k = 0.343927
         5         4         3        13     9      180.000000        1.858966         4    ;  uncertainty k = 0.157717
         5         6         8         9     9        0.000000        1.042246         1    ;  uncertainty k = 0.944422
         5         6         8         9     9      180.000000        3.612441         2    ;  uncertainty k = 0.173931
         5         6         8         9     9        0.000000        0.673517         3    ;  uncertainty k = 0.160421
         5         6         8         9     9      180.000000       -0.054652         4    ;  uncertainty k = 0.067788
         5         6         8        12     9        0.000000        1.357997         1    ;  uncertainty k = 0.921444
         5         6         8        12     9      180.000000        3.549353         2    ;  uncertainty k = 0.245704
         5         6         8        12     9        0.000000        0.501731         3    ;  uncertainty k = 0.184619
         5         6         8        12     9      180.000000       -0.038190         4    ;  uncertainty k = 0.047038
         6         5         4        17     9        0.000000       -0.035277         1    ;  uncertainty k = 0.198001
         6         5         4        17     9      180.000000        7.751356         2    ;  uncertainty k = 0.541132
         6         5         4        17     9        0.000000        1.270656         3    ;  uncertainty k = 0.288866
         6         5         4        17     9      180.000000        1.588003         4    ;  uncertainty k = 0.132000
         6         8         9        10     9        0.000000        0.684886         1    ;  uncertainty k = 0.541877
         6         8         9        10     9      180.000000       21.502230         2    ;  uncertainty k = 0.379470
         6         8         9        10     9        0.000000        1.426108         3    ;  uncertainty k = 0.488427
         6         8         9        10     9      180.000000        1.229990         4    ;  uncertainty k = 0.613814
         6         8        12        11     9        0.000000        0.917096         1    ;  uncertainty k = 1.001771
         6         8        12        11     9      180.000000       12.241305         2    ;  uncertainty k = 0.362740
         6         8        12        11     9        0.000000        1.500803         3    ;  uncertainty k = 0.259366
         6         8        12        11     9      180.000000        0.827476         4    ;  uncertainty k = 0.193679
         7         2         3        13     9        0.000000       -0.146010         1    ;  uncertainty k = 0.329684
         7         2         3        13     9      180.000000        6.265096         2    ;  uncertainty k = 0.804698
         7         2         3        13     9        0.000000        1.015699         3    ;  uncertainty k = 0.224155
         7         2         3        13     9      180.000000        1.490790         4    ;  uncertainty k = 0.185345
         7         6         5        14     9        0.000000       -0.164631         1    ;  uncertainty k = 0.299104
         7         6         5        14     9      180.000000        7.163857         2    ;  uncertainty k = 0.283903
         7         6         5        14     9        0.000000        1.126079         3    ;  uncertainty k = 0.235845
         7         6         5        14     9      180.000000        1.668331         4    ;  uncertainty k = 0.135265
         7         6         8         9     9        0.000000       -1.176523         1    ;  uncertainty k = 0.587385
         7         6         8         9     9      180.000000        3.859456         2    ;  uncertainty k = 0.262689
         7         6         8         9     9        0.000000        0.561695         3    ;  uncertainty k = 0.169433
         7         6         8         9     9      180.000000       -0.046056         4    ;  uncertainty k = 0.051624
         7         6         8        12     9        0.000000       -2.212254         1    ;  uncertainty k = 0.843800
         7         6         8        12     9      180.000000        4.000981         2    ;  uncertainty k = 0.293657
         7         6         8        12     9        0.000000        0.857702         3    ;  uncertainty k = 0.250988
         7         6         8        12     9      180.000000       -0.011278         4    ;  uncertainty k = 0.073731
         8         6         5        14     9        0.000000       -0.159423         1    ;  uncertainty k = 0.444183
         8         6         5        14     9      180.000000        6.472753         2    ;  uncertainty k = 0.468223
         8         6         5        14     9        0.000000        0.567613         3    ;  uncertainty k = 0.241408
         8         6         5        14     9      180.000000        0.988784         4    ;  uncertainty k = 0.156894
         8         9        10        11     9        0.000000       -0.502268         1    ;  uncertainty k = 1.474143
         8         9        10        11     9      180.000000       15.553940         2    ;  uncertainty k = 0.464789
         8         9        10        11     9        0.000000       -7.731949         3    ;  uncertainty k = 1.631687
         8         9        10        11     9      180.000000        1.599369         4    ;  uncertainty k = 0.427524
         8         9        10        15     9        0.000000        3.226490         1    ;  uncertainty k = 1.801114
         8         9        10        15     9      180.000000       14.899560         2    ;  uncertainty k = 0.355876
         8         9        10        15     9        0.000000        1.736910         3    ;  uncertainty k = 0.951256
         8         9        10        15     9      180.000000       -0.523152         4    ;  uncertainty k = 0.217121
         8        12        11        10     9        0.000000        0.251954         1    ;  uncertainty k = 0.674510
         8        12        11        10     9      180.000000       24.638602         2    ;  uncertainty k = 0.475954
         8        12        11        10     9        0.000000      -10.185397         3    ;  uncertainty k = 1.499002
         8        12        11        10     9      180.000000        2.083640         4    ;  uncertainty k = 0.677354
         8        12        11        16     9        0.000000        0.229537         1    ;  uncertainty k = 1.134865
         8        12        11        16     9      180.000000       17.156317         2    ;  uncertainty k = 0.401452
         8        12        11        16     9        0.000000        1.028842         3    ;  uncertainty k = 0.912343
         8        12        11        16     9      180.000000        1.017298         4    ;  uncertainty k = 0.481361
         9         8        12        11     9        0.000000       -0.092118         1    ;  uncertainty k = 0.624836
         9         8        12        11     9      180.000000       17.596074         2    ;  uncertainty k = 0.647075
         9         8        12        11     9        0.000000       -7.097444         3    ;  uncertainty k = 0.946101
         9         8        12        11     9      180.000000        2.056480         4    ;  uncertainty k = 0.280696
         9        10        11        12     9        0.000000       -0.282782         1    ;  uncertainty k = 1.621125
         9        10        11        12     9      180.000000       19.311094         2    ;  uncertainty k = 0.894538
         9        10        11        12     9        0.000000      -12.595938         3    ;  uncertainty k = 1.752946
         9        10        11        12     9      180.000000        1.399980         4    ;  uncertainty k = 0.482574
         9        10        11        16     9        0.000000        0.865812         1    ;  uncertainty k = 0.996453
         9        10        11        16     9      180.000000       13.275237         2    ;  uncertainty k = 0.708281
         9        10        11        16     9        0.000000        1.413326         3    ;  uncertainty k = 0.416713
         9        10        11        16     9      180.000000       -0.094138         4    ;  uncertainty k = 0.407803
        10         9         8        12     9        0.000000        0.013394         1    ;  uncertainty k = 0.556248
        10         9         8        12     9      180.000000       26.646812         2    ;  uncertainty k = 0.339938
        10         9         8        12     9        0.000000       -8.755015         3    ;  uncertainty k = 1.056351
        10         9         8        12     9      180.000000        2.061736         4    ;  uncertainty k = 0.628560
        12        11        10        15     9        0.000000        3.072237         1    ;  uncertainty k = 2.130105
        12        11        10        15     9      180.000000       16.532064         2    ;  uncertainty k = 0.657739
        12        11        10        15     9        0.000000        1.206235         3    ;  uncertainty k = 0.578580
        12        11        10        15     9      180.000000       -0.609354         4    ;  uncertainty k = 0.207253
        13         3         4        17     9        0.000000       -0.132922         1    ;  uncertainty k = 0.205702
        13         3         4        17     9      180.000000        8.109997         2    ;  uncertainty k = 0.507525
        13         3         4        17     9        0.000000       -0.474881         3    ;  uncertainty k = 0.411174
        13         3         4        17     9      180.000000        0.085578         4    ;  uncertainty k = 0.202458
        14         5         4        17     9        0.000000       -0.123888         1    ;  uncertainty k = 0.255433
        14         5         4        17     9      180.000000        8.055092         2    ;  uncertainty k = 0.536971
        14         5         4        17     9        0.000000       -0.505432         3    ;  uncertainty k = 0.384391
        14         5         4        17     9      180.000000        0.090272         4    ;  uncertainty k = 0.216426
        15        10        11        16     9        0.000000       -0.813300         1    ;  uncertainty k = 1.186431
        15        10        11        16     9      180.000000        1.790139         2    ;  uncertainty k = 1.021086
        15        10        11        16     9        0.000000        1.140254         3    ;  uncertainty k = 0.531911
        15        10        11        16     9      180.000000       -0.141186         4    ;  uncertainty k = 0.381417

[ dihedrals ] ; impropers
;       ai        aj        ak        al funct           phase               k        pn
         2         1         3         7     4      180.000000       24.615143         2    ;  uncertainty k = 0.046252
         2         3         7         1     4      180.000000       24.615143         2    ;  uncertainty k = 0.046252
         2         7         1         3     4      180.000000       24.615143         2    ;  uncertainty k = 0.046252
         3         2         4        13     4      180.000000        2.989321         2    ;  uncertainty k = 0.190925
         3         4        13         2     4      180.000000        2.989321         2    ;  uncertainty k = 0.190925
         3        13         2         4     4      180.000000        2.989321         2    ;  uncertainty k = 0.190925
         4         3         5        17     4      180.000000        6.318223         2    ;  uncertainty k = 0.114181
         4         5        17         3     4      180.000000        6.318223         2    ;  uncertainty k = 0.114181
         4        17         3         5     4      180.000000        6.318223         2    ;  uncertainty k = 0.114181
         5         4         6        14     4      180.000000        3.832098         2    ;  uncertainty k = 0.129831
         5         6        14         4     4      180.000000        3.832098         2    ;  uncertainty k = 0.129831
         5        14         4         6     4      180.000000        3.832098         2    ;  uncertainty k = 0.129831
         6         5         7         8     4      180.000000       20.312044         2    ;  uncertainty k = 0.051831
         6         7         8         5     4      180.000000       20.312044         2    ;  uncertainty k = 0.051831
         6         8         5         7     4      180.000000       20.312044         2    ;  uncertainty k = 0.051831
         8         6         9        12     4      180.000000        8.329750         2    ;  uncertainty k = 0.178295
         8         9        12         6     4      180.000000        8.329750         2    ;  uncertainty k = 0.178295
         8        12         6         9     4      180.000000        8.329750         2    ;  uncertainty k = 0.178295
        11        10        12        16     4      180.000000        3.977389         2    ;  uncertainty k = 0.286534
        11        12        16        10     4      180.000000        3.977389         2    ;  uncertainty k = 0.286534
        11        16        10        12     4      180.000000        3.977389         2    ;  uncertainty k = 0.286534

[ pairs ]
;       ai        aj funct
         1         4     1
         1         6     1
         1        13     1
         2         5     1
         2         8     1
         2        17     1
         3         6     1
         3        14     1
         4         7     1
         4         8     1
         5         9     1
         5        12     1
         5        13     1
         6        10     1
         6        11     1
         6        17     1
         7         9     1
         7        12     1
         7        13     1
         7        14     1
         8        14     1
         8        15     1
         8        16     1
         9        16     1
        12        15     1
        13        17     1
        14        17     1
        15        16     1
