; ITP file created by ByteFF-joint-25, 2025-07-14 11:27:22.912696

[ atomtypes ]
;name           bonded.type        at.num        mass        charge   ptype           sigma         epsilon
 c0bf                                   6      0.0000       0.00000       A     3.31538e-01     4.13296e-01    ;  uncertainty sigma = 0.000017, epsilon = 0.001155
 c1bf                                   6      0.0000       0.00000       A     3.31536e-01     4.13320e-01    ;  uncertainty sigma = 0.000006, epsilon = 0.000826
 c2bf                                   6      0.0000       0.00000       A     3.31521e-01     4.13100e-01    ;  uncertainty sigma = 0.000005, epsilon = 0.000689
 c3bf                                   6      0.0000       0.00000       A     3.31527e-01     4.13351e-01    ;  uncertainty sigma = 0.000009, epsilon = 0.000517
 c4bf                                   6      0.0000       0.00000       A     3.31557e-01     4.13585e-01    ;  uncertainty sigma = 0.000007, epsilon = 0.000528
 n5bf                                   7      0.0000       0.00000       A     3.38402e-01     3.93080e-01    ;  uncertainty sigma = 0.000008, epsilon = 0.001307
 c6bf                                   6      0.0000       0.00000       A     3.31577e-01     4.13247e-01    ;  uncertainty sigma = 0.000018, epsilon = 0.000952
 n7bf                                   7      0.0000       0.00000       A     3.38443e-01     3.93561e-01    ;  uncertainty sigma = 0.000013, epsilon = 0.000313
 n8bf                                   7      0.0000       0.00000       A     3.20588e-01     8.54436e-01    ;  uncertainty sigma = 0.000034, epsilon = 0.001797
 c9bf                                   6      0.0000       0.00000       A     3.31525e-01     4.12738e-01    ;  uncertainty sigma = 0.000011, epsilon = 0.001047
 n10bf                                  7      0.0000       0.00000       A     3.38428e-01     3.93752e-01    ;  uncertainty sigma = 0.000032, epsilon = 0.001184
 h11bf                                  1      0.0000       0.00000       A     2.62564e-01     6.70594e-02    ;  uncertainty sigma = 0.000016, epsilon = 0.000574
 h12bf                                  1      0.0000       0.00000       A     2.62576e-01     6.69457e-02    ;  uncertainty sigma = 0.000016, epsilon = 0.000553
 h13bf                                  1      0.0000       0.00000       A     1.10671e-01     4.15054e-02    ;  uncertainty sigma = 0.000077, epsilon = 0.000867
 h14bf                                  1      0.0000       0.00000       A     2.44737e-01     6.76647e-02    ;  uncertainty sigma = 0.000034, epsilon = 0.000441
 h15bf                                  1      0.0000       0.00000       A     2.62569e-01     6.70972e-02    ;  uncertainty sigma = 0.000014, epsilon = 0.000660
 o16bf                                  8      0.0000       0.00000       A     3.15692e-01     3.03821e-01    ;  uncertainty sigma = 0.000018, epsilon = 0.000884
 c17bf                                  6      0.0000       0.00000       A     3.39777e-01     4.51036e-01    ;  uncertainty sigma = 0.000005, epsilon = 0.000749
 h18bf                                  1      0.0000       0.00000       A     2.42204e-01     8.66226e-02    ;  uncertainty sigma = 0.000019, epsilon = 0.000473
 h19bf                                  1      0.0000       0.00000       A     2.42204e-01     8.66226e-02    ;  uncertainty sigma = 0.000019, epsilon = 0.000473
 h20bf                                  1      0.0000       0.00000       A     2.42204e-01     8.66227e-02    ;  uncertainty sigma = 0.000019, epsilon = 0.000473

[ moleculetype ]
;name             nrexcl
 MOL                   3

[ atoms ]
;       nr            type      resi   res      atom      cgnr      charge          mass ; qtot
         1            c0bf         1   UNL        c0         1     0.63451       12.0110 ; qtot    0.635
         2            c1bf         1   UNL        c1         2    -0.26074       12.0110 ; qtot    0.374
         3            c2bf         1   UNL        c2         3    -0.07113       12.0110 ; qtot    0.303
         4            c3bf         1   UNL        c3         4    -0.24044       12.0110 ; qtot    0.062
         5            c4bf         1   UNL        c4         5     0.40654       12.0110 ; qtot    0.469
         6            n5bf         1   UNL        n5         6    -0.72214       14.0070 ; qtot   -0.253
         7            c6bf         1   UNL        c6         7     0.48006       12.0110 ; qtot    0.227
         8            n7bf         1   UNL        n7         8    -0.49912       14.0070 ; qtot   -0.272
         9            n8bf         1   UNL        n8         9    -0.17080       14.0070 ; qtot   -0.443
        10            c9bf         1   UNL        c9        10     0.42242       12.0110 ; qtot   -0.021
        11           n10bf         1   UNL       n10        11    -0.67933       14.0070 ; qtot   -0.700
        12           h11bf         1   UNL       h11        12     0.15618        1.0080 ; qtot   -0.544
        13           h12bf         1   UNL       h12        13     0.16370        1.0080 ; qtot   -0.380
        14           h13bf         1   UNL       h13        14     0.33362        1.0080 ; qtot   -0.047
        15           h14bf         1   UNL       h14        15     0.06872        1.0080 ; qtot    0.022
        16           h15bf         1   UNL       h15        16     0.14404        1.0080 ; qtot    0.166
        17           o16bf         1   UNL       o16        17    -0.44632       15.9990 ; qtot   -0.280
        18           c17bf         1   UNL       c17        18     0.13082       12.0110 ; qtot   -0.149
        19           h18bf         1   UNL       h18        19     0.04980        1.0080 ; qtot   -0.100
        20           h19bf         1   UNL       h19        20     0.04980        1.0080 ; qtot   -0.050
        21           h20bf         1   UNL       h20        21     0.04981        1.0080 ; qtot    0.000

[ bonds ]
;       ai        aj funct               r               k
         1         2     1        0.140686   369231.130518    ;  uncertainty r = 0.000105, k = 7.459832
         1         6     1        0.132680   376024.742188    ;  uncertainty r = 0.000102, k = 11.760915
         1        17     1        0.135129   303835.164551    ;  uncertainty r = 0.000135, k = 4.560278
         2         3     1        0.138784   387863.082129    ;  uncertainty r = 0.000045, k = 2.671978
         2        12     1        0.108806   342497.224512    ;  uncertainty r = 0.000025, k = 1.421831
         3         4     1        0.139556   374931.881592    ;  uncertainty r = 0.000094, k = 2.724811
         3        16     1        0.108699   331941.690186    ;  uncertainty r = 0.000008, k = 1.462168
         4         5     1        0.139544   342151.273291    ;  uncertainty r = 0.000072, k = 4.091140
         4        13     1        0.108693   337398.689551    ;  uncertainty r = 0.000014, k = 0.807043
         5         6     1        0.133414   385369.689844    ;  uncertainty r = 0.000063, k = 10.008638
         5         7     1        0.144452   269723.076904    ;  uncertainty r = 0.000100, k = 12.250409
         7         8     1        0.133403   442326.432812    ;  uncertainty r = 0.000099, k = 13.914358
         7        11     1        0.137238   264735.321924    ;  uncertainty r = 0.000123, k = 10.277615
         8         9     1        0.135115   345857.780420    ;  uncertainty r = 0.000091, k = 10.714992
         9        10     1        0.136150   300976.336230    ;  uncertainty r = 0.000062, k = 20.615570
         9        14     1        0.101417   420369.779395    ;  uncertainty r = 0.000021, k = 2.562005
        10        11     1        0.131950   468163.450000    ;  uncertainty r = 0.000125, k = 7.217777
        10        15     1        0.108289   339513.289893    ;  uncertainty r = 0.000035, k = 3.152896
        17        18     1        0.142518   259705.379639    ;  uncertainty r = 0.000078, k = 4.427463
        18        19     1        0.109367   308921.952441    ;  uncertainty r = 0.000017, k = 1.045620
        18        20     1        0.109367   308921.952441    ;  uncertainty r = 0.000017, k = 1.045609
        18        21     1        0.109367   308921.952441    ;  uncertainty r = 0.000017, k = 1.045609

[ angles ]
;       ai        aj        ak funct           theta             cth
         1         2         3     1      114.774734      480.625444    ;  uncertainty theta = 0.004375, k = 0.181372
         1         2        12     1      123.175354      277.198076    ;  uncertainty theta = 0.001189, k = 0.066267
         1         6         5     1      116.737328      388.022651    ;  uncertainty theta = 0.009629, k = 0.250401
         1        17        18     1      109.064194      507.315554    ;  uncertainty theta = 0.000987, k = 0.078561
         2         1         6     1      124.428749      521.422892    ;  uncertainty theta = 0.002267, k = 0.166320
         2         1        17     1      120.448280      456.725583    ;  uncertainty theta = 0.007816, k = 0.206758
         2         3         4     1      119.564621      540.643589    ;  uncertainty theta = 0.003058, k = 0.090158
         2         3        16     1      120.225098      278.945804    ;  uncertainty theta = 0.002280, k = 0.071498
         3         2        12     1      122.827148      283.031678    ;  uncertainty theta = 0.001441, k = 0.057716
         3         4         5     1      116.492966      481.651526    ;  uncertainty theta = 0.002704, k = 0.154604
         3         4        13     1      122.229919      289.260785    ;  uncertainty theta = 0.002735, k = 0.055727
         4         3        16     1      120.581161      277.590454    ;  uncertainty theta = 0.002520, k = 0.037761
         4         5         6     1      124.837326      609.044098    ;  uncertainty theta = 0.003259, k = 0.134728
         4         5         7     1      118.595871      383.296689    ;  uncertainty theta = 0.001321, k = 0.165134
         5         4        13     1      120.964027      264.244649    ;  uncertainty theta = 0.002064, k = 0.140794
         5         7         8     1      118.610252      362.195089    ;  uncertainty theta = 0.005371, k = 0.165904
         5         7        11     1      118.423050      370.682666    ;  uncertainty theta = 0.006328, k = 0.217473
         6         1        17     1      117.223999      599.410990    ;  uncertainty theta = 0.008192, k = 0.212025
         6         5         7     1      112.179672      432.570606    ;  uncertainty theta = 0.002690, k = 0.200988
         7         8         9     1      104.879539      938.210607    ;  uncertainty theta = 0.002341, k = 0.097658
         7        11        10     1      103.608963      822.909217    ;  uncertainty theta = 0.004661, k = 0.165241
         8         7        11     1      117.036133      910.122148    ;  uncertainty theta = 0.003389, k = 0.138426
         8         9        10     1      106.887367     1012.845171    ;  uncertainty theta = 0.002335, k = 0.094196
         8         9        14     1      109.961075      332.706878    ;  uncertainty theta = 0.002039, k = 0.069478
         9        10        11     1      110.090965      883.878172    ;  uncertainty theta = 0.002054, k = 0.069207
         9        10        15     1      119.909668      267.379792    ;  uncertainty theta = 0.004834, k = 0.175416
        10         9        14     1      117.917213      279.401290    ;  uncertainty theta = 0.007251, k = 0.128166
        11        10        15     1      125.221985      260.329507    ;  uncertainty theta = 0.002008, k = 0.177087
        17        18        19     1      108.293480      436.292767    ;  uncertainty theta = 0.001075, k = 0.042103
        17        18        20     1      108.293480      436.292767    ;  uncertainty theta = 0.001075, k = 0.042103
        17        18        21     1      108.293480      436.292767    ;  uncertainty theta = 0.001075, k = 0.042103
        19        18        20     1      109.236244      330.268307    ;  uncertainty theta = 0.002176, k = 0.017375
        19        18        21     1      109.236244      330.268307    ;  uncertainty theta = 0.002176, k = 0.017376
        20        18        21     1      109.236244      330.268307    ;  uncertainty theta = 0.002176, k = 0.017376

[ dihedrals ] ; propers for gromacs 4.5 or higher, use funct 9
;       ai        aj        ak        al funct           phase               k        pn
         1         2         3         4     9        0.000000        0.016782         1    ;  uncertainty k = 0.364670
         1         2         3         4     9      180.000000       15.315016         2    ;  uncertainty k = 0.191107
         1         2         3         4     9        0.000000       -1.110967         3    ;  uncertainty k = 0.513787
         1         2         3         4     9      180.000000        0.660389         4    ;  uncertainty k = 0.188898
         1         2         3        16     9        0.000000       -0.083901         1    ;  uncertainty k = 0.266737
         1         2         3        16     9      180.000000        8.743977         2    ;  uncertainty k = 0.466514
         1         2         3        16     9        0.000000        1.166104         3    ;  uncertainty k = 0.249630
         1         2         3        16     9      180.000000        1.506823         4    ;  uncertainty k = 0.142972
         1         6         5         4     9        0.000000        0.011935         1    ;  uncertainty k = 1.228911
         1         6         5         4     9      180.000000       12.530770         2    ;  uncertainty k = 0.240737
         1         6         5         4     9        0.000000        1.376172         3    ;  uncertainty k = 0.601463
         1         6         5         4     9      180.000000        0.967738         4    ;  uncertainty k = 0.326281
         1         6         5         7     9        0.000000        0.418488         1    ;  uncertainty k = 1.187208
         1         6         5         7     9      180.000000       14.243859         2    ;  uncertainty k = 0.326439
         1         6         5         7     9        0.000000        2.146397         3    ;  uncertainty k = 0.472413
         1         6         5         7     9      180.000000        1.352025         4    ;  uncertainty k = 0.451332
         1        17        18        19     9        0.000000        1.566984         1    ;  uncertainty k = 0.588210
         1        17        18        19     9      180.000000       -0.241739         2    ;  uncertainty k = 0.204630
         1        17        18        19     9        0.000000        0.344335         3    ;  uncertainty k = 0.041181
         1        17        18        19     9      180.000000        0.436519         4    ;  uncertainty k = 0.050445
         1        17        18        20     9        0.000000        1.566984         1    ;  uncertainty k = 0.588210
         1        17        18        20     9      180.000000       -0.241739         2    ;  uncertainty k = 0.204630
         1        17        18        20     9        0.000000        0.344335         3    ;  uncertainty k = 0.041181
         1        17        18        20     9      180.000000        0.436519         4    ;  uncertainty k = 0.050445
         1        17        18        21     9        0.000000        1.566984         1    ;  uncertainty k = 0.588210
         1        17        18        21     9      180.000000       -0.241739         2    ;  uncertainty k = 0.204630
         1        17        18        21     9        0.000000        0.344335         3    ;  uncertainty k = 0.041181
         1        17        18        21     9      180.000000        0.436519         4    ;  uncertainty k = 0.050445
         2         1         6         5     9        0.000000        0.023522         1    ;  uncertainty k = 0.690654
         2         1         6         5     9      180.000000       10.249098         2    ;  uncertainty k = 0.304416
         2         1         6         5     9        0.000000        1.649143         3    ;  uncertainty k = 0.279919
         2         1         6         5     9      180.000000        1.081365         4    ;  uncertainty k = 0.192382
         2         1        17        18     9        0.000000        0.459748         1    ;  uncertainty k = 0.290299
         2         1        17        18     9      180.000000        8.570292         2    ;  uncertainty k = 0.190818
         2         1        17        18     9        0.000000        0.464940         3    ;  uncertainty k = 0.264174
         2         1        17        18     9      180.000000        0.220115         4    ;  uncertainty k = 0.146368
         2         3         4         5     9        0.000000        0.094192         1    ;  uncertainty k = 0.279214
         2         3         4         5     9      180.000000       13.983568         2    ;  uncertainty k = 0.230189
         2         3         4         5     9        0.000000       -1.217649         3    ;  uncertainty k = 0.524862
         2         3         4         5     9      180.000000        0.651545         4    ;  uncertainty k = 0.324797
         2         3         4        13     9        0.000000        0.279381         1    ;  uncertainty k = 0.240374
         2         3         4        13     9      180.000000        8.036305         2    ;  uncertainty k = 0.380068
         2         3         4        13     9        0.000000        1.502798         3    ;  uncertainty k = 0.374635
         2         3         4        13     9      180.000000        1.941575         4    ;  uncertainty k = 0.177319
         3         2         1         6     9        0.000000       -0.373157         1    ;  uncertainty k = 0.276654
         3         2         1         6     9      180.000000        8.847330         2    ;  uncertainty k = 0.750976
         3         2         1         6     9        0.000000       -0.747112         3    ;  uncertainty k = 0.425195
         3         2         1         6     9      180.000000        1.067530         4    ;  uncertainty k = 0.359163
         3         2         1        17     9        0.000000        0.066675         1    ;  uncertainty k = 0.386312
         3         2         1        17     9      180.000000        7.258468         2    ;  uncertainty k = 0.569836
         3         2         1        17     9        0.000000        0.840214         3    ;  uncertainty k = 0.409808
         3         2         1        17     9      180.000000        1.396719         4    ;  uncertainty k = 0.304742
         3         4         5         6     9        0.000000       -0.082396         1    ;  uncertainty k = 0.194529
         3         4         5         6     9      180.000000       12.369452         2    ;  uncertainty k = 0.399856
         3         4         5         6     9        0.000000       -0.423842         3    ;  uncertainty k = 0.208397
         3         4         5         6     9      180.000000        1.092811         4    ;  uncertainty k = 0.232597
         3         4         5         7     9        0.000000        0.147172         1    ;  uncertainty k = 0.515906
         3         4         5         7     9      180.000000        8.488789         2    ;  uncertainty k = 0.112879
         3         4         5         7     9        0.000000        0.752494         3    ;  uncertainty k = 0.198405
         3         4         5         7     9      180.000000        1.511634         4    ;  uncertainty k = 0.181193
         4         3         2        12     9        0.000000        0.209991         1    ;  uncertainty k = 0.336435
         4         3         2        12     9      180.000000        8.657530         2    ;  uncertainty k = 0.566987
         4         3         2        12     9        0.000000        1.599949         3    ;  uncertainty k = 0.338799
         4         3         2        12     9      180.000000        1.906112         4    ;  uncertainty k = 0.181384
         4         5         7         8     9        0.000000        1.052476         1    ;  uncertainty k = 1.049018
         4         5         7         8     9      180.000000        3.490959         2    ;  uncertainty k = 0.236721
         4         5         7         8     9        0.000000        0.659567         3    ;  uncertainty k = 0.182488
         4         5         7         8     9      180.000000       -0.062719         4    ;  uncertainty k = 0.073435
         4         5         7        11     9        0.000000        1.271682         1    ;  uncertainty k = 1.018132
         4         5         7        11     9      180.000000        3.450255         2    ;  uncertainty k = 0.293357
         4         5         7        11     9        0.000000        0.498244         3    ;  uncertainty k = 0.221065
         4         5         7        11     9      180.000000       -0.051762         4    ;  uncertainty k = 0.047654
         5         4         3        16     9        0.000000       -0.052270         1    ;  uncertainty k = 0.200544
         5         4         3        16     9      180.000000        7.442692         2    ;  uncertainty k = 0.614045
         5         4         3        16     9        0.000000        1.243593         3    ;  uncertainty k = 0.278556
         5         4         3        16     9      180.000000        1.501824         4    ;  uncertainty k = 0.151861
         5         6         1        17     9        0.000000        0.083073         1    ;  uncertainty k = 0.689082
         5         6         1        17     9      180.000000       14.308788         2    ;  uncertainty k = 0.322325
         5         6         1        17     9        0.000000        2.710264         3    ;  uncertainty k = 0.110919
         5         6         1        17     9      180.000000        1.644317         4    ;  uncertainty k = 0.283477
         5         7         8         9     9        0.000000        0.633451         1    ;  uncertainty k = 0.524296
         5         7         8         9     9      180.000000       21.261559         2    ;  uncertainty k = 0.384881
         5         7         8         9     9        0.000000        1.405081         3    ;  uncertainty k = 0.496145
         5         7         8         9     9      180.000000        1.221813         4    ;  uncertainty k = 0.618038
         5         7        11        10     9        0.000000        0.910880         1    ;  uncertainty k = 0.990059
         5         7        11        10     9      180.000000       12.027569         2    ;  uncertainty k = 0.393741
         5         7        11        10     9        0.000000        1.512380         3    ;  uncertainty k = 0.231840
         5         7        11        10     9      180.000000        0.828445         4    ;  uncertainty k = 0.181497
         6         1         2        12     9        0.000000       -0.014097         1    ;  uncertainty k = 0.372455
         6         1         2        12     9      180.000000        5.844143         2    ;  uncertainty k = 0.673251
         6         1         2        12     9        0.000000        0.933910         3    ;  uncertainty k = 0.319015
         6         1         2        12     9      180.000000        1.468869         4    ;  uncertainty k = 0.136288
         6         1        17        18     9        0.000000        1.281844         1    ;  uncertainty k = 1.074617
         6         1        17        18     9      180.000000        9.952830         2    ;  uncertainty k = 0.135469
         6         1        17        18     9        0.000000        0.147502         3    ;  uncertainty k = 0.301618
         6         1        17        18     9      180.000000        0.384796         4    ;  uncertainty k = 0.106235
         6         5         4        13     9        0.000000       -0.177070         1    ;  uncertainty k = 0.199252
         6         5         4        13     9      180.000000        7.528114         2    ;  uncertainty k = 0.173759
         6         5         4        13     9        0.000000        1.119188         3    ;  uncertainty k = 0.244733
         6         5         4        13     9      180.000000        1.676337         4    ;  uncertainty k = 0.073948
         6         5         7         8     9        0.000000       -1.608829         1    ;  uncertainty k = 0.985804
         6         5         7         8     9      180.000000        3.773952         2    ;  uncertainty k = 0.352715
         6         5         7         8     9        0.000000        0.502089         3    ;  uncertainty k = 0.261806
         6         5         7         8     9      180.000000       -0.029727         4    ;  uncertainty k = 0.055929
         6         5         7        11     9        0.000000       -2.711874         1    ;  uncertainty k = 1.015492
         6         5         7        11     9      180.000000        3.916161         2    ;  uncertainty k = 0.436961
         6         5         7        11     9        0.000000        0.812989         3    ;  uncertainty k = 0.283064
         6         5         7        11     9      180.000000        0.009296         4    ;  uncertainty k = 0.094338
         7         5         4        13     9        0.000000       -0.116504         1    ;  uncertainty k = 0.478545
         7         5         4        13     9      180.000000        6.567592         2    ;  uncertainty k = 0.454481
         7         5         4        13     9        0.000000        0.615954         3    ;  uncertainty k = 0.228268
         7         5         4        13     9      180.000000        0.973406         4    ;  uncertainty k = 0.139388
         7         8         9        10     9        0.000000       -0.494723         1    ;  uncertainty k = 1.487658
         7         8         9        10     9      180.000000       15.519125         2    ;  uncertainty k = 0.456706
         7         8         9        10     9        0.000000       -7.753875         3    ;  uncertainty k = 1.654992
         7         8         9        10     9      180.000000        1.600608         4    ;  uncertainty k = 0.424662
         7         8         9        14     9        0.000000        3.268817         1    ;  uncertainty k = 1.749001
         7         8         9        14     9      180.000000       14.777391         2    ;  uncertainty k = 0.356910
         7         8         9        14     9        0.000000        1.764827         3    ;  uncertainty k = 0.949688
         7         8         9        14     9      180.000000       -0.518614         4    ;  uncertainty k = 0.199999
         7        11        10         9     9        0.000000        0.255606         1    ;  uncertainty k = 0.704571
         7        11        10         9     9      180.000000       24.634919         2    ;  uncertainty k = 0.474502
         7        11        10         9     9        0.000000      -10.206770         3    ;  uncertainty k = 1.485436
         7        11        10         9     9      180.000000        2.090310         4    ;  uncertainty k = 0.686581
         7        11        10        15     9        0.000000        0.234269         1    ;  uncertainty k = 1.118652
         7        11        10        15     9      180.000000       17.099517         2    ;  uncertainty k = 0.408981
         7        11        10        15     9        0.000000        1.010877         3    ;  uncertainty k = 0.906821
         7        11        10        15     9      180.000000        1.014945         4    ;  uncertainty k = 0.485969
         8         7        11        10     9        0.000000       -0.103483         1    ;  uncertainty k = 0.600266
         8         7        11        10     9      180.000000       17.565761         2    ;  uncertainty k = 0.649895
         8         7        11        10     9        0.000000       -7.030687         3    ;  uncertainty k = 0.973337
         8         7        11        10     9      180.000000        2.050649         4    ;  uncertainty k = 0.285055
         8         9        10        11     9        0.000000       -0.282782         1    ;  uncertainty k = 1.621125
         8         9        10        11     9      180.000000       19.311094         2    ;  uncertainty k = 0.894538
         8         9        10        11     9        0.000000      -12.595938         3    ;  uncertainty k = 1.752946
         8         9        10        11     9      180.000000        1.399980         4    ;  uncertainty k = 0.482574
         8         9        10        15     9        0.000000        0.865812         1    ;  uncertainty k = 0.996453
         8         9        10        15     9      180.000000       13.275237         2    ;  uncertainty k = 0.708281
         8         9        10        15     9        0.000000        1.413326         3    ;  uncertainty k = 0.416713
         8         9        10        15     9      180.000000       -0.094138         4    ;  uncertainty k = 0.407803
         9         8         7        11     9        0.000000        0.013357         1    ;  uncertainty k = 0.543499
         9         8         7        11     9      180.000000       26.619743         2    ;  uncertainty k = 0.337017
         9         8         7        11     9        0.000000       -8.710024         3    ;  uncertainty k = 1.034575
         9         8         7        11     9      180.000000        2.054941         4    ;  uncertainty k = 0.616618
        11        10         9        14     9        0.000000        3.072237         1    ;  uncertainty k = 2.130105
        11        10         9        14     9      180.000000       16.532064         2    ;  uncertainty k = 0.657739
        11        10         9        14     9        0.000000        1.206235         3    ;  uncertainty k = 0.578580
        11        10         9        14     9      180.000000       -0.609354         4    ;  uncertainty k = 0.207253
        12         2         1        17     9        0.000000        0.059899         1    ;  uncertainty k = 0.212441
        12         2         1        17     9      180.000000        6.235319         2    ;  uncertainty k = 0.329704
        12         2         1        17     9        0.000000        0.517214         3    ;  uncertainty k = 0.214768
        12         2         1        17     9      180.000000        0.764502         4    ;  uncertainty k = 0.188556
        12         2         3        16     9        0.000000        0.089193         1    ;  uncertainty k = 0.280689
        12         2         3        16     9      180.000000        7.891652         2    ;  uncertainty k = 0.448185
        12         2         3        16     9        0.000000       -0.398691         3    ;  uncertainty k = 0.377864
        12         2         3        16     9      180.000000        0.118699         4    ;  uncertainty k = 0.170647
        13         4         3        16     9        0.000000       -0.106152         1    ;  uncertainty k = 0.240530
        13         4         3        16     9      180.000000        7.660584         2    ;  uncertainty k = 0.538585
        13         4         3        16     9        0.000000       -0.427197         3    ;  uncertainty k = 0.337612
        13         4         3        16     9      180.000000        0.097902         4    ;  uncertainty k = 0.174717
        14         9        10        15     9        0.000000       -0.813300         1    ;  uncertainty k = 1.186431
        14         9        10        15     9      180.000000        1.790139         2    ;  uncertainty k = 1.021086
        14         9        10        15     9        0.000000        1.140254         3    ;  uncertainty k = 0.531911
        14         9        10        15     9      180.000000       -0.141186         4    ;  uncertainty k = 0.381417

[ dihedrals ] ; impropers
;       ai        aj        ak        al funct           phase               k        pn
         1         2         6        17     4      180.000000       30.900839         2    ;  uncertainty k = 0.075269
         1         6        17         2     4      180.000000       30.900839         2    ;  uncertainty k = 0.075269
         1        17         2         6     4      180.000000       30.900839         2    ;  uncertainty k = 0.075269
         2         1         3        12     4      180.000000        2.279085         2    ;  uncertainty k = 0.260210
         2         3        12         1     4      180.000000        2.279085         2    ;  uncertainty k = 0.260210
         2        12         1         3     4      180.000000        2.279085         2    ;  uncertainty k = 0.260210
         3         2         4        16     4      180.000000        6.533141         2    ;  uncertainty k = 0.137435
         3         4        16         2     4      180.000000        6.533141         2    ;  uncertainty k = 0.137435
         3        16         2         4     4      180.000000        6.533141         2    ;  uncertainty k = 0.137435
         4         3         5        13     4      180.000000        2.883842         2    ;  uncertainty k = 0.163253
         4         5        13         3     4      180.000000        2.883842         2    ;  uncertainty k = 0.163253
         4        13         3         5     4      180.000000        2.883842         2    ;  uncertainty k = 0.163253
         5         4         6         7     4      180.000000       20.327752         2    ;  uncertainty k = 0.045311
         5         6         7         4     4      180.000000       20.327752         2    ;  uncertainty k = 0.045311
         5         7         4         6     4      180.000000       20.327752         2    ;  uncertainty k = 0.045311
         7         5         8        11     4      180.000000        8.376209         2    ;  uncertainty k = 0.163959
         7         8        11         5     4      180.000000        8.376209         2    ;  uncertainty k = 0.163959
         7        11         5         8     4      180.000000        8.376209         2    ;  uncertainty k = 0.163959
        10         9        11        15     4      180.000000        3.977389         2    ;  uncertainty k = 0.286534
        10        11        15         9     4      180.000000        3.977389         2    ;  uncertainty k = 0.286534
        10        15         9        11     4      180.000000        3.977389         2    ;  uncertainty k = 0.286534

[ pairs ]
;       ai        aj funct
         1         4     1
         1         7     1
         1        16     1
         1        19     1
         1        20     1
         1        21     1
         2         5     1
         2        13     1
         2        18     1
         3         6     1
         3         7     1
         3        17     1
         4         8     1
         4        11     1
         4        12     1
         5         9     1
         5        10     1
         5        16     1
         5        17     1
         6         8     1
         6        11     1
         6        12     1
         6        13     1
         6        18     1
         7        13     1
         7        14     1
         7        15     1
         8        15     1
        11        14     1
        12        16     1
        12        17     1
        13        16     1
        14        15     1
