; ITP file created by ByteFF-joint-25, 2025-07-14 11:27:22.258590

[ atomtypes ]
;name           bonded.type        at.num        mass        charge   ptype           sigma         epsilon
 c0bf                                   6      0.0000       0.00000       A     3.31509e-01     4.13188e-01    ;  uncertainty sigma = 0.000007, epsilon = 0.000751
 c1bf                                   6      0.0000       0.00000       A     3.31518e-01     4.13292e-01    ;  uncertainty sigma = 0.000006, epsilon = 0.000619
 c2bf                                   6      0.0000       0.00000       A     3.31521e-01     4.13297e-01    ;  uncertainty sigma = 0.000006, epsilon = 0.000596
 c3bf                                   6      0.0000       0.00000       A     3.31528e-01     4.13375e-01    ;  uncertainty sigma = 0.000007, epsilon = 0.000595
 c4bf                                   6      0.0000       0.00000       A     3.31544e-01     4.13784e-01    ;  uncertainty sigma = 0.000004, epsilon = 0.000854
 n5bf                                   7      0.0000       0.00000       A     3.38404e-01     3.93630e-01    ;  uncertainty sigma = 0.000013, epsilon = 0.001040
 c6bf                                   6      0.0000       0.00000       A     3.31582e-01     4.13277e-01    ;  uncertainty sigma = 0.000022, epsilon = 0.000973
 n7bf                                   7      0.0000       0.00000       A     3.38443e-01     3.93561e-01    ;  uncertainty sigma = 0.000013, epsilon = 0.000313
 n8bf                                   7      0.0000       0.00000       A     3.20588e-01     8.54436e-01    ;  uncertainty sigma = 0.000034, epsilon = 0.001797
 c9bf                                   6      0.0000       0.00000       A     3.31525e-01     4.12738e-01    ;  uncertainty sigma = 0.000011, epsilon = 0.001047
 n10bf                                  7      0.0000       0.00000       A     3.38428e-01     3.93752e-01    ;  uncertainty sigma = 0.000032, epsilon = 0.001184
 h11bf                                  1      0.0000       0.00000       A     2.62568e-01     6.70482e-02    ;  uncertainty sigma = 0.000011, epsilon = 0.000503
 h12bf                                  1      0.0000       0.00000       A     2.62576e-01     6.69457e-02    ;  uncertainty sigma = 0.000016, epsilon = 0.000553
 h13bf                                  1      0.0000       0.00000       A     1.10671e-01     4.15054e-02    ;  uncertainty sigma = 0.000077, epsilon = 0.000867
 h14bf                                  1      0.0000       0.00000       A     2.44737e-01     6.76647e-02    ;  uncertainty sigma = 0.000034, epsilon = 0.000441
 h15bf                                  1      0.0000       0.00000       A     2.62560e-01     6.70745e-02    ;  uncertainty sigma = 0.000011, epsilon = 0.000661
 c16bf                                  6      0.0000       0.00000       A     3.39773e-01     4.50936e-01    ;  uncertainty sigma = 0.000004, epsilon = 0.000498
 h17bf                                  1      0.0000       0.00000       A     2.60034e-01     8.66333e-02    ;  uncertainty sigma = 0.000007, epsilon = 0.000537
 h18bf                                  1      0.0000       0.00000       A     2.60034e-01     8.66333e-02    ;  uncertainty sigma = 0.000007, epsilon = 0.000537
 h19bf                                  1      0.0000       0.00000       A     2.60034e-01     8.66333e-02    ;  uncertainty sigma = 0.000007, epsilon = 0.000537

[ moleculetype ]
;name             nrexcl
 MOL                   3

[ atoms ]
;       nr            type      resi   res      atom      cgnr      charge          mass ; qtot
         1            c0bf         1   UNL        c0         1     0.41542       12.0110 ; qtot    0.415
         2            c1bf         1   UNL        c1         2    -0.23365       12.0110 ; qtot    0.182
         3            c2bf         1   UNL        c2         3    -0.09802       12.0110 ; qtot    0.084
         4            c3bf         1   UNL        c3         4    -0.21741       12.0110 ; qtot   -0.134
         5            c4bf         1   UNL        c4         5     0.37672       12.0110 ; qtot    0.243
         6            n5bf         1   UNL        n5         6    -0.65648       14.0070 ; qtot   -0.413
         7            c6bf         1   UNL        c6         7     0.48007       12.0110 ; qtot    0.067
         8            n7bf         1   UNL        n7         8    -0.50082       14.0070 ; qtot   -0.434
         9            n8bf         1   UNL        n8         9    -0.17080       14.0070 ; qtot   -0.605
        10            c9bf         1   UNL        c9        10     0.42242       12.0110 ; qtot   -0.183
        11           n10bf         1   UNL       n10        11    -0.67991       14.0070 ; qtot   -0.862
        12           h11bf         1   UNL       h11        12     0.14267        1.0080 ; qtot   -0.720
        13           h12bf         1   UNL       h12        13     0.16124        1.0080 ; qtot   -0.559
        14           h13bf         1   UNL       h13        14     0.33362        1.0080 ; qtot   -0.225
        15           h14bf         1   UNL       h14        15     0.06872        1.0080 ; qtot   -0.156
        16           h15bf         1   UNL       h15        16     0.14111        1.0080 ; qtot   -0.015
        17           c16bf         1   UNL       c16        17    -0.14421       12.0110 ; qtot   -0.159
        18           h17bf         1   UNL       h17        18     0.05310        1.0080 ; qtot   -0.106
        19           h18bf         1   UNL       h18        19     0.05310        1.0080 ; qtot   -0.053
        20           h19bf         1   UNL       h19        20     0.05311        1.0080 ; qtot   -0.000

[ bonds ]
;       ai        aj funct               r               k
         1         2     1        0.140358   349530.629639    ;  uncertainty r = 0.000041, k = 4.999763
         1         6     1        0.134042   378912.401904    ;  uncertainty r = 0.000026, k = 2.991812
         1        17     1        0.150901   261642.548145    ;  uncertainty r = 0.000018, k = 4.971009
         2         3     1        0.139369   384538.533545    ;  uncertainty r = 0.000040, k = 1.454983
         2        12     1        0.108828   339673.739551    ;  uncertainty r = 0.000012, k = 1.237864
         3         4     1        0.139088   381089.670313    ;  uncertainty r = 0.000038, k = 1.561292
         3        16     1        0.108759   332607.851221    ;  uncertainty r = 0.000010, k = 1.086952
         4         5     1        0.139867   341197.155811    ;  uncertainty r = 0.000053, k = 5.363035
         4        13     1        0.108713   337523.770312    ;  uncertainty r = 0.000025, k = 0.826031
         5         6     1        0.133211   377790.352393    ;  uncertainty r = 0.000043, k = 6.568596
         5         7     1        0.144871   269616.663770    ;  uncertainty r = 0.000197, k = 9.828454
         7         8     1        0.133417   442617.913379    ;  uncertainty r = 0.000104, k = 12.576860
         7        11     1        0.137283   264514.349316    ;  uncertainty r = 0.000119, k = 10.870433
         8         9     1        0.135115   345857.780420    ;  uncertainty r = 0.000091, k = 10.714992
         9        10     1        0.136150   300976.336230    ;  uncertainty r = 0.000062, k = 20.615570
         9        14     1        0.101417   420369.779395    ;  uncertainty r = 0.000021, k = 2.562005
        10        11     1        0.131950   468163.450000    ;  uncertainty r = 0.000125, k = 7.217777
        10        15     1        0.108289   339513.289893    ;  uncertainty r = 0.000035, k = 3.152896
        17        18     1        0.109471   310450.067529    ;  uncertainty r = 0.000012, k = 1.446104
        17        19     1        0.109471   310450.067529    ;  uncertainty r = 0.000012, k = 1.446104
        17        20     1        0.109471   310450.093066    ;  uncertainty r = 0.000012, k = 1.446097

[ angles ]
;       ai        aj        ak funct           theta             cth
         1         2         3     1      117.030594      482.887011    ;  uncertainty theta = 0.002358, k = 0.083553
         1         2        12     1      120.670059      276.936927    ;  uncertainty theta = 0.000343, k = 0.100300
         1         6         5     1      116.982239      421.578859    ;  uncertainty theta = 0.005797, k = 0.079877
         1        17        18     1      109.160561      387.879611    ;  uncertainty theta = 0.001614, k = 0.036252
         1        17        19     1      109.160561      387.879611    ;  uncertainty theta = 0.001614, k = 0.036252
         1        17        20     1      109.160561      387.879611    ;  uncertainty theta = 0.001614, k = 0.036252
         2         1         6     1      122.379623      620.123373    ;  uncertainty theta = 0.002479, k = 0.060796
         2         1        17     1      121.322021      418.821650    ;  uncertainty theta = 0.002224, k = 0.122423
         2         3         4     1      118.513817      536.575208    ;  uncertainty theta = 0.001588, k = 0.101832
         2         3        16     1      120.873024      284.984245    ;  uncertainty theta = 0.001142, k = 0.059871
         3         2        12     1      121.791763      289.245878    ;  uncertainty theta = 0.001124, k = 0.027192
         3         4         5     1      116.606972      469.951156    ;  uncertainty theta = 0.001973, k = 0.232871
         3         4        13     1      122.272873      289.400058    ;  uncertainty theta = 0.002317, k = 0.072641
         4         3        16     1      120.639992      279.294066    ;  uncertainty theta = 0.002033, k = 0.026666
         4         5         6     1      124.664429      601.368600    ;  uncertainty theta = 0.001481, k = 0.138498
         4         5         7     1      118.283730      386.780366    ;  uncertainty theta = 0.002117, k = 0.077170
         5         4        13     1      121.090919      265.528176    ;  uncertainty theta = 0.000748, k = 0.121587
         5         7         8     1      118.882545      362.776664    ;  uncertainty theta = 0.005622, k = 0.174181
         5         7        11     1      118.673317      371.077374    ;  uncertainty theta = 0.007174, k = 0.227810
         6         1        17     1      118.161880      491.462628    ;  uncertainty theta = 0.002532, k = 0.149686
         6         5         7     1      112.258217      429.896296    ;  uncertainty theta = 0.003223, k = 0.165716
         7         8         9     1      104.872757      939.516766    ;  uncertainty theta = 0.002691, k = 0.099571
         7        11        10     1      103.592979      824.420631    ;  uncertainty theta = 0.004784, k = 0.168208
         8         7        11     1      116.994911      908.651083    ;  uncertainty theta = 0.003280, k = 0.128458
         8         9        10     1      106.887367     1012.845171    ;  uncertainty theta = 0.002335, k = 0.094196
         8         9        14     1      109.961075      332.706878    ;  uncertainty theta = 0.002039, k = 0.069478
         9        10        11     1      110.090965      883.878172    ;  uncertainty theta = 0.002054, k = 0.069207
         9        10        15     1      119.909668      267.379792    ;  uncertainty theta = 0.004834, k = 0.175416
        10         9        14     1      117.917213      279.401290    ;  uncertainty theta = 0.007251, k = 0.128166
        11        10        15     1      125.221985      260.329507    ;  uncertainty theta = 0.002008, k = 0.177087
        18        17        19     1      107.072670      313.394694    ;  uncertainty theta = 0.001347, k = 0.026473
        18        17        20     1      107.072670      313.394694    ;  uncertainty theta = 0.001347, k = 0.026473
        19        17        20     1      107.072670      313.394662    ;  uncertainty theta = 0.001347, k = 0.026473

[ dihedrals ] ; propers for gromacs 4.5 or higher, use funct 9
;       ai        aj        ak        al funct           phase               k        pn
         1         2         3         4     9        0.000000       -0.120223         1    ;  uncertainty k = 0.181720
         1         2         3         4     9      180.000000       14.247024         2    ;  uncertainty k = 0.218674
         1         2         3         4     9        0.000000       -1.256635         3    ;  uncertainty k = 0.424586
         1         2         3         4     9      180.000000        0.635522         4    ;  uncertainty k = 0.170471
         1         2         3        16     9        0.000000       -0.100113         1    ;  uncertainty k = 0.227285
         1         2         3        16     9      180.000000        7.463758         2    ;  uncertainty k = 0.295664
         1         2         3        16     9        0.000000        1.258786         3    ;  uncertainty k = 0.236288
         1         2         3        16     9      180.000000        1.589281         4    ;  uncertainty k = 0.105453
         1         6         5         4     9        0.000000       -0.161445         1    ;  uncertainty k = 0.824705
         1         6         5         4     9      180.000000       12.305501         2    ;  uncertainty k = 0.393470
         1         6         5         4     9        0.000000        1.519803         3    ;  uncertainty k = 0.753858
         1         6         5         4     9      180.000000        1.063270         4    ;  uncertainty k = 0.204906
         1         6         5         7     9        0.000000        0.613455         1    ;  uncertainty k = 1.152257
         1         6         5         7     9      180.000000       14.791626         2    ;  uncertainty k = 0.338511
         1         6         5         7     9        0.000000        2.165462         3    ;  uncertainty k = 0.273898
         1         6         5         7     9      180.000000        1.311558         4    ;  uncertainty k = 0.376683
         2         1         6         5     9        0.000000       -0.133467         1    ;  uncertainty k = 0.782155
         2         1         6         5     9      180.000000       13.022675         2    ;  uncertainty k = 0.255372
         2         1         6         5     9        0.000000        1.770669         3    ;  uncertainty k = 0.277368
         2         1         6         5     9      180.000000        1.181544         4    ;  uncertainty k = 0.280625
         2         1        17        18     9        0.000000       -0.240658         1    ;  uncertainty k = 0.244828
         2         1        17        18     9      180.000000        1.845758         2    ;  uncertainty k = 0.157220
         2         1        17        18     9        0.000000        0.366383         3    ;  uncertainty k = 0.029276
         2         1        17        18     9      180.000000        0.141157         4    ;  uncertainty k = 0.015730
         2         1        17        19     9        0.000000       -0.240658         1    ;  uncertainty k = 0.244828
         2         1        17        19     9      180.000000        1.845758         2    ;  uncertainty k = 0.157220
         2         1        17        19     9        0.000000        0.366383         3    ;  uncertainty k = 0.029276
         2         1        17        19     9      180.000000        0.141157         4    ;  uncertainty k = 0.015730
         2         1        17        20     9        0.000000       -0.240658         1    ;  uncertainty k = 0.244828
         2         1        17        20     9      180.000000        1.845758         2    ;  uncertainty k = 0.157220
         2         1        17        20     9        0.000000        0.366383         3    ;  uncertainty k = 0.029276
         2         1        17        20     9      180.000000        0.141157         4    ;  uncertainty k = 0.015730
         2         3         4         5     9        0.000000        0.127679         1    ;  uncertainty k = 0.227527
         2         3         4         5     9      180.000000       14.520534         2    ;  uncertainty k = 0.313864
         2         3         4         5     9        0.000000       -1.263265         3    ;  uncertainty k = 0.445443
         2         3         4         5     9      180.000000        0.593740         4    ;  uncertainty k = 0.304796
         2         3         4        13     9        0.000000        0.251291         1    ;  uncertainty k = 0.303976
         2         3         4        13     9      180.000000        8.317517         2    ;  uncertainty k = 0.290026
         2         3         4        13     9        0.000000        1.497220         3    ;  uncertainty k = 0.327996
         2         3         4        13     9      180.000000        1.947056         4    ;  uncertainty k = 0.205597
         3         2         1         6     9        0.000000        0.021927         1    ;  uncertainty k = 0.275487
         3         2         1         6     9      180.000000       12.457790         2    ;  uncertainty k = 0.437266
         3         2         1         6     9        0.000000       -0.803407         3    ;  uncertainty k = 0.423735
         3         2         1         6     9      180.000000        1.031632         4    ;  uncertainty k = 0.176417
         3         2         1        17     9        0.000000        0.276273         1    ;  uncertainty k = 0.341917
         3         2         1        17     9      180.000000        7.552841         2    ;  uncertainty k = 0.260026
         3         2         1        17     9        0.000000        1.106124         3    ;  uncertainty k = 0.177223
         3         2         1        17     9      180.000000        1.567367         4    ;  uncertainty k = 0.172991
         3         4         5         6     9        0.000000       -0.153669         1    ;  uncertainty k = 0.179420
         3         4         5         6     9      180.000000       11.469299         2    ;  uncertainty k = 0.431328
         3         4         5         6     9        0.000000       -0.410538         3    ;  uncertainty k = 0.354119
         3         4         5         6     9      180.000000        1.091498         4    ;  uncertainty k = 0.237737
         3         4         5         7     9        0.000000        0.145050         1    ;  uncertainty k = 0.593459
         3         4         5         7     9      180.000000        8.121357         2    ;  uncertainty k = 0.126738
         3         4         5         7     9        0.000000        0.738645         3    ;  uncertainty k = 0.142415
         3         4         5         7     9      180.000000        1.514433         4    ;  uncertainty k = 0.218371
         4         3         2        12     9        0.000000        0.072516         1    ;  uncertainty k = 0.255091
         4         3         2        12     9      180.000000        8.428481         2    ;  uncertainty k = 0.445028
         4         3         2        12     9        0.000000        1.524603         3    ;  uncertainty k = 0.337123
         4         3         2        12     9      180.000000        1.851859         4    ;  uncertainty k = 0.192815
         4         5         7         8     9        0.000000        0.922617         1    ;  uncertainty k = 0.902017
         4         5         7         8     9      180.000000        3.528170         2    ;  uncertainty k = 0.136447
         4         5         7         8     9        0.000000        0.682378         3    ;  uncertainty k = 0.187066
         4         5         7         8     9      180.000000       -0.061338         4    ;  uncertainty k = 0.071335
         4         5         7        11     9        0.000000        1.202967         1    ;  uncertainty k = 0.913056
         4         5         7        11     9      180.000000        3.428639         2    ;  uncertainty k = 0.283527
         4         5         7        11     9        0.000000        0.512645         3    ;  uncertainty k = 0.190131
         4         5         7        11     9      180.000000       -0.045115         4    ;  uncertainty k = 0.058836
         5         4         3        16     9        0.000000       -0.036942         1    ;  uncertainty k = 0.240231
         5         4         3        16     9      180.000000        7.868876         2    ;  uncertainty k = 0.532445
         5         4         3        16     9        0.000000        1.263049         3    ;  uncertainty k = 0.288055
         5         4         3        16     9      180.000000        1.589659         4    ;  uncertainty k = 0.146642
         5         6         1        17     9        0.000000        0.572362         1    ;  uncertainty k = 1.149960
         5         6         1        17     9      180.000000       15.164354         2    ;  uncertainty k = 0.462128
         5         6         1        17     9        0.000000        2.660988         3    ;  uncertainty k = 0.341931
         5         6         1        17     9      180.000000        1.823679         4    ;  uncertainty k = 0.336140
         5         7         8         9     9        0.000000        0.744448         1    ;  uncertainty k = 0.584441
         5         7         8         9     9      180.000000       21.335134         2    ;  uncertainty k = 0.342854
         5         7         8         9     9        0.000000        1.330522         3    ;  uncertainty k = 0.507697
         5         7         8         9     9      180.000000        1.214806         4    ;  uncertainty k = 0.597507
         5         7        11        10     9        0.000000        0.963762         1    ;  uncertainty k = 1.079499
         5         7        11        10     9      180.000000       12.239526         2    ;  uncertainty k = 0.379029
         5         7        11        10     9        0.000000        1.501910         3    ;  uncertainty k = 0.296085
         5         7        11        10     9      180.000000        0.764722         4    ;  uncertainty k = 0.214406
         6         1         2        12     9        0.000000        0.032163         1    ;  uncertainty k = 0.316105
         6         1         2        12     9      180.000000        7.436818         2    ;  uncertainty k = 0.725423
         6         1         2        12     9        0.000000        1.083262         3    ;  uncertainty k = 0.297463
         6         1         2        12     9      180.000000        1.614654         4    ;  uncertainty k = 0.145495
         6         1        17        18     9        0.000000        0.595834         1    ;  uncertainty k = 0.189799
         6         1        17        18     9      180.000000        3.240804         2    ;  uncertainty k = 0.342301
         6         1        17        18     9        0.000000        0.492175         3    ;  uncertainty k = 0.071727
         6         1        17        18     9      180.000000        0.285572         4    ;  uncertainty k = 0.050486
         6         1        17        19     9        0.000000        0.595834         1    ;  uncertainty k = 0.189799
         6         1        17        19     9      180.000000        3.240804         2    ;  uncertainty k = 0.342301
         6         1        17        19     9        0.000000        0.492175         3    ;  uncertainty k = 0.071727
         6         1        17        19     9      180.000000        0.285572         4    ;  uncertainty k = 0.050486
         6         1        17        20     9        0.000000        0.595834         1    ;  uncertainty k = 0.189799
         6         1        17        20     9      180.000000        3.240804         2    ;  uncertainty k = 0.342301
         6         1        17        20     9        0.000000        0.492175         3    ;  uncertainty k = 0.071727
         6         1        17        20     9      180.000000        0.285572         4    ;  uncertainty k = 0.050486
         6         5         4        13     9        0.000000       -0.147448         1    ;  uncertainty k = 0.235753
         6         5         4        13     9      180.000000        7.119681         2    ;  uncertainty k = 0.288605
         6         5         4        13     9        0.000000        1.100848         3    ;  uncertainty k = 0.226094
         6         5         4        13     9      180.000000        1.645030         4    ;  uncertainty k = 0.110761
         6         5         7         8     9        0.000000       -1.016597         1    ;  uncertainty k = 0.595358
         6         5         7         8     9      180.000000        3.684883         2    ;  uncertainty k = 0.249496
         6         5         7         8     9        0.000000        0.541366         3    ;  uncertainty k = 0.187217
         6         5         7         8     9      180.000000       -0.042241         4    ;  uncertainty k = 0.052311
         6         5         7        11     9        0.000000       -1.989701         1    ;  uncertainty k = 0.714889
         6         5         7        11     9      180.000000        3.800413         2    ;  uncertainty k = 0.262255
         6         5         7        11     9        0.000000        0.824844         3    ;  uncertainty k = 0.194257
         6         5         7        11     9      180.000000       -0.005842         4    ;  uncertainty k = 0.078378
         7         5         4        13     9        0.000000       -0.177447         1    ;  uncertainty k = 0.425154
         7         5         4        13     9      180.000000        6.449892         2    ;  uncertainty k = 0.501971
         7         5         4        13     9        0.000000        0.575446         3    ;  uncertainty k = 0.237437
         7         5         4        13     9      180.000000        0.982286         4    ;  uncertainty k = 0.160952
         7         8         9        10     9        0.000000       -0.491435         1    ;  uncertainty k = 1.441859
         7         8         9        10     9      180.000000       15.543784         2    ;  uncertainty k = 0.446032
         7         8         9        10     9        0.000000       -7.760275         3    ;  uncertainty k = 1.623778
         7         8         9        10     9      180.000000        1.597604         4    ;  uncertainty k = 0.418084
         7         8         9        14     9        0.000000        3.225543         1    ;  uncertainty k = 1.747876
         7         8         9        14     9      180.000000       14.827510         2    ;  uncertainty k = 0.361989
         7         8         9        14     9        0.000000        1.751892         3    ;  uncertainty k = 0.931541
         7         8         9        14     9      180.000000       -0.526639         4    ;  uncertainty k = 0.200296
         7        11        10         9     9        0.000000        0.244774         1    ;  uncertainty k = 0.677170
         7        11        10         9     9      180.000000       24.602547         2    ;  uncertainty k = 0.479456
         7        11        10         9     9        0.000000      -10.200610         3    ;  uncertainty k = 1.504388
         7        11        10         9     9      180.000000        2.093255         4    ;  uncertainty k = 0.694282
         7        11        10        15     9        0.000000        0.226075         1    ;  uncertainty k = 1.102573
         7        11        10        15     9      180.000000       17.116132         2    ;  uncertainty k = 0.408289
         7        11        10        15     9        0.000000        1.005585         3    ;  uncertainty k = 0.886216
         7        11        10        15     9      180.000000        1.020816         4    ;  uncertainty k = 0.479753
         8         7        11        10     9        0.000000       -0.082418         1    ;  uncertainty k = 0.606451
         8         7        11        10     9      180.000000       17.601800         2    ;  uncertainty k = 0.641103
         8         7        11        10     9        0.000000       -7.003577         3    ;  uncertainty k = 0.952383
         8         7        11        10     9      180.000000        2.043579         4    ;  uncertainty k = 0.283596
         8         9        10        11     9        0.000000       -0.282782         1    ;  uncertainty k = 1.621125
         8         9        10        11     9      180.000000       19.311094         2    ;  uncertainty k = 0.894538
         8         9        10        11     9        0.000000      -12.595938         3    ;  uncertainty k = 1.752946
         8         9        10        11     9      180.000000        1.399980         4    ;  uncertainty k = 0.482574
         8         9        10        15     9        0.000000        0.865812         1    ;  uncertainty k = 0.996453
         8         9        10        15     9      180.000000       13.275237         2    ;  uncertainty k = 0.708281
         8         9        10        15     9        0.000000        1.413326         3    ;  uncertainty k = 0.416713
         8         9        10        15     9      180.000000       -0.094138         4    ;  uncertainty k = 0.407803
         9         8         7        11     9        0.000000        0.036940         1    ;  uncertainty k = 0.538201
         9         8         7        11     9      180.000000       26.687391         2    ;  uncertainty k = 0.338801
         9         8         7        11     9        0.000000       -8.701333         3    ;  uncertainty k = 1.043450
         9         8         7        11     9      180.000000        2.039900         4    ;  uncertainty k = 0.620437
        11        10         9        14     9        0.000000        3.072237         1    ;  uncertainty k = 2.130105
        11        10         9        14     9      180.000000       16.532064         2    ;  uncertainty k = 0.657739
        11        10         9        14     9        0.000000        1.206235         3    ;  uncertainty k = 0.578580
        11        10         9        14     9      180.000000       -0.609354         4    ;  uncertainty k = 0.207253
        12         2         1        17     9        0.000000       -0.311354         1    ;  uncertainty k = 0.374873
        12         2         1        17     9      180.000000        6.863347         2    ;  uncertainty k = 0.246230
        12         2         1        17     9        0.000000        0.534730         3    ;  uncertainty k = 0.203751
        12         2         1        17     9      180.000000        0.788190         4    ;  uncertainty k = 0.239152
        12         2         3        16     9        0.000000       -0.037597         1    ;  uncertainty k = 0.253792
        12         2         3        16     9      180.000000        8.070667         2    ;  uncertainty k = 0.420871
        12         2         3        16     9        0.000000       -0.485002         3    ;  uncertainty k = 0.361221
        12         2         3        16     9      180.000000        0.079152         4    ;  uncertainty k = 0.175607
        13         4         3        16     9        0.000000       -0.146969         1    ;  uncertainty k = 0.220402
        13         4         3        16     9      180.000000        7.976507         2    ;  uncertainty k = 0.532042
        13         4         3        16     9        0.000000       -0.507682         3    ;  uncertainty k = 0.387794
        13         4         3        16     9      180.000000        0.098681         4    ;  uncertainty k = 0.205703
        14         9        10        15     9        0.000000       -0.813300         1    ;  uncertainty k = 1.186431
        14         9        10        15     9      180.000000        1.790139         2    ;  uncertainty k = 1.021086
        14         9        10        15     9        0.000000        1.140254         3    ;  uncertainty k = 0.531911
        14         9        10        15     9      180.000000       -0.141186         4    ;  uncertainty k = 0.381417

[ dihedrals ] ; impropers
;       ai        aj        ak        al funct           phase               k        pn
         1         2         6        17     4      180.000000       27.936776         2    ;  uncertainty k = 0.054900
         1         6        17         2     4      180.000000       27.936776         2    ;  uncertainty k = 0.054900
         1        17         2         6     4      180.000000       27.936776         2    ;  uncertainty k = 0.054900
         2         1         3        12     4      180.000000        3.125510         2    ;  uncertainty k = 0.183150
         2         3        12         1     4      180.000000        3.125510         2    ;  uncertainty k = 0.183150
         2        12         1         3     4      180.000000        3.125510         2    ;  uncertainty k = 0.183150
         3         2         4        16     4      180.000000        6.323595         2    ;  uncertainty k = 0.111790
         3         4        16         2     4      180.000000        6.323595         2    ;  uncertainty k = 0.111790
         3        16         2         4     4      180.000000        6.323595         2    ;  uncertainty k = 0.111790
         4         3         5        13     4      180.000000        3.703140         2    ;  uncertainty k = 0.108874
         4         5        13         3     4      180.000000        3.703140         2    ;  uncertainty k = 0.108874
         4        13         3         5     4      180.000000        3.703140         2    ;  uncertainty k = 0.108874
         5         4         6         7     4      180.000000       20.419916         2    ;  uncertainty k = 0.010639
         5         6         7         4     4      180.000000       20.419916         2    ;  uncertainty k = 0.010639
         5         7         4         6     4      180.000000       20.419916         2    ;  uncertainty k = 0.010639
         7         5         8        11     4      180.000000        8.849726         2    ;  uncertainty k = 0.153107
         7         8        11         5     4      180.000000        8.849726         2    ;  uncertainty k = 0.153107
         7        11         5         8     4      180.000000        8.849726         2    ;  uncertainty k = 0.153107
        10         9        11        15     4      180.000000        3.977389         2    ;  uncertainty k = 0.286534
        10        11        15         9     4      180.000000        3.977389         2    ;  uncertainty k = 0.286534
        10        15         9        11     4      180.000000        3.977389         2    ;  uncertainty k = 0.286534

[ pairs ]
;       ai        aj funct
         1         4     1
         1         7     1
         1        16     1
         2         5     1
         2        13     1
         2        18     1
         2        19     1
         2        20     1
         3         6     1
         3         7     1
         3        17     1
         4         8     1
         4        11     1
         4        12     1
         5         9     1
         5        10     1
         5        16     1
         5        17     1
         6         8     1
         6        11     1
         6        12     1
         6        13     1
         6        18     1
         6        19     1
         6        20     1
         7        13     1
         7        14     1
         7        15     1
         8        15     1
        11        14     1
        12        16     1
        12        17     1
        13        16     1
        14        15     1
