; ITP file created by ByteFF-joint-25, 2025-07-14 11:27:21.986881

[ atomtypes ]
;name           bonded.type        at.num        mass        charge   ptype           sigma         epsilon
 c0bf                                   6      0.0000       0.00000       A     3.31529e-01     4.13685e-01    ;  uncertainty sigma = 0.000014, epsilon = 0.001295
 c1bf                                   6      0.0000       0.00000       A     3.31517e-01     4.13219e-01    ;  uncertainty sigma = 0.000007, epsilon = 0.000464
 c2bf                                   6      0.0000       0.00000       A     3.31522e-01     4.13259e-01    ;  uncertainty sigma = 0.000006, epsilon = 0.000644
 c3bf                                   6      0.0000       0.00000       A     3.31529e-01     4.13369e-01    ;  uncertainty sigma = 0.000007, epsilon = 0.000603
 c4bf                                   6      0.0000       0.00000       A     3.31548e-01     4.13719e-01    ;  uncertainty sigma = 0.000004, epsilon = 0.000859
 n5bf                                   7      0.0000       0.00000       A     3.38415e-01     3.93109e-01    ;  uncertainty sigma = 0.000007, epsilon = 0.000761
 c6bf                                   6      0.0000       0.00000       A     3.31582e-01     4.13267e-01    ;  uncertainty sigma = 0.000021, epsilon = 0.000992
 n7bf                                   7      0.0000       0.00000       A     3.38443e-01     3.93561e-01    ;  uncertainty sigma = 0.000013, epsilon = 0.000313
 n8bf                                   7      0.0000       0.00000       A     3.20588e-01     8.54436e-01    ;  uncertainty sigma = 0.000034, epsilon = 0.001797
 c9bf                                   6      0.0000       0.00000       A     3.31525e-01     4.12738e-01    ;  uncertainty sigma = 0.000011, epsilon = 0.001047
 n10bf                                  7      0.0000       0.00000       A     3.38428e-01     3.93752e-01    ;  uncertainty sigma = 0.000032, epsilon = 0.001184
 h11bf                                  1      0.0000       0.00000       A     2.62574e-01     6.69493e-02    ;  uncertainty sigma = 0.000016, epsilon = 0.000549
 h12bf                                  1      0.0000       0.00000       A     2.62576e-01     6.69457e-02    ;  uncertainty sigma = 0.000016, epsilon = 0.000553
 h13bf                                  1      0.0000       0.00000       A     1.10671e-01     4.15054e-02    ;  uncertainty sigma = 0.000077, epsilon = 0.000867
 h14bf                                  1      0.0000       0.00000       A     2.44737e-01     6.76647e-02    ;  uncertainty sigma = 0.000034, epsilon = 0.000441
 h15bf                                  1      0.0000       0.00000       A     2.62558e-01     6.70699e-02    ;  uncertainty sigma = 0.000012, epsilon = 0.000661
 h16bf                                  1      0.0000       0.00000       A     2.60159e-01     8.65631e-02    ;  uncertainty sigma = 0.000067, epsilon = 0.000833
 c17bf                                  6      0.0000       0.00000       A     3.39780e-01     4.51272e-01    ;  uncertainty sigma = 0.000024, epsilon = 0.001721
 c18bf                                  6      0.0000       0.00000       A     3.39797e-01     4.50983e-01    ;  uncertainty sigma = 0.000013, epsilon = 0.000637
 c19bf                                  6      0.0000       0.00000       A     3.39766e-01     4.51031e-01    ;  uncertainty sigma = 0.000012, epsilon = 0.000882
 c20bf                                  6      0.0000       0.00000       A     3.39797e-01     4.50983e-01    ;  uncertainty sigma = 0.000013, epsilon = 0.000637
 h21bf                                  1      0.0000       0.00000       A     2.60010e-01     8.67584e-02    ;  uncertainty sigma = 0.000019, epsilon = 0.000911
 h22bf                                  1      0.0000       0.00000       A     2.60010e-01     8.67584e-02    ;  uncertainty sigma = 0.000019, epsilon = 0.000911
 h23bf                                  1      0.0000       0.00000       A     2.60026e-01     8.68891e-02    ;  uncertainty sigma = 0.000015, epsilon = 0.000957
 h24bf                                  1      0.0000       0.00000       A     2.60026e-01     8.68890e-02    ;  uncertainty sigma = 0.000015, epsilon = 0.000957
 h25bf                                  1      0.0000       0.00000       A     2.60010e-01     8.67584e-02    ;  uncertainty sigma = 0.000019, epsilon = 0.000911
 h26bf                                  1      0.0000       0.00000       A     2.60010e-01     8.67583e-02    ;  uncertainty sigma = 0.000019, epsilon = 0.000911

[ moleculetype ]
;name             nrexcl
 MOL                   3

[ atoms ]
;       nr            type      resi   res      atom      cgnr      charge          mass ; qtot
         1            c0bf         1   UNL        c0         1     0.43504       12.0110 ; qtot    0.435
         2            c1bf         1   UNL        c1         2    -0.23147       12.0110 ; qtot    0.204
         3            c2bf         1   UNL        c2         3    -0.09869       12.0110 ; qtot    0.105
         4            c3bf         1   UNL        c3         4    -0.21468       12.0110 ; qtot   -0.110
         5            c4bf         1   UNL        c4         5     0.37910       12.0110 ; qtot    0.269
         6            n5bf         1   UNL        n5         6    -0.65839       14.0070 ; qtot   -0.389
         7            c6bf         1   UNL        c6         7     0.47978       12.0110 ; qtot    0.091
         8            n7bf         1   UNL        n7         8    -0.50050       14.0070 ; qtot   -0.410
         9            n8bf         1   UNL        n8         9    -0.17080       14.0070 ; qtot   -0.581
        10            c9bf         1   UNL        c9        10     0.42242       12.0110 ; qtot   -0.158
        11           n10bf         1   UNL       n10        11    -0.67975       14.0070 ; qtot   -0.838
        12           h11bf         1   UNL       h11        12     0.14444        1.0080 ; qtot   -0.694
        13           h12bf         1   UNL       h12        13     0.16164        1.0080 ; qtot   -0.532
        14           h13bf         1   UNL       h13        14     0.33362        1.0080 ; qtot   -0.198
        15           h14bf         1   UNL       h14        15     0.06872        1.0080 ; qtot   -0.130
        16           h15bf         1   UNL       h15        16     0.14206        1.0080 ; qtot    0.013
        17           h16bf         1   UNL       h16        17     0.06807        1.0080 ; qtot    0.081
        18           c17bf         1   UNL       c17        18    -0.14293       12.0110 ; qtot   -0.062
        19           c18bf         1   UNL       c18        19    -0.08218       12.0110 ; qtot   -0.144
        20           c19bf         1   UNL       c19        20    -0.09311       12.0110 ; qtot   -0.238
        21           c20bf         1   UNL       c20        21    -0.08218       12.0110 ; qtot   -0.320
        22           h21bf         1   UNL       h21        22     0.05422        1.0080 ; qtot   -0.266
        23           h22bf         1   UNL       h22        23     0.05422        1.0080 ; qtot   -0.211
        24           h23bf         1   UNL       h23        24     0.05146        1.0080 ; qtot   -0.160
        25           h24bf         1   UNL       h24        25     0.05146        1.0080 ; qtot   -0.108
        26           h25bf         1   UNL       h25        26     0.05422        1.0080 ; qtot   -0.054
        27           h26bf         1   UNL       h26        27     0.05421        1.0080 ; qtot    0.000

[ bonds ]
;       ai        aj funct               r               k
         1         2     1        0.140294   341538.663574    ;  uncertainty r = 0.000062, k = 10.038766
         1         6     1        0.133925   373694.276660    ;  uncertainty r = 0.000166, k = 7.022615
         1        18     1        0.150049   231497.114160    ;  uncertainty r = 0.000034, k = 17.678667
         2         3     1        0.139268   382477.254688    ;  uncertainty r = 0.000021, k = 1.678682
         2        12     1        0.108852   339194.152637    ;  uncertainty r = 0.000033, k = 1.309819
         3         4     1        0.139088   380933.306592    ;  uncertainty r = 0.000047, k = 1.830315
         3        16     1        0.108759   332103.620996    ;  uncertainty r = 0.000019, k = 0.956090
         4         5     1        0.139798   340739.096680    ;  uncertainty r = 0.000061, k = 3.991827
         4        13     1        0.108710   337544.072314    ;  uncertainty r = 0.000025, k = 0.820326
         5         6     1        0.133068   373447.537109    ;  uncertainty r = 0.000088, k = 6.729841
         5         7     1        0.144694   270024.057275    ;  uncertainty r = 0.000117, k = 10.650918
         7         8     1        0.133414   442829.360645    ;  uncertainty r = 0.000100, k = 12.476356
         7        11     1        0.137277   264765.634473    ;  uncertainty r = 0.000116, k = 10.713415
         8         9     1        0.135115   345857.780420    ;  uncertainty r = 0.000091, k = 10.714992
         9        10     1        0.136150   300976.336230    ;  uncertainty r = 0.000062, k = 20.615570
         9        14     1        0.101417   420369.779395    ;  uncertainty r = 0.000021, k = 2.562005
        10        11     1        0.131950   468163.450000    ;  uncertainty r = 0.000125, k = 7.217777
        10        15     1        0.108289   339513.289893    ;  uncertainty r = 0.000035, k = 3.152896
        17        18     1        0.109398   308304.414062    ;  uncertainty r = 0.000042, k = 2.648207
        18        19     1        0.156125   231734.098535    ;  uncertainty r = 0.000056, k = 9.300364
        18        21     1        0.156125   231734.098535    ;  uncertainty r = 0.000056, k = 9.300364
        19        20     1        0.155445   261170.775586    ;  uncertainty r = 0.000013, k = 7.948362
        19        22     1        0.109383   307218.218652    ;  uncertainty r = 0.000027, k = 1.970387
        19        23     1        0.109383   307218.218652    ;  uncertainty r = 0.000027, k = 1.970387
        20        21     1        0.155445   261170.775586    ;  uncertainty r = 0.000013, k = 7.948362
        20        24     1        0.109379   306865.985303    ;  uncertainty r = 0.000011, k = 1.853159
        20        25     1        0.109379   306865.985303    ;  uncertainty r = 0.000011, k = 1.853159
        21        26     1        0.109383   307218.218652    ;  uncertainty r = 0.000027, k = 1.970387
        21        27     1        0.109383   307218.218652    ;  uncertainty r = 0.000027, k = 1.970382

[ angles ]
;       ai        aj        ak funct           theta             cth
         1         2         3     1      117.166565      486.635252    ;  uncertainty theta = 0.003538, k = 0.152983
         1         2        12     1      120.633621      266.855547    ;  uncertainty theta = 0.003422, k = 0.132012
         1         6         5     1      117.668617      421.118745    ;  uncertainty theta = 0.009219, k = 0.098996
         1        18        17     1      107.218887      369.025882    ;  uncertainty theta = 0.005033, k = 0.164310
         1        18        19     1      114.575745      511.838911    ;  uncertainty theta = 0.006174, k = 0.187388
         1        18        21     1      114.575745      511.838911    ;  uncertainty theta = 0.006174, k = 0.187388
         2         1         6     1      122.977417      606.163001    ;  uncertainty theta = 0.003913, k = 0.091074
         2         1        18     1      121.409729      394.963254    ;  uncertainty theta = 0.003928, k = 0.163488
         2         3         4     1      118.798996      534.741803    ;  uncertainty theta = 0.002055, k = 0.064931
         2         3        16     1      120.813881      281.514901    ;  uncertainty theta = 0.001282, k = 0.075413
         3         2        12     1      121.703751      290.882551    ;  uncertainty theta = 0.001231, k = 0.068778
         3         4         5     1      116.512695      472.125545    ;  uncertainty theta = 0.002759, k = 0.201070
         3         4        13     1      122.230148      288.909554    ;  uncertainty theta = 0.002360, k = 0.058385
         4         3        16     1      120.641052      279.615642    ;  uncertainty theta = 0.002072, k = 0.028302
         4         5         6     1      124.776917      597.337887    ;  uncertainty theta = 0.001841, k = 0.168786
         4         5         7     1      118.329468      384.276197    ;  uncertainty theta = 0.002399, k = 0.089069
         5         4        13     1      121.033615      265.884642    ;  uncertainty theta = 0.000987, k = 0.134600
         5         7         8     1      118.797752      361.964521    ;  uncertainty theta = 0.005908, k = 0.152827
         5         7        11     1      118.605087      370.099175    ;  uncertainty theta = 0.006806, k = 0.220996
         6         1        18     1      117.157547      454.658290    ;  uncertainty theta = 0.003847, k = 0.328247
         6         5         7     1      112.239304      442.751230    ;  uncertainty theta = 0.001986, k = 0.184396
         7         8         9     1      104.874954      939.110662    ;  uncertainty theta = 0.002613, k = 0.100584
         7        11        10     1      103.594482      824.174389    ;  uncertainty theta = 0.004756, k = 0.167548
         8         7        11     1      117.003761      909.085469    ;  uncertainty theta = 0.003336, k = 0.131187
         8         9        10     1      106.887367     1012.845171    ;  uncertainty theta = 0.002335, k = 0.094196
         8         9        14     1      109.961075      332.706878    ;  uncertainty theta = 0.002039, k = 0.069478
         9        10        11     1      110.090965      883.878172    ;  uncertainty theta = 0.002054, k = 0.069207
         9        10        15     1      119.909668      267.379792    ;  uncertainty theta = 0.004834, k = 0.175416
        10         9        14     1      117.917213      279.401290    ;  uncertainty theta = 0.007251, k = 0.128166
        11        10        15     1      125.221985      260.329507    ;  uncertainty theta = 0.002008, k = 0.177087
        17        18        19     1      111.788940      410.243288    ;  uncertainty theta = 0.001695, k = 0.211257
        17        18        21     1      111.788940      410.243288    ;  uncertainty theta = 0.001695, k = 0.211257
        18        19        20     1       89.090614      683.932629    ;  uncertainty theta = 0.007174, k = 0.051510
        18        19        22     1      112.696266      389.046465    ;  uncertainty theta = 0.002565, k = 0.084071
        18        19        23     1      112.696266      389.046465    ;  uncertainty theta = 0.002565, k = 0.084071
        18        21        20     1       89.090614      683.932629    ;  uncertainty theta = 0.007174, k = 0.051510
        18        21        26     1      112.696266      389.046465    ;  uncertainty theta = 0.002565, k = 0.084071
        18        21        27     1      112.696266      389.046465    ;  uncertainty theta = 0.002565, k = 0.084071
        19        18        21     1       88.678894      714.162118    ;  uncertainty theta = 0.005590, k = 0.137740
        19        20        21     1       88.729904      691.883672    ;  uncertainty theta = 0.004446, k = 0.118674
        19        20        24     1      113.991676      407.849790    ;  uncertainty theta = 0.001942, k = 0.057671
        19        20        25     1      113.991676      407.849790    ;  uncertainty theta = 0.001942, k = 0.057671
        20        19        22     1      114.221581      413.601513    ;  uncertainty theta = 0.001497, k = 0.076251
        20        19        23     1      114.221581      413.601513    ;  uncertainty theta = 0.001497, k = 0.076251
        20        21        26     1      114.221581      413.601513    ;  uncertainty theta = 0.001497, k = 0.076251
        20        21        27     1      114.221581      413.601513    ;  uncertainty theta = 0.001497, k = 0.076251
        21        20        24     1      113.991676      407.849790    ;  uncertainty theta = 0.001942, k = 0.057671
        21        20        25     1      113.991676      407.849790    ;  uncertainty theta = 0.001942, k = 0.057671
        22        19        23     1      108.120056      276.038723    ;  uncertainty theta = 0.002939, k = 0.143753
        24        20        25     1      107.612061      274.598877    ;  uncertainty theta = 0.003375, k = 0.119247
        26        21        27     1      108.120056      276.038723    ;  uncertainty theta = 0.002939, k = 0.143753

[ dihedrals ] ; propers for gromacs 4.5 or higher, use funct 9
;       ai        aj        ak        al funct           phase               k        pn
         1         2         3         4     9        0.000000       -0.074999         1    ;  uncertainty k = 0.136866
         1         2         3         4     9      180.000000       13.772296         2    ;  uncertainty k = 0.366281
         1         2         3         4     9        0.000000       -1.124886         3    ;  uncertainty k = 0.479058
         1         2         3         4     9      180.000000        0.705394         4    ;  uncertainty k = 0.127706
         1         2         3        16     9        0.000000       -0.069189         1    ;  uncertainty k = 0.167148
         1         2         3        16     9      180.000000        7.515389         2    ;  uncertainty k = 0.332262
         1         2         3        16     9        0.000000        1.247452         3    ;  uncertainty k = 0.292570
         1         2         3        16     9      180.000000        1.596521         4    ;  uncertainty k = 0.096753
         1         6         5         4     9        0.000000       -0.219110         1    ;  uncertainty k = 1.135232
         1         6         5         4     9      180.000000       12.302294         2    ;  uncertainty k = 0.296807
         1         6         5         4     9        0.000000        1.657037         3    ;  uncertainty k = 0.648904
         1         6         5         4     9      180.000000        1.001299         4    ;  uncertainty k = 0.193821
         1         6         5         7     9        0.000000        0.536970         1    ;  uncertainty k = 1.143437
         1         6         5         7     9      180.000000       14.393140         2    ;  uncertainty k = 0.320496
         1         6         5         7     9        0.000000        2.195361         3    ;  uncertainty k = 0.258763
         1         6         5         7     9      180.000000        1.309389         4    ;  uncertainty k = 0.305728
         1        18        19        20     9        0.000000       -2.390708         1    ;  uncertainty k = 1.910180
         1        18        19        20     9      180.000000        4.361189         2    ;  uncertainty k = 1.070173
         1        18        19        20     9        0.000000        1.413860         3    ;  uncertainty k = 0.200995
         1        18        19        20     9      180.000000        0.990930         4    ;  uncertainty k = 0.233103
         1        18        19        22     9        0.000000        0.475666         1    ;  uncertainty k = 0.669272
         1        18        19        22     9      180.000000       -0.662544         2    ;  uncertainty k = 0.646961
         1        18        19        22     9        0.000000        1.931932         3    ;  uncertainty k = 0.201791
         1        18        19        22     9      180.000000        0.146831         4    ;  uncertainty k = 0.151187
         1        18        19        23     9        0.000000        0.475666         1    ;  uncertainty k = 0.669272
         1        18        19        23     9      180.000000       -0.662544         2    ;  uncertainty k = 0.646961
         1        18        19        23     9        0.000000        1.931932         3    ;  uncertainty k = 0.201791
         1        18        19        23     9      180.000000        0.146831         4    ;  uncertainty k = 0.151187
         1        18        21        20     9        0.000000       -2.390708         1    ;  uncertainty k = 1.910180
         1        18        21        20     9      180.000000        4.361189         2    ;  uncertainty k = 1.070173
         1        18        21        20     9        0.000000        1.413860         3    ;  uncertainty k = 0.200995
         1        18        21        20     9      180.000000        0.990930         4    ;  uncertainty k = 0.233103
         1        18        21        26     9        0.000000        0.475666         1    ;  uncertainty k = 0.669272
         1        18        21        26     9      180.000000       -0.662544         2    ;  uncertainty k = 0.646961
         1        18        21        26     9        0.000000        1.931932         3    ;  uncertainty k = 0.201791
         1        18        21        26     9      180.000000        0.146831         4    ;  uncertainty k = 0.151187
         1        18        21        27     9        0.000000        0.475666         1    ;  uncertainty k = 0.669272
         1        18        21        27     9      180.000000       -0.662544         2    ;  uncertainty k = 0.646961
         1        18        21        27     9        0.000000        1.931932         3    ;  uncertainty k = 0.201791
         1        18        21        27     9      180.000000        0.146831         4    ;  uncertainty k = 0.151187
         2         1         6         5     9        0.000000       -0.038389         1    ;  uncertainty k = 0.866106
         2         1         6         5     9      180.000000       12.902658         2    ;  uncertainty k = 0.304972
         2         1         6         5     9        0.000000        1.805180         3    ;  uncertainty k = 0.424668
         2         1         6         5     9      180.000000        1.130526         4    ;  uncertainty k = 0.253897
         2         1        18        17     9        0.000000       -0.473495         1    ;  uncertainty k = 0.450981
         2         1        18        17     9      180.000000        1.841774         2    ;  uncertainty k = 0.289286
         2         1        18        17     9        0.000000        0.598639         3    ;  uncertainty k = 0.165289
         2         1        18        17     9      180.000000        0.207513         4    ;  uncertainty k = 0.085218
         2         1        18        19     9        0.000000       -0.442611         1    ;  uncertainty k = 0.637026
         2         1        18        19     9      180.000000        2.795985         2    ;  uncertainty k = 0.301627
         2         1        18        19     9        0.000000        0.216989         3    ;  uncertainty k = 0.266210
         2         1        18        19     9      180.000000        0.317221         4    ;  uncertainty k = 0.117045
         2         1        18        21     9        0.000000       -0.442611         1    ;  uncertainty k = 0.637026
         2         1        18        21     9      180.000000        2.795985         2    ;  uncertainty k = 0.301627
         2         1        18        21     9        0.000000        0.216989         3    ;  uncertainty k = 0.266210
         2         1        18        21     9      180.000000        0.317221         4    ;  uncertainty k = 0.117045
         2         3         4         5     9        0.000000        0.107236         1    ;  uncertainty k = 0.221556
         2         3         4         5     9      180.000000       14.396340         2    ;  uncertainty k = 0.273294
         2         3         4         5     9        0.000000       -1.214925         3    ;  uncertainty k = 0.420600
         2         3         4         5     9      180.000000        0.589230         4    ;  uncertainty k = 0.301378
         2         3         4        13     9        0.000000        0.250581         1    ;  uncertainty k = 0.272352
         2         3         4        13     9      180.000000        8.228340         2    ;  uncertainty k = 0.315113
         2         3         4        13     9        0.000000        1.497548         3    ;  uncertainty k = 0.351478
         2         3         4        13     9      180.000000        1.930878         4    ;  uncertainty k = 0.213337
         3         2         1         6     9        0.000000       -0.119575         1    ;  uncertainty k = 0.230352
         3         2         1         6     9      180.000000       11.705204         2    ;  uncertainty k = 0.522391
         3         2         1         6     9        0.000000       -0.684695         3    ;  uncertainty k = 0.610083
         3         2         1         6     9      180.000000        1.061570         4    ;  uncertainty k = 0.209582
         3         2         1        18     9        0.000000        0.160678         1    ;  uncertainty k = 0.516322
         3         2         1        18     9      180.000000        6.379304         2    ;  uncertainty k = 0.620009
         3         2         1        18     9        0.000000        0.843426         3    ;  uncertainty k = 0.253270
         3         2         1        18     9      180.000000        1.487738         4    ;  uncertainty k = 0.202579
         3         4         5         6     9        0.000000       -0.150833         1    ;  uncertainty k = 0.164429
         3         4         5         6     9      180.000000       11.583140         2    ;  uncertainty k = 0.499768
         3         4         5         6     9        0.000000       -0.409050         3    ;  uncertainty k = 0.352571
         3         4         5         6     9      180.000000        1.087142         4    ;  uncertainty k = 0.263951
         3         4         5         7     9        0.000000        0.124412         1    ;  uncertainty k = 0.595402
         3         4         5         7     9      180.000000        8.215281         2    ;  uncertainty k = 0.139434
         3         4         5         7     9        0.000000        0.753142         3    ;  uncertainty k = 0.154079
         3         4         5         7     9      180.000000        1.515184         4    ;  uncertainty k = 0.209754
         4         3         2        12     9        0.000000        0.106995         1    ;  uncertainty k = 0.229430
         4         3         2        12     9      180.000000        8.401069         2    ;  uncertainty k = 0.386545
         4         3         2        12     9        0.000000        1.516625         3    ;  uncertainty k = 0.337187
         4         3         2        12     9      180.000000        1.869183         4    ;  uncertainty k = 0.187175
         4         5         7         8     9        0.000000        0.949816         1    ;  uncertainty k = 0.960611
         4         5         7         8     9      180.000000        3.523805         2    ;  uncertainty k = 0.116685
         4         5         7         8     9        0.000000        0.679605         3    ;  uncertainty k = 0.183677
         4         5         7         8     9      180.000000       -0.062596         4    ;  uncertainty k = 0.068081
         4         5         7        11     9        0.000000        1.211625         1    ;  uncertainty k = 0.921614
         4         5         7        11     9      180.000000        3.431175         2    ;  uncertainty k = 0.263580
         4         5         7        11     9        0.000000        0.504436         3    ;  uncertainty k = 0.185503
         4         5         7        11     9      180.000000       -0.044512         4    ;  uncertainty k = 0.061262
         5         4         3        16     9        0.000000       -0.073019         1    ;  uncertainty k = 0.216223
         5         4         3        16     9      180.000000        7.869582         2    ;  uncertainty k = 0.535884
         5         4         3        16     9        0.000000        1.231704         3    ;  uncertainty k = 0.295292
         5         4         3        16     9      180.000000        1.564165         4    ;  uncertainty k = 0.163862
         5         6         1        18     9        0.000000        0.954250         1    ;  uncertainty k = 0.924580
         5         6         1        18     9      180.000000       14.654797         2    ;  uncertainty k = 0.751281
         5         6         1        18     9        0.000000        2.577426         3    ;  uncertainty k = 0.519788
         5         6         1        18     9      180.000000        1.702908         4    ;  uncertainty k = 0.365430
         5         7         8         9     9        0.000000        0.720570         1    ;  uncertainty k = 0.590294
         5         7         8         9     9      180.000000       21.362412         2    ;  uncertainty k = 0.341814
         5         7         8         9     9        0.000000        1.349651         3    ;  uncertainty k = 0.513837
         5         7         8         9     9      180.000000        1.222867         4    ;  uncertainty k = 0.578797
         5         7        11        10     9        0.000000        0.961585         1    ;  uncertainty k = 1.027290
         5         7        11        10     9      180.000000       12.302066         2    ;  uncertainty k = 0.366663
         5         7        11        10     9        0.000000        1.501789         3    ;  uncertainty k = 0.260401
         5         7        11        10     9      180.000000        0.789417         4    ;  uncertainty k = 0.207435
         6         1         2        12     9        0.000000        0.028756         1    ;  uncertainty k = 0.385265
         6         1         2        12     9      180.000000        7.277561         2    ;  uncertainty k = 0.470269
         6         1         2        12     9        0.000000        1.041056         3    ;  uncertainty k = 0.427448
         6         1         2        12     9      180.000000        1.635258         4    ;  uncertainty k = 0.154963
         6         1        18        17     9        0.000000        2.397543         1    ;  uncertainty k = 0.149709
         6         1        18        17     9      180.000000        2.830971         2    ;  uncertainty k = 0.287346
         6         1        18        17     9        0.000000        0.718558         3    ;  uncertainty k = 0.205636
         6         1        18        17     9      180.000000        0.314943         4    ;  uncertainty k = 0.102443
         6         1        18        19     9        0.000000       -0.593019         1    ;  uncertainty k = 0.533017
         6         1        18        19     9      180.000000        3.488093         2    ;  uncertainty k = 0.460520
         6         1        18        19     9        0.000000        0.740906         3    ;  uncertainty k = 0.212423
         6         1        18        19     9      180.000000        0.365896         4    ;  uncertainty k = 0.126575
         6         1        18        21     9        0.000000       -0.593019         1    ;  uncertainty k = 0.533017
         6         1        18        21     9      180.000000        3.488093         2    ;  uncertainty k = 0.460520
         6         1        18        21     9        0.000000        0.740906         3    ;  uncertainty k = 0.212423
         6         1        18        21     9      180.000000        0.365896         4    ;  uncertainty k = 0.126575
         6         5         4        13     9        0.000000       -0.106433         1    ;  uncertainty k = 0.181979
         6         5         4        13     9      180.000000        7.178850         2    ;  uncertainty k = 0.304498
         6         5         4        13     9        0.000000        1.078049         3    ;  uncertainty k = 0.222193
         6         5         4        13     9      180.000000        1.664272         4    ;  uncertainty k = 0.120611
         6         5         7         8     9        0.000000       -1.037930         1    ;  uncertainty k = 0.659817
         6         5         7         8     9      180.000000        3.750123         2    ;  uncertainty k = 0.281794
         6         5         7         8     9        0.000000        0.528281         3    ;  uncertainty k = 0.125747
         6         5         7         8     9      180.000000       -0.037686         4    ;  uncertainty k = 0.059091
         6         5         7        11     9        0.000000       -2.106952         1    ;  uncertainty k = 0.733428
         6         5         7        11     9      180.000000        3.859691         2    ;  uncertainty k = 0.244692
         6         5         7        11     9        0.000000        0.807251         3    ;  uncertainty k = 0.144417
         6         5         7        11     9      180.000000        0.006984         4    ;  uncertainty k = 0.075244
         7         5         4        13     9        0.000000       -0.191115         1    ;  uncertainty k = 0.445036
         7         5         4        13     9      180.000000        6.470941         2    ;  uncertainty k = 0.515139
         7         5         4        13     9        0.000000        0.573384         3    ;  uncertainty k = 0.233997
         7         5         4        13     9      180.000000        0.982488         4    ;  uncertainty k = 0.159873
         7         8         9        10     9        0.000000       -0.489789         1    ;  uncertainty k = 1.443149
         7         8         9        10     9      180.000000       15.544611         2    ;  uncertainty k = 0.445905
         7         8         9        10     9        0.000000       -7.752150         3    ;  uncertainty k = 1.623349
         7         8         9        10     9      180.000000        1.597686         4    ;  uncertainty k = 0.418673
         7         8         9        14     9        0.000000        3.226203         1    ;  uncertainty k = 1.750843
         7         8         9        14     9      180.000000       14.820212         2    ;  uncertainty k = 0.362605
         7         8         9        14     9        0.000000        1.756702         3    ;  uncertainty k = 0.933529
         7         8         9        14     9      180.000000       -0.528516         4    ;  uncertainty k = 0.202626
         7        11        10         9     9        0.000000        0.245693         1    ;  uncertainty k = 0.680477
         7        11        10         9     9      180.000000       24.604267         2    ;  uncertainty k = 0.480149
         7        11        10         9     9        0.000000      -10.202040         3    ;  uncertainty k = 1.505144
         7        11        10         9     9      180.000000        2.093520         4    ;  uncertainty k = 0.694976
         7        11        10        15     9        0.000000        0.223654         1    ;  uncertainty k = 1.099499
         7        11        10        15     9      180.000000       17.116140         2    ;  uncertainty k = 0.407547
         7        11        10        15     9        0.000000        1.008195         3    ;  uncertainty k = 0.888211
         7        11        10        15     9      180.000000        1.020885         4    ;  uncertainty k = 0.478678
         8         7        11        10     9        0.000000       -0.078954         1    ;  uncertainty k = 0.606646
         8         7        11        10     9      180.000000       17.606093         2    ;  uncertainty k = 0.643989
         8         7        11        10     9        0.000000       -7.004831         3    ;  uncertainty k = 0.950523
         8         7        11        10     9      180.000000        2.044498         4    ;  uncertainty k = 0.285360
         8         9        10        11     9        0.000000       -0.282782         1    ;  uncertainty k = 1.621125
         8         9        10        11     9      180.000000       19.311094         2    ;  uncertainty k = 0.894538
         8         9        10        11     9        0.000000      -12.595938         3    ;  uncertainty k = 1.752946
         8         9        10        11     9      180.000000        1.399980         4    ;  uncertainty k = 0.482574
         8         9        10        15     9        0.000000        0.865812         1    ;  uncertainty k = 0.996453
         8         9        10        15     9      180.000000       13.275237         2    ;  uncertainty k = 0.708281
         8         9        10        15     9        0.000000        1.413326         3    ;  uncertainty k = 0.416713
         8         9        10        15     9      180.000000       -0.094138         4    ;  uncertainty k = 0.407803
         9         8         7        11     9        0.000000        0.037329         1    ;  uncertainty k = 0.539864
         9         8         7        11     9      180.000000       26.685717         2    ;  uncertainty k = 0.338860
         9         8         7        11     9        0.000000       -8.703084         3    ;  uncertainty k = 1.047947
         9         8         7        11     9      180.000000        2.039754         4    ;  uncertainty k = 0.620006
        11        10         9        14     9        0.000000        3.072237         1    ;  uncertainty k = 2.130105
        11        10         9        14     9      180.000000       16.532064         2    ;  uncertainty k = 0.657739
        11        10         9        14     9        0.000000        1.206235         3    ;  uncertainty k = 0.578580
        11        10         9        14     9      180.000000       -0.609354         4    ;  uncertainty k = 0.207253
        12         2         1        18     9        0.000000        0.164200         1    ;  uncertainty k = 0.234390
        12         2         1        18     9      180.000000        6.524098         2    ;  uncertainty k = 0.233430
        12         2         1        18     9        0.000000        0.307143         3    ;  uncertainty k = 0.330293
        12         2         1        18     9      180.000000        0.742925         4    ;  uncertainty k = 0.159557
        12         2         3        16     9        0.000000        0.024692         1    ;  uncertainty k = 0.252550
        12         2         3        16     9      180.000000        8.124808         2    ;  uncertainty k = 0.446180
        12         2         3        16     9        0.000000       -0.509986         3    ;  uncertainty k = 0.352179
        12         2         3        16     9      180.000000        0.059787         4    ;  uncertainty k = 0.183321
        13         4         3        16     9        0.000000       -0.121042         1    ;  uncertainty k = 0.207155
        13         4         3        16     9      180.000000        7.937394         2    ;  uncertainty k = 0.529832
        13         4         3        16     9        0.000000       -0.507774         3    ;  uncertainty k = 0.381613
        13         4         3        16     9      180.000000        0.098499         4    ;  uncertainty k = 0.199446
        14         9        10        15     9        0.000000       -0.813300         1    ;  uncertainty k = 1.186431
        14         9        10        15     9      180.000000        1.790139         2    ;  uncertainty k = 1.021086
        14         9        10        15     9        0.000000        1.140254         3    ;  uncertainty k = 0.531911
        14         9        10        15     9      180.000000       -0.141186         4    ;  uncertainty k = 0.381417
        17        18        19        20     9        0.000000       -0.351968         1    ;  uncertainty k = 0.740007
        17        18        19        20     9      180.000000        2.095873         2    ;  uncertainty k = 0.587883
        17        18        19        20     9        0.000000        0.677004         3    ;  uncertainty k = 0.203884
        17        18        19        20     9      180.000000        0.454599         4    ;  uncertainty k = 0.280504
        17        18        19        22     9        0.000000       -0.297324         1    ;  uncertainty k = 0.554982
        17        18        19        22     9      180.000000       -1.690388         2    ;  uncertainty k = 0.432986
        17        18        19        22     9        0.000000        1.499790         3    ;  uncertainty k = 0.116323
        17        18        19        22     9      180.000000        0.275218         4    ;  uncertainty k = 0.113625
        17        18        19        23     9        0.000000       -0.297324         1    ;  uncertainty k = 0.554982
        17        18        19        23     9      180.000000       -1.690388         2    ;  uncertainty k = 0.432986
        17        18        19        23     9        0.000000        1.499790         3    ;  uncertainty k = 0.116323
        17        18        19        23     9      180.000000        0.275218         4    ;  uncertainty k = 0.113625
        17        18        21        20     9        0.000000       -0.351968         1    ;  uncertainty k = 0.740007
        17        18        21        20     9      180.000000        2.095873         2    ;  uncertainty k = 0.587883
        17        18        21        20     9        0.000000        0.677004         3    ;  uncertainty k = 0.203884
        17        18        21        20     9      180.000000        0.454599         4    ;  uncertainty k = 0.280504
        17        18        21        26     9        0.000000       -0.297324         1    ;  uncertainty k = 0.554982
        17        18        21        26     9      180.000000       -1.690388         2    ;  uncertainty k = 0.432986
        17        18        21        26     9        0.000000        1.499790         3    ;  uncertainty k = 0.116323
        17        18        21        26     9      180.000000        0.275218         4    ;  uncertainty k = 0.113625
        17        18        21        27     9        0.000000       -0.297324         1    ;  uncertainty k = 0.554982
        17        18        21        27     9      180.000000       -1.690388         2    ;  uncertainty k = 0.432986
        17        18        21        27     9        0.000000        1.499790         3    ;  uncertainty k = 0.116323
        17        18        21        27     9      180.000000        0.275218         4    ;  uncertainty k = 0.113625
        18        19        20        21     9        0.000000        1.413668         1    ;  uncertainty k = 1.538535
        18        19        20        21     9      180.000000       22.461741         2    ;  uncertainty k = 0.442546
        18        19        20        21     9        0.000000       -1.356884         3    ;  uncertainty k = 0.476721
        18        19        20        21     9      180.000000        0.431366         4    ;  uncertainty k = 0.581823
        18        19        20        24     9        0.000000        0.288666         1    ;  uncertainty k = 0.853567
        18        19        20        24     9      180.000000        0.340712         2    ;  uncertainty k = 0.379085
        18        19        20        24     9        0.000000        0.436553         3    ;  uncertainty k = 0.171374
        18        19        20        24     9      180.000000        0.241774         4    ;  uncertainty k = 0.206591
        18        19        20        25     9        0.000000        0.288666         1    ;  uncertainty k = 0.853567
        18        19        20        25     9      180.000000        0.340712         2    ;  uncertainty k = 0.379085
        18        19        20        25     9        0.000000        0.436553         3    ;  uncertainty k = 0.171374
        18        19        20        25     9      180.000000        0.241774         4    ;  uncertainty k = 0.206591
        18        21        20        19     9        0.000000        1.413668         1    ;  uncertainty k = 1.538535
        18        21        20        19     9      180.000000       22.461741         2    ;  uncertainty k = 0.442546
        18        21        20        19     9        0.000000       -1.356884         3    ;  uncertainty k = 0.476721
        18        21        20        19     9      180.000000        0.431366         4    ;  uncertainty k = 0.581823
        18        21        20        24     9        0.000000        0.288666         1    ;  uncertainty k = 0.853567
        18        21        20        24     9      180.000000        0.340712         2    ;  uncertainty k = 0.379085
        18        21        20        24     9        0.000000        0.436553         3    ;  uncertainty k = 0.171374
        18        21        20        24     9      180.000000        0.241774         4    ;  uncertainty k = 0.206591
        18        21        20        25     9        0.000000        0.288666         1    ;  uncertainty k = 0.853567
        18        21        20        25     9      180.000000        0.340712         2    ;  uncertainty k = 0.379085
        18        21        20        25     9        0.000000        0.436553         3    ;  uncertainty k = 0.171374
        18        21        20        25     9      180.000000        0.241774         4    ;  uncertainty k = 0.206591
        19        18        21        20     9        0.000000        1.155973         1    ;  uncertainty k = 1.862677
        19        18        21        20     9      180.000000       20.354313         2    ;  uncertainty k = 0.399111
        19        18        21        20     9        0.000000       -1.248855         3    ;  uncertainty k = 0.537710
        19        18        21        20     9      180.000000        1.467889         4    ;  uncertainty k = 0.414444
        19        18        21        26     9        0.000000       -0.158585         1    ;  uncertainty k = 0.579479
        19        18        21        26     9      180.000000        0.678637         2    ;  uncertainty k = 0.288511
        19        18        21        26     9        0.000000        0.318272         3    ;  uncertainty k = 0.138036
        19        18        21        26     9      180.000000        0.202396         4    ;  uncertainty k = 0.199196
        19        18        21        27     9        0.000000       -0.158585         1    ;  uncertainty k = 0.579479
        19        18        21        27     9      180.000000        0.678637         2    ;  uncertainty k = 0.288511
        19        18        21        27     9        0.000000        0.318272         3    ;  uncertainty k = 0.138036
        19        18        21        27     9      180.000000        0.202396         4    ;  uncertainty k = 0.199196
        19        20        21        26     9        0.000000       -0.119873         1    ;  uncertainty k = 0.871517
        19        20        21        26     9      180.000000        0.555771         2    ;  uncertainty k = 0.170058
        19        20        21        26     9        0.000000        0.449777         3    ;  uncertainty k = 0.217158
        19        20        21        26     9      180.000000        0.279292         4    ;  uncertainty k = 0.180663
        19        20        21        27     9        0.000000       -0.119873         1    ;  uncertainty k = 0.871517
        19        20        21        27     9      180.000000        0.555771         2    ;  uncertainty k = 0.170058
        19        20        21        27     9        0.000000        0.449777         3    ;  uncertainty k = 0.217158
        19        20        21        27     9      180.000000        0.279292         4    ;  uncertainty k = 0.180663
        20        19        18        21     9        0.000000        1.155973         1    ;  uncertainty k = 1.862677
        20        19        18        21     9      180.000000       20.354313         2    ;  uncertainty k = 0.399111
        20        19        18        21     9        0.000000       -1.248855         3    ;  uncertainty k = 0.537710
        20        19        18        21     9      180.000000        1.467889         4    ;  uncertainty k = 0.414444
        21        18        19        22     9        0.000000       -0.158585         1    ;  uncertainty k = 0.579479
        21        18        19        22     9      180.000000        0.678637         2    ;  uncertainty k = 0.288511
        21        18        19        22     9        0.000000        0.318272         3    ;  uncertainty k = 0.138036
        21        18        19        22     9      180.000000        0.202396         4    ;  uncertainty k = 0.199196
        21        18        19        23     9        0.000000       -0.158585         1    ;  uncertainty k = 0.579479
        21        18        19        23     9      180.000000        0.678637         2    ;  uncertainty k = 0.288511
        21        18        19        23     9        0.000000        0.318272         3    ;  uncertainty k = 0.138036
        21        18        19        23     9      180.000000        0.202396         4    ;  uncertainty k = 0.199196
        21        20        19        22     9        0.000000       -0.119873         1    ;  uncertainty k = 0.871517
        21        20        19        22     9      180.000000        0.555771         2    ;  uncertainty k = 0.170058
        21        20        19        22     9        0.000000        0.449777         3    ;  uncertainty k = 0.217158
        21        20        19        22     9      180.000000        0.279292         4    ;  uncertainty k = 0.180663
        21        20        19        23     9        0.000000       -0.119873         1    ;  uncertainty k = 0.871517
        21        20        19        23     9      180.000000        0.555771         2    ;  uncertainty k = 0.170058
        21        20        19        23     9        0.000000        0.449777         3    ;  uncertainty k = 0.217158
        21        20        19        23     9      180.000000        0.279292         4    ;  uncertainty k = 0.180663
        22        19        20        24     9        0.000000        0.170213         1    ;  uncertainty k = 0.285389
        22        19        20        24     9      180.000000       -1.581667         2    ;  uncertainty k = 0.508888
        22        19        20        24     9        0.000000        1.805360         3    ;  uncertainty k = 0.099154
        22        19        20        24     9      180.000000        0.133749         4    ;  uncertainty k = 0.065846
        22        19        20        25     9        0.000000        0.170213         1    ;  uncertainty k = 0.285389
        22        19        20        25     9      180.000000       -1.581667         2    ;  uncertainty k = 0.508888
        22        19        20        25     9        0.000000        1.805360         3    ;  uncertainty k = 0.099154
        22        19        20        25     9      180.000000        0.133749         4    ;  uncertainty k = 0.065846
        23        19        20        24     9        0.000000        0.170213         1    ;  uncertainty k = 0.285389
        23        19        20        24     9      180.000000       -1.581667         2    ;  uncertainty k = 0.508888
        23        19        20        24     9        0.000000        1.805360         3    ;  uncertainty k = 0.099154
        23        19        20        24     9      180.000000        0.133749         4    ;  uncertainty k = 0.065846
        23        19        20        25     9        0.000000        0.170213         1    ;  uncertainty k = 0.285389
        23        19        20        25     9      180.000000       -1.581667         2    ;  uncertainty k = 0.508888
        23        19        20        25     9        0.000000        1.805360         3    ;  uncertainty k = 0.099154
        23        19        20        25     9      180.000000        0.133749         4    ;  uncertainty k = 0.065846
        24        20        21        26     9        0.000000        0.170213         1    ;  uncertainty k = 0.285389
        24        20        21        26     9      180.000000       -1.581667         2    ;  uncertainty k = 0.508888
        24        20        21        26     9        0.000000        1.805360         3    ;  uncertainty k = 0.099154
        24        20        21        26     9      180.000000        0.133749         4    ;  uncertainty k = 0.065846
        24        20        21        27     9        0.000000        0.170213         1    ;  uncertainty k = 0.285389
        24        20        21        27     9      180.000000       -1.581667         2    ;  uncertainty k = 0.508888
        24        20        21        27     9        0.000000        1.805360         3    ;  uncertainty k = 0.099154
        24        20        21        27     9      180.000000        0.133749         4    ;  uncertainty k = 0.065846
        25        20        21        26     9        0.000000        0.170213         1    ;  uncertainty k = 0.285389
        25        20        21        26     9      180.000000       -1.581667         2    ;  uncertainty k = 0.508888
        25        20        21        26     9        0.000000        1.805360         3    ;  uncertainty k = 0.099154
        25        20        21        26     9      180.000000        0.133749         4    ;  uncertainty k = 0.065846
        25        20        21        27     9        0.000000        0.170213         1    ;  uncertainty k = 0.285389
        25        20        21        27     9      180.000000       -1.581667         2    ;  uncertainty k = 0.508888
        25        20        21        27     9        0.000000        1.805360         3    ;  uncertainty k = 0.099154
        25        20        21        27     9      180.000000        0.133749         4    ;  uncertainty k = 0.065846

[ dihedrals ] ; impropers
;       ai        aj        ak        al funct           phase               k        pn
         1         2         6        18     4      180.000000       26.050421         2    ;  uncertainty k = 0.065267
         1         6        18         2     4      180.000000       26.050421         2    ;  uncertainty k = 0.065267
         1        18         2         6     4      180.000000       26.050421         2    ;  uncertainty k = 0.065267
         2         1         3        12     4      180.000000        3.204336         2    ;  uncertainty k = 0.135556
         2         3        12         1     4      180.000000        3.204336         2    ;  uncertainty k = 0.135556
         2        12         1         3     4      180.000000        3.204336         2    ;  uncertainty k = 0.135556
         3         2         4        16     4      180.000000        6.220573         2    ;  uncertainty k = 0.126938
         3         4        16         2     4      180.000000        6.220573         2    ;  uncertainty k = 0.126938
         3        16         2         4     4      180.000000        6.220573         2    ;  uncertainty k = 0.126938
         4         3         5        13     4      180.000000        3.705956         2    ;  uncertainty k = 0.104016
         4         5        13         3     4      180.000000        3.705956         2    ;  uncertainty k = 0.104016
         4        13         3         5     4      180.000000        3.705956         2    ;  uncertainty k = 0.104016
         5         4         6         7     4      180.000000       20.543463         2    ;  uncertainty k = 0.020520
         5         6         7         4     4      180.000000       20.543463         2    ;  uncertainty k = 0.020520
         5         7         4         6     4      180.000000       20.543463         2    ;  uncertainty k = 0.020520
         7         5         8        11     4      180.000000        8.696534         2    ;  uncertainty k = 0.159060
         7         8        11         5     4      180.000000        8.696534         2    ;  uncertainty k = 0.159060
         7        11         5         8     4      180.000000        8.696534         2    ;  uncertainty k = 0.159060
        10         9        11        15     4      180.000000        3.977389         2    ;  uncertainty k = 0.286534
        10        11        15         9     4      180.000000        3.977389         2    ;  uncertainty k = 0.286534
        10        15         9        11     4      180.000000        3.977389         2    ;  uncertainty k = 0.286534

[ pairs ]
;       ai        aj funct
         1         4     1
         1         7     1
         1        16     1
         1        20     1
         1        22     1
         1        23     1
         1        26     1
         1        27     1
         2         5     1
         2        13     1
         2        17     1
         2        19     1
         2        21     1
         3         6     1
         3         7     1
         3        18     1
         4         8     1
         4        11     1
         4        12     1
         5         9     1
         5        10     1
         5        16     1
         5        18     1
         6         8     1
         6        11     1
         6        12     1
         6        13     1
         6        17     1
         6        19     1
         6        21     1
         7        13     1
         7        14     1
         7        15     1
         8        15     1
        11        14     1
        12        16     1
        12        18     1
        13        16     1
        14        15     1
        17        20     1
        17        22     1
        17        23     1
        17        26     1
        17        27     1
        18        24     1
        18        25     1
        19        26     1
        19        27     1
        21        22     1
        21        23     1
        22        24     1
        22        25     1
        23        24     1
        23        25     1
        24        26     1
        24        27     1
        25        26     1
        25        27     1
