; ITP file created by ByteFF-joint-25, 2025-07-14 11:27:21.506850

[ atomtypes ]
;name           bonded.type        at.num        mass        charge   ptype           sigma         epsilon
 c0bf                                   6      0.0000       0.00000       A     3.31515e-01     4.13371e-01    ;  uncertainty sigma = 0.000013, epsilon = 0.000826
 c1bf                                   6      0.0000       0.00000       A     3.31525e-01     4.13157e-01    ;  uncertainty sigma = 0.000006, epsilon = 0.000541
 c2bf                                   6      0.0000       0.00000       A     3.31520e-01     4.13183e-01    ;  uncertainty sigma = 0.000005, epsilon = 0.000623
 c3bf                                   6      0.0000       0.00000       A     3.31528e-01     4.13375e-01    ;  uncertainty sigma = 0.000007, epsilon = 0.000595
 c4bf                                   6      0.0000       0.00000       A     3.31536e-01     4.13784e-01    ;  uncertainty sigma = 0.000008, epsilon = 0.000834
 n5bf                                   7      0.0000       0.00000       A     3.38412e-01     3.93398e-01    ;  uncertainty sigma = 0.000021, epsilon = 0.000678
 c6bf                                   6      0.0000       0.00000       A     3.31582e-01     4.13277e-01    ;  uncertainty sigma = 0.000022, epsilon = 0.000973
 n7bf                                   7      0.0000       0.00000       A     3.38443e-01     3.93561e-01    ;  uncertainty sigma = 0.000013, epsilon = 0.000313
 n8bf                                   7      0.0000       0.00000       A     3.20588e-01     8.54436e-01    ;  uncertainty sigma = 0.000034, epsilon = 0.001797
 c9bf                                   6      0.0000       0.00000       A     3.31525e-01     4.12738e-01    ;  uncertainty sigma = 0.000011, epsilon = 0.001047
 n10bf                                  7      0.0000       0.00000       A     3.38428e-01     3.93752e-01    ;  uncertainty sigma = 0.000032, epsilon = 0.001184
 h11bf                                  1      0.0000       0.00000       A     2.62563e-01     6.69487e-02    ;  uncertainty sigma = 0.000017, epsilon = 0.000450
 h12bf                                  1      0.0000       0.00000       A     2.62576e-01     6.69457e-02    ;  uncertainty sigma = 0.000016, epsilon = 0.000553
 h13bf                                  1      0.0000       0.00000       A     1.10671e-01     4.15054e-02    ;  uncertainty sigma = 0.000077, epsilon = 0.000867
 h14bf                                  1      0.0000       0.00000       A     2.44737e-01     6.76647e-02    ;  uncertainty sigma = 0.000034, epsilon = 0.000441
 h15bf                                  1      0.0000       0.00000       A     2.62560e-01     6.70745e-02    ;  uncertainty sigma = 0.000011, epsilon = 0.000661
 c16bf                                  6      0.0000       0.00000       A     3.39790e-01     4.51721e-01    ;  uncertainty sigma = 0.000007, epsilon = 0.000847
 h17bf                                  1      0.0000       0.00000       A     2.60030e-01     8.62111e-02    ;  uncertainty sigma = 0.000019, epsilon = 0.000647
 h18bf                                  1      0.0000       0.00000       A     2.60030e-01     8.62111e-02    ;  uncertainty sigma = 0.000019, epsilon = 0.000647
 h19bf                                  1      0.0000       0.00000       A     2.60030e-01     8.62111e-02    ;  uncertainty sigma = 0.000019, epsilon = 0.000647
 c20bf                                  6      0.0000       0.00000       A     3.39798e-01     4.52424e-01    ;  uncertainty sigma = 0.000017, epsilon = 0.000463
 f21bf                                  9      0.0000       0.00000       A     3.03459e-01     3.48351e-01    ;  uncertainty sigma = 0.000031, epsilon = 0.001182
 f22bf                                  9      0.0000       0.00000       A     3.03459e-01     3.48351e-01    ;  uncertainty sigma = 0.000031, epsilon = 0.001182

[ moleculetype ]
;name             nrexcl
 MOL                   3

[ atoms ]
;       nr            type      resi   res      atom      cgnr      charge          mass ; qtot
         1            c0bf         1   UNL        c0         1     0.34511       12.0110 ; qtot    0.345
         2            c1bf         1   UNL        c1         2    -0.19744       12.0110 ; qtot    0.148
         3            c2bf         1   UNL        c2         3    -0.09924       12.0110 ; qtot    0.048
         4            c3bf         1   UNL        c3         4    -0.20225       12.0110 ; qtot   -0.154
         5            c4bf         1   UNL        c4         5     0.38480       12.0110 ; qtot    0.231
         6            n5bf         1   UNL        n5         6    -0.62446       14.0070 ; qtot   -0.393
         7            c6bf         1   UNL        c6         7     0.47603       12.0110 ; qtot    0.083
         8            n7bf         1   UNL        n7         8    -0.50082       14.0070 ; qtot   -0.418
         9            n8bf         1   UNL        n8         9    -0.17080       14.0070 ; qtot   -0.589
        10            c9bf         1   UNL        c9        10     0.42242       12.0110 ; qtot   -0.167
        11           n10bf         1   UNL       n10        11    -0.67991       14.0070 ; qtot   -0.847
        12           h11bf         1   UNL       h11        12     0.15729        1.0080 ; qtot   -0.689
        13           h12bf         1   UNL       h12        13     0.16124        1.0080 ; qtot   -0.528
        14           h13bf         1   UNL       h13        14     0.33362        1.0080 ; qtot   -0.194
        15           h14bf         1   UNL       h14        15     0.06872        1.0080 ; qtot   -0.126
        16           h15bf         1   UNL       h15        16     0.14725        1.0080 ; qtot    0.022
        17           c16bf         1   UNL       c16        17    -0.12997       12.0110 ; qtot   -0.108
        18           h17bf         1   UNL       h17        18     0.06804        1.0080 ; qtot   -0.040
        19           h18bf         1   UNL       h18        19     0.06804        1.0080 ; qtot    0.028
        20           h19bf         1   UNL       h19        20     0.06804        1.0080 ; qtot    0.096
        21           c20bf         1   UNL       c20        21     0.37977       12.0110 ; qtot    0.475
        22           f21bf         1   UNL       f21        22    -0.23773       18.9980 ; qtot    0.238
        23           f22bf         1   UNL       f22        23    -0.23775       18.9980 ; qtot    0.000

[ bonds ]
;       ai        aj funct               r               k
         1         2     1        0.139434   334661.009277    ;  uncertainty r = 0.000085, k = 7.976059
         1         6     1        0.132044   387565.344971    ;  uncertainty r = 0.000162, k = 4.471270
         1        21     1        0.150462   229176.914551    ;  uncertainty r = 0.000133, k = 15.388205
         2         3     1        0.139332   381081.907031    ;  uncertainty r = 0.000059, k = 1.471424
         2        12     1        0.108720   337572.520654    ;  uncertainty r = 0.000019, k = 0.615172
         3         4     1        0.138906   381747.557324    ;  uncertainty r = 0.000050, k = 2.569901
         3        16     1        0.108732   332483.843018    ;  uncertainty r = 0.000013, k = 1.315271
         4         5     1        0.139808   340753.397461    ;  uncertainty r = 0.000047, k = 2.009799
         4        13     1        0.108713   337523.770312    ;  uncertainty r = 0.000025, k = 0.826031
         5         6     1        0.132863   375783.799561    ;  uncertainty r = 0.000105, k = 8.110396
         5         7     1        0.144528   266890.705029    ;  uncertainty r = 0.000150, k = 8.501604
         7         8     1        0.133417   442617.913379    ;  uncertainty r = 0.000104, k = 12.576860
         7        11     1        0.137283   264514.349316    ;  uncertainty r = 0.000119, k = 10.870433
         8         9     1        0.135115   345857.780420    ;  uncertainty r = 0.000091, k = 10.714992
         9        10     1        0.136150   300976.336230    ;  uncertainty r = 0.000062, k = 20.615570
         9        14     1        0.101417   420369.779395    ;  uncertainty r = 0.000021, k = 2.562005
        10        11     1        0.131950   468163.450000    ;  uncertainty r = 0.000125, k = 7.217777
        10        15     1        0.108289   339513.289893    ;  uncertainty r = 0.000035, k = 3.152896
        17        18     1        0.109348   313022.369482    ;  uncertainty r = 0.000046, k = 1.608932
        17        19     1        0.109348   313022.369482    ;  uncertainty r = 0.000046, k = 1.608932
        17        20     1        0.109348   313022.369482    ;  uncertainty r = 0.000046, k = 1.608932
        17        21     1        0.151404   207190.089038    ;  uncertainty r = 0.000076, k = 15.549592
        21        22     1        0.138460   300602.702783    ;  uncertainty r = 0.000094, k = 2.751335
        21        23     1        0.138460   300602.702783    ;  uncertainty r = 0.000094, k = 2.751335

[ angles ]
;       ai        aj        ak funct           theta             cth
         1         2         3     1      116.548119      458.652932    ;  uncertainty theta = 0.002574, k = 0.158067
         1         2        12     1      121.034927      272.012798    ;  uncertainty theta = 0.002419, k = 0.126486
         1         6         5     1      117.760437      378.506726    ;  uncertainty theta = 0.008230, k = 0.228465
         1        21        17     1      114.623558      508.799899    ;  uncertainty theta = 0.004334, k = 0.117249
         1        21        22     1      107.907143      629.724687    ;  uncertainty theta = 0.001901, k = 0.188083
         1        21        23     1      107.907143      629.724687    ;  uncertainty theta = 0.001901, k = 0.188083
         2         1         6     1      125.204712      633.173666    ;  uncertainty theta = 0.002620, k = 0.089382
         2         1        21     1      119.786781      344.988855    ;  uncertainty theta = 0.004662, k = 0.174388
         2         3         4     1      118.896744      535.690603    ;  uncertainty theta = 0.001934, k = 0.043733
         2         3        16     1      120.644211      279.573634    ;  uncertainty theta = 0.001707, k = 0.030490
         3         2        12     1      121.902756      286.545424    ;  uncertainty theta = 0.002352, k = 0.068929
         3         4         5     1      116.467018      471.913715    ;  uncertainty theta = 0.003607, k = 0.210407
         3         4        13     1      122.103355      287.815002    ;  uncertainty theta = 0.002315, k = 0.062325
         4         3        16     1      120.687355      279.997550    ;  uncertainty theta = 0.002549, k = 0.029855
         4         5         6     1      124.934631      600.235455    ;  uncertainty theta = 0.002115, k = 0.178616
         4         5         7     1      118.454613      384.926244    ;  uncertainty theta = 0.002549, k = 0.071241
         5         4        13     1      120.856201      264.635606    ;  uncertainty theta = 0.001279, k = 0.138133
         5         7         8     1      118.534180      362.159018    ;  uncertainty theta = 0.005856, k = 0.179910
         5         7        11     1      118.338402      371.386533    ;  uncertainty theta = 0.006593, k = 0.253934
         6         1        21     1      111.573402      404.804298    ;  uncertainty theta = 0.005226, k = 0.154507
         6         5         7     1      112.073097      439.856854    ;  uncertainty theta = 0.003479, k = 0.168097
         7         8         9     1      104.872757      939.516766    ;  uncertainty theta = 0.002691, k = 0.099571
         7        11        10     1      103.592979      824.420631    ;  uncertainty theta = 0.004784, k = 0.168208
         8         7        11     1      116.994911      908.651083    ;  uncertainty theta = 0.003280, k = 0.128458
         8         9        10     1      106.887367     1012.845171    ;  uncertainty theta = 0.002335, k = 0.094196
         8         9        14     1      109.961075      332.706878    ;  uncertainty theta = 0.002039, k = 0.069478
         9        10        11     1      110.090965      883.878172    ;  uncertainty theta = 0.002054, k = 0.069207
         9        10        15     1      119.909668      267.379792    ;  uncertainty theta = 0.004834, k = 0.175416
        10         9        14     1      117.917213      279.401290    ;  uncertainty theta = 0.007251, k = 0.128166
        11        10        15     1      125.221985      260.329507    ;  uncertainty theta = 0.002008, k = 0.177087
        17        21        22     1      110.893311      696.296548    ;  uncertainty theta = 0.003096, k = 0.039022
        17        21        23     1      110.893311      696.296548    ;  uncertainty theta = 0.003096, k = 0.039022
        18        17        19     1      106.651123      311.543222    ;  uncertainty theta = 0.001562, k = 0.029516
        18        17        20     1      106.651123      311.543222    ;  uncertainty theta = 0.001562, k = 0.029516
        18        17        21     1      106.833374      389.406251    ;  uncertainty theta = 0.002050, k = 0.161483
        19        17        20     1      106.651123      311.543222    ;  uncertainty theta = 0.001562, k = 0.029516
        19        17        21     1      106.833374      389.406251    ;  uncertainty theta = 0.002050, k = 0.161483
        20        17        21     1      106.833374      389.406251    ;  uncertainty theta = 0.002050, k = 0.161483
        22        21        23     1      107.066055      831.928669    ;  uncertainty theta = 0.002665, k = 0.045099

[ dihedrals ] ; propers for gromacs 4.5 or higher, use funct 9
;       ai        aj        ak        al funct           phase               k        pn
         1         2         3         4     9        0.000000        0.002280         1    ;  uncertainty k = 0.332372
         1         2         3         4     9      180.000000       13.536328         2    ;  uncertainty k = 0.320020
         1         2         3         4     9        0.000000       -1.132870         3    ;  uncertainty k = 0.376620
         1         2         3         4     9      180.000000        0.631369         4    ;  uncertainty k = 0.269495
         1         2         3        16     9        0.000000       -0.062471         1    ;  uncertainty k = 0.270217
         1         2         3        16     9      180.000000        7.618305         2    ;  uncertainty k = 0.379735
         1         2         3        16     9        0.000000        1.260152         3    ;  uncertainty k = 0.267396
         1         2         3        16     9      180.000000        1.497038         4    ;  uncertainty k = 0.106867
         1         6         5         4     9        0.000000       -0.155376         1    ;  uncertainty k = 1.198124
         1         6         5         4     9      180.000000       11.850466         2    ;  uncertainty k = 0.231658
         1         6         5         4     9        0.000000        1.839133         3    ;  uncertainty k = 0.571888
         1         6         5         4     9      180.000000        0.994643         4    ;  uncertainty k = 0.231165
         1         6         5         7     9        0.000000        0.529824         1    ;  uncertainty k = 1.396009
         1         6         5         7     9      180.000000       14.653080         2    ;  uncertainty k = 0.355835
         1         6         5         7     9        0.000000        2.298724         3    ;  uncertainty k = 0.172611
         1         6         5         7     9      180.000000        1.324232         4    ;  uncertainty k = 0.348143
         1        21        17        18     9        0.000000        0.385173         1    ;  uncertainty k = 0.519124
         1        21        17        18     9      180.000000        0.002870         2    ;  uncertainty k = 0.277912
         1        21        17        18     9        0.000000        0.475442         3    ;  uncertainty k = 0.067356
         1        21        17        18     9      180.000000       -0.042414         4    ;  uncertainty k = 0.104136
         1        21        17        19     9        0.000000        0.385173         1    ;  uncertainty k = 0.519124
         1        21        17        19     9      180.000000        0.002870         2    ;  uncertainty k = 0.277912
         1        21        17        19     9        0.000000        0.475442         3    ;  uncertainty k = 0.067356
         1        21        17        19     9      180.000000       -0.042414         4    ;  uncertainty k = 0.104136
         1        21        17        20     9        0.000000        0.385173         1    ;  uncertainty k = 0.519124
         1        21        17        20     9      180.000000        0.002870         2    ;  uncertainty k = 0.277912
         1        21        17        20     9        0.000000        0.475442         3    ;  uncertainty k = 0.067356
         1        21        17        20     9      180.000000       -0.042414         4    ;  uncertainty k = 0.104136
         2         1         6         5     9        0.000000        0.007243         1    ;  uncertainty k = 0.725370
         2         1         6         5     9      180.000000       13.412345         2    ;  uncertainty k = 0.203017
         2         1         6         5     9        0.000000        1.708664         3    ;  uncertainty k = 0.416760
         2         1         6         5     9      180.000000        1.271543         4    ;  uncertainty k = 0.237897
         2         1        21        17     9        0.000000       -1.535888         1    ;  uncertainty k = 0.832370
         2         1        21        17     9      180.000000        2.610608         2    ;  uncertainty k = 0.195502
         2         1        21        17     9        0.000000        0.168402         3    ;  uncertainty k = 0.224398
         2         1        21        17     9      180.000000        0.093217         4    ;  uncertainty k = 0.123064
         2         1        21        22     9        0.000000       -0.339210         1    ;  uncertainty k = 0.668310
         2         1        21        22     9      180.000000        3.053790         2    ;  uncertainty k = 0.283241
         2         1        21        22     9        0.000000        0.248717         3    ;  uncertainty k = 0.071117
         2         1        21        22     9      180.000000        0.115409         4    ;  uncertainty k = 0.042850
         2         1        21        23     9        0.000000       -0.339210         1    ;  uncertainty k = 0.668310
         2         1        21        23     9      180.000000        3.053790         2    ;  uncertainty k = 0.283241
         2         1        21        23     9        0.000000        0.248717         3    ;  uncertainty k = 0.071117
         2         1        21        23     9      180.000000        0.115409         4    ;  uncertainty k = 0.042850
         2         3         4         5     9        0.000000        0.076570         1    ;  uncertainty k = 0.190801
         2         3         4         5     9      180.000000       14.474392         2    ;  uncertainty k = 0.286891
         2         3         4         5     9        0.000000       -1.116042         3    ;  uncertainty k = 0.329325
         2         3         4         5     9      180.000000        0.594089         4    ;  uncertainty k = 0.332984
         2         3         4        13     9        0.000000        0.215295         1    ;  uncertainty k = 0.271462
         2         3         4        13     9      180.000000        8.241056         2    ;  uncertainty k = 0.274884
         2         3         4        13     9        0.000000        1.495499         3    ;  uncertainty k = 0.310244
         2         3         4        13     9      180.000000        1.943529         4    ;  uncertainty k = 0.216618
         3         2         1         6     9        0.000000       -0.242363         1    ;  uncertainty k = 0.467093
         3         2         1         6     9      180.000000       12.664362         2    ;  uncertainty k = 0.389939
         3         2         1         6     9        0.000000       -0.665864         3    ;  uncertainty k = 0.602886
         3         2         1         6     9      180.000000        1.014024         4    ;  uncertainty k = 0.169929
         3         2         1        21     9        0.000000        0.378506         1    ;  uncertainty k = 0.410108
         3         2         1        21     9      180.000000        7.898713         2    ;  uncertainty k = 0.546017
         3         2         1        21     9        0.000000        1.219385         3    ;  uncertainty k = 0.111850
         3         2         1        21     9      180.000000        1.683358         4    ;  uncertainty k = 0.147113
         3         4         5         6     9        0.000000       -0.121840         1    ;  uncertainty k = 0.172433
         3         4         5         6     9      180.000000       11.421352         2    ;  uncertainty k = 0.493337
         3         4         5         6     9        0.000000       -0.295599         3    ;  uncertainty k = 0.297212
         3         4         5         6     9      180.000000        1.131702         4    ;  uncertainty k = 0.257030
         3         4         5         7     9        0.000000        0.087179         1    ;  uncertainty k = 0.619588
         3         4         5         7     9      180.000000        8.263818         2    ;  uncertainty k = 0.204920
         3         4         5         7     9        0.000000        0.770012         3    ;  uncertainty k = 0.155562
         3         4         5         7     9      180.000000        1.497616         4    ;  uncertainty k = 0.207197
         4         3         2        12     9        0.000000        0.109000         1    ;  uncertainty k = 0.218922
         4         3         2        12     9      180.000000        8.013558         2    ;  uncertainty k = 0.404280
         4         3         2        12     9        0.000000        1.477533         3    ;  uncertainty k = 0.348453
         4         3         2        12     9      180.000000        1.840011         4    ;  uncertainty k = 0.156632
         4         5         7         8     9        0.000000        0.942749         1    ;  uncertainty k = 0.988398
         4         5         7         8     9      180.000000        3.573836         2    ;  uncertainty k = 0.129898
         4         5         7         8     9        0.000000        0.686491         3    ;  uncertainty k = 0.203646
         4         5         7         8     9      180.000000       -0.050881         4    ;  uncertainty k = 0.058019
         4         5         7        11     9        0.000000        1.200396         1    ;  uncertainty k = 0.968495
         4         5         7        11     9      180.000000        3.479634         2    ;  uncertainty k = 0.274227
         4         5         7        11     9        0.000000        0.522505         3    ;  uncertainty k = 0.189556
         4         5         7        11     9      180.000000       -0.035546         4    ;  uncertainty k = 0.055186
         5         4         3        16     9        0.000000       -0.078493         1    ;  uncertainty k = 0.214630
         5         4         3        16     9      180.000000        7.993260         2    ;  uncertainty k = 0.519573
         5         4         3        16     9        0.000000        1.243633         3    ;  uncertainty k = 0.308268
         5         4         3        16     9      180.000000        1.577675         4    ;  uncertainty k = 0.170812
         5         6         1        21     9        0.000000        1.176345         1    ;  uncertainty k = 1.719985
         5         6         1        21     9      180.000000       14.127651         2    ;  uncertainty k = 0.400406
         5         6         1        21     9        0.000000        2.332754         3    ;  uncertainty k = 0.585254
         5         6         1        21     9      180.000000        1.891805         4    ;  uncertainty k = 0.447241
         5         7         8         9     9        0.000000        0.687176         1    ;  uncertainty k = 0.622580
         5         7         8         9     9      180.000000       21.301082         2    ;  uncertainty k = 0.329622
         5         7         8         9     9        0.000000        1.369826         3    ;  uncertainty k = 0.494543
         5         7         8         9     9      180.000000        1.255644         4    ;  uncertainty k = 0.574324
         5         7        11        10     9        0.000000        0.993981         1    ;  uncertainty k = 1.026667
         5         7        11        10     9      180.000000       12.253948         2    ;  uncertainty k = 0.333781
         5         7        11        10     9        0.000000        1.498317         3    ;  uncertainty k = 0.272991
         5         7        11        10     9      180.000000        0.806530         4    ;  uncertainty k = 0.204349
         6         1         2        12     9        0.000000       -0.051317         1    ;  uncertainty k = 0.270599
         6         1         2        12     9      180.000000        7.741835         2    ;  uncertainty k = 0.593647
         6         1         2        12     9        0.000000        1.005024         3    ;  uncertainty k = 0.273625
         6         1         2        12     9      180.000000        1.648844         4    ;  uncertainty k = 0.217577
         6         1        21        17     9        0.000000        2.877840         1    ;  uncertainty k = 1.287094
         6         1        21        17     9      180.000000        3.331273         2    ;  uncertainty k = 0.378890
         6         1        21        17     9        0.000000        0.387031         3    ;  uncertainty k = 0.321772
         6         1        21        17     9      180.000000        0.207837         4    ;  uncertainty k = 0.090111
         6         1        21        22     9        0.000000        3.076238         1    ;  uncertainty k = 0.314124
         6         1        21        22     9      180.000000        3.676826         2    ;  uncertainty k = 0.244824
         6         1        21        22     9        0.000000        0.766388         3    ;  uncertainty k = 0.142325
         6         1        21        22     9      180.000000        0.198681         4    ;  uncertainty k = 0.132966
         6         1        21        23     9        0.000000        3.076238         1    ;  uncertainty k = 0.314124
         6         1        21        23     9      180.000000        3.676826         2    ;  uncertainty k = 0.244824
         6         1        21        23     9        0.000000        0.766388         3    ;  uncertainty k = 0.142325
         6         1        21        23     9      180.000000        0.198681         4    ;  uncertainty k = 0.132966
         6         5         4        13     9        0.000000       -0.037581         1    ;  uncertainty k = 0.205570
         6         5         4        13     9      180.000000        7.123039         2    ;  uncertainty k = 0.305929
         6         5         4        13     9        0.000000        1.129150         3    ;  uncertainty k = 0.206183
         6         5         4        13     9      180.000000        1.664435         4    ;  uncertainty k = 0.139717
         6         5         7         8     9        0.000000       -0.801588         1    ;  uncertainty k = 0.554868
         6         5         7         8     9      180.000000        3.891886         2    ;  uncertainty k = 0.258286
         6         5         7         8     9        0.000000        0.629233         3    ;  uncertainty k = 0.076803
         6         5         7         8     9      180.000000       -0.047311         4    ;  uncertainty k = 0.057226
         6         5         7        11     9        0.000000       -1.863299         1    ;  uncertainty k = 0.486910
         6         5         7        11     9      180.000000        4.032431         2    ;  uncertainty k = 0.293632
         6         5         7        11     9        0.000000        0.924972         3    ;  uncertainty k = 0.122863
         6         5         7        11     9      180.000000       -0.010047         4    ;  uncertainty k = 0.079869
         7         5         4        13     9        0.000000       -0.167579         1    ;  uncertainty k = 0.412712
         7         5         4        13     9      180.000000        6.459033         2    ;  uncertainty k = 0.488495
         7         5         4        13     9        0.000000        0.586318         3    ;  uncertainty k = 0.252047
         7         5         4        13     9      180.000000        0.998588         4    ;  uncertainty k = 0.166554
         7         8         9        10     9        0.000000       -0.491435         1    ;  uncertainty k = 1.441859
         7         8         9        10     9      180.000000       15.543784         2    ;  uncertainty k = 0.446032
         7         8         9        10     9        0.000000       -7.760275         3    ;  uncertainty k = 1.623778
         7         8         9        10     9      180.000000        1.597604         4    ;  uncertainty k = 0.418084
         7         8         9        14     9        0.000000        3.225543         1    ;  uncertainty k = 1.747876
         7         8         9        14     9      180.000000       14.827510         2    ;  uncertainty k = 0.361989
         7         8         9        14     9        0.000000        1.751892         3    ;  uncertainty k = 0.931541
         7         8         9        14     9      180.000000       -0.526639         4    ;  uncertainty k = 0.200296
         7        11        10         9     9        0.000000        0.244774         1    ;  uncertainty k = 0.677170
         7        11        10         9     9      180.000000       24.602547         2    ;  uncertainty k = 0.479456
         7        11        10         9     9        0.000000      -10.200610         3    ;  uncertainty k = 1.504388
         7        11        10         9     9      180.000000        2.093255         4    ;  uncertainty k = 0.694282
         7        11        10        15     9        0.000000        0.226075         1    ;  uncertainty k = 1.102573
         7        11        10        15     9      180.000000       17.116132         2    ;  uncertainty k = 0.408289
         7        11        10        15     9        0.000000        1.005585         3    ;  uncertainty k = 0.886216
         7        11        10        15     9      180.000000        1.020816         4    ;  uncertainty k = 0.479753
         8         7        11        10     9        0.000000       -0.082418         1    ;  uncertainty k = 0.606451
         8         7        11        10     9      180.000000       17.601800         2    ;  uncertainty k = 0.641103
         8         7        11        10     9        0.000000       -7.003577         3    ;  uncertainty k = 0.952383
         8         7        11        10     9      180.000000        2.043579         4    ;  uncertainty k = 0.283596
         8         9        10        11     9        0.000000       -0.282782         1    ;  uncertainty k = 1.621125
         8         9        10        11     9      180.000000       19.311094         2    ;  uncertainty k = 0.894538
         8         9        10        11     9        0.000000      -12.595938         3    ;  uncertainty k = 1.752946
         8         9        10        11     9      180.000000        1.399980         4    ;  uncertainty k = 0.482574
         8         9        10        15     9        0.000000        0.865812         1    ;  uncertainty k = 0.996453
         8         9        10        15     9      180.000000       13.275237         2    ;  uncertainty k = 0.708281
         8         9        10        15     9        0.000000        1.413326         3    ;  uncertainty k = 0.416713
         8         9        10        15     9      180.000000       -0.094138         4    ;  uncertainty k = 0.407803
         9         8         7        11     9        0.000000        0.036940         1    ;  uncertainty k = 0.538201
         9         8         7        11     9      180.000000       26.687391         2    ;  uncertainty k = 0.338801
         9         8         7        11     9        0.000000       -8.701333         3    ;  uncertainty k = 1.043450
         9         8         7        11     9      180.000000        2.039900         4    ;  uncertainty k = 0.620437
        11        10         9        14     9        0.000000        3.072237         1    ;  uncertainty k = 2.130105
        11        10         9        14     9      180.000000       16.532064         2    ;  uncertainty k = 0.657739
        11        10         9        14     9        0.000000        1.206235         3    ;  uncertainty k = 0.578580
        11        10         9        14     9      180.000000       -0.609354         4    ;  uncertainty k = 0.207253
        12         2         1        21     9        0.000000        0.298012         1    ;  uncertainty k = 0.875121
        12         2         1        21     9      180.000000        6.572009         2    ;  uncertainty k = 0.185621
        12         2         1        21     9        0.000000        0.552751         3    ;  uncertainty k = 0.438535
        12         2         1        21     9      180.000000        0.914035         4    ;  uncertainty k = 0.262712
        12         2         3        16     9        0.000000       -0.131728         1    ;  uncertainty k = 0.311560
        12         2         3        16     9      180.000000        8.059673         2    ;  uncertainty k = 0.573163
        12         2         3        16     9        0.000000       -0.465768         3    ;  uncertainty k = 0.335870
        12         2         3        16     9      180.000000        0.070932         4    ;  uncertainty k = 0.184191
        13         4         3        16     9        0.000000       -0.161434         1    ;  uncertainty k = 0.219063
        13         4         3        16     9      180.000000        8.100212         2    ;  uncertainty k = 0.510039
        13         4         3        16     9        0.000000       -0.520714         3    ;  uncertainty k = 0.386329
        13         4         3        16     9      180.000000        0.098040         4    ;  uncertainty k = 0.226580
        14         9        10        15     9        0.000000       -0.813300         1    ;  uncertainty k = 1.186431
        14         9        10        15     9      180.000000        1.790139         2    ;  uncertainty k = 1.021086
        14         9        10        15     9        0.000000        1.140254         3    ;  uncertainty k = 0.531911
        14         9        10        15     9      180.000000       -0.141186         4    ;  uncertainty k = 0.381417
        18        17        21        22     9        0.000000       -1.106838         1    ;  uncertainty k = 0.353844
        18        17        21        22     9      180.000000       -0.808169         2    ;  uncertainty k = 0.320778
        18        17        21        22     9        0.000000        0.822496         3    ;  uncertainty k = 0.115114
        18        17        21        22     9      180.000000       -0.192039         4    ;  uncertainty k = 0.140796
        18        17        21        23     9        0.000000       -1.106838         1    ;  uncertainty k = 0.353844
        18        17        21        23     9      180.000000       -0.808169         2    ;  uncertainty k = 0.320778
        18        17        21        23     9        0.000000        0.822496         3    ;  uncertainty k = 0.115114
        18        17        21        23     9      180.000000       -0.192039         4    ;  uncertainty k = 0.140796
        19        17        21        22     9        0.000000       -1.106838         1    ;  uncertainty k = 0.353844
        19        17        21        22     9      180.000000       -0.808169         2    ;  uncertainty k = 0.320778
        19        17        21        22     9        0.000000        0.822496         3    ;  uncertainty k = 0.115114
        19        17        21        22     9      180.000000       -0.192039         4    ;  uncertainty k = 0.140796
        19        17        21        23     9        0.000000       -1.106838         1    ;  uncertainty k = 0.353844
        19        17        21        23     9      180.000000       -0.808169         2    ;  uncertainty k = 0.320778
        19        17        21        23     9        0.000000        0.822496         3    ;  uncertainty k = 0.115114
        19        17        21        23     9      180.000000       -0.192039         4    ;  uncertainty k = 0.140796
        20        17        21        22     9        0.000000       -1.106838         1    ;  uncertainty k = 0.353844
        20        17        21        22     9      180.000000       -0.808169         2    ;  uncertainty k = 0.320778
        20        17        21        22     9        0.000000        0.822496         3    ;  uncertainty k = 0.115114
        20        17        21        22     9      180.000000       -0.192039         4    ;  uncertainty k = 0.140796
        20        17        21        23     9        0.000000       -1.106838         1    ;  uncertainty k = 0.353844
        20        17        21        23     9      180.000000       -0.808169         2    ;  uncertainty k = 0.320778
        20        17        21        23     9        0.000000        0.822496         3    ;  uncertainty k = 0.115114
        20        17        21        23     9      180.000000       -0.192039         4    ;  uncertainty k = 0.140796

[ dihedrals ] ; impropers
;       ai        aj        ak        al funct           phase               k        pn
         1         2         6        21     4      180.000000       19.635479         2    ;  uncertainty k = 0.059784
         1         6        21         2     4      180.000000       19.635479         2    ;  uncertainty k = 0.059784
         1        21         2         6     4      180.000000       19.635479         2    ;  uncertainty k = 0.059784
         2         1         3        12     4      180.000000        3.855267         2    ;  uncertainty k = 0.128315
         2         3        12         1     4      180.000000        3.855267         2    ;  uncertainty k = 0.128315
         2        12         1         3     4      180.000000        3.855267         2    ;  uncertainty k = 0.128315
         3         2         4        16     4      180.000000        6.080625         2    ;  uncertainty k = 0.125133
         3         4        16         2     4      180.000000        6.080625         2    ;  uncertainty k = 0.125133
         3        16         2         4     4      180.000000        6.080625         2    ;  uncertainty k = 0.125133
         4         3         5        13     4      180.000000        4.270888         2    ;  uncertainty k = 0.105995
         4         5        13         3     4      180.000000        4.270888         2    ;  uncertainty k = 0.105995
         4        13         3         5     4      180.000000        4.270888         2    ;  uncertainty k = 0.105995
         5         4         6         7     4      180.000000       20.618468         2    ;  uncertainty k = 0.045283
         5         6         7         4     4      180.000000       20.618468         2    ;  uncertainty k = 0.045283
         5         7         4         6     4      180.000000       20.618468         2    ;  uncertainty k = 0.045283
         7         5         8        11     4      180.000000        8.716713         2    ;  uncertainty k = 0.199921
         7         8        11         5     4      180.000000        8.716713         2    ;  uncertainty k = 0.199921
         7        11         5         8     4      180.000000        8.716713         2    ;  uncertainty k = 0.199921
        10         9        11        15     4      180.000000        3.977389         2    ;  uncertainty k = 0.286534
        10        11        15         9     4      180.000000        3.977389         2    ;  uncertainty k = 0.286534
        10        15         9        11     4      180.000000        3.977389         2    ;  uncertainty k = 0.286534

[ pairs ]
;       ai        aj funct
         1         4     1
         1         7     1
         1        16     1
         1        18     1
         1        19     1
         1        20     1
         2         5     1
         2        13     1
         2        17     1
         2        22     1
         2        23     1
         3         6     1
         3         7     1
         3        21     1
         4         8     1
         4        11     1
         4        12     1
         5         9     1
         5        10     1
         5        16     1
         5        21     1
         6         8     1
         6        11     1
         6        12     1
         6        13     1
         6        17     1
         6        22     1
         6        23     1
         7        13     1
         7        14     1
         7        15     1
         8        15     1
        11        14     1
        12        16     1
        12        21     1
        13        16     1
        14        15     1
        18        22     1
        18        23     1
        19        22     1
        19        23     1
        20        22     1
        20        23     1
