; ITP file created by ByteFF-joint-25, 2026-02-17 09:31:05.901102

[ atomtypes ]
;name           bonded.type        at.num        mass        charge   ptype           sigma         epsilon
 n0bf                                   7      0.0000       0.00000       A     2.76943e-01     4.79787e+00    ;  uncertainty sigma = 0.000085, epsilon = 0.015540
 c1bf                                   6      0.0000       0.00000       A     3.39820e-01     4.51271e-01    ;  uncertainty sigma = 0.000027, epsilon = 0.002212
 c2bf                                   6      0.0000       0.00000       A     3.31632e-01     4.11235e-01    ;  uncertainty sigma = 0.000063, epsilon = 0.004547
 o3bf                                   8      0.0000       0.00000       A     3.04820e-01     6.12239e-01    ;  uncertainty sigma = 0.000039, epsilon = 0.003535
 c4bf                                   6      0.0000       0.00000       A     3.39782e-01     4.51132e-01    ;  uncertainty sigma = 0.000025, epsilon = 0.001028
 c5bf                                   6      0.0000       0.00000       A     3.31492e-01     4.12993e-01    ;  uncertainty sigma = 0.000034, epsilon = 0.000807
 c6bf                                   6      0.0000       0.00000       A     3.31515e-01     4.13142e-01    ;  uncertainty sigma = 0.000003, epsilon = 0.000577
 c7bf                                   6      0.0000       0.00000       A     3.31515e-01     4.13142e-01    ;  uncertainty sigma = 0.000003, epsilon = 0.000577
 c8bf                                   6      0.0000       0.00000       A     3.31518e-01     4.13343e-01    ;  uncertainty sigma = 0.000003, epsilon = 0.000526
 c9bf                                   6      0.0000       0.00000       A     3.31518e-01     4.13343e-01    ;  uncertainty sigma = 0.000003, epsilon = 0.000526
 c10bf                                  6      0.0000       0.00000       A     3.31519e-01     4.13331e-01    ;  uncertainty sigma = 0.000003, epsilon = 0.000569
 n11bf                                  7      0.0000       0.00000       A     3.17985e-01     6.80386e-01    ;  uncertainty sigma = 0.000044, epsilon = 0.006992
 c12bf                                  6      0.0000       0.00000       A     3.39813e-01     4.50178e-01    ;  uncertainty sigma = 0.000024, epsilon = 0.000971
 c13bf                                  6      0.0000       0.00000       A     3.31489e-01     4.12862e-01    ;  uncertainty sigma = 0.000016, epsilon = 0.001282
 o14bf                                  8      0.0000       0.00000       A     3.04823e-01     6.12452e-01    ;  uncertainty sigma = 0.000018, epsilon = 0.001232
 c15bf                                  6      0.0000       0.00000       A     3.39755e-01     4.50791e-01    ;  uncertainty sigma = 0.000008, epsilon = 0.000863
 c16bf                                  6      0.0000       0.00000       A     3.39784e-01     4.50380e-01    ;  uncertainty sigma = 0.000008, epsilon = 0.000575
 c17bf                                  6      0.0000       0.00000       A     3.39785e-01     4.50687e-01    ;  uncertainty sigma = 0.000015, epsilon = 0.001114
 n18bf                                  7      0.0000       0.00000       A     3.27008e-01     4.90741e-01    ;  uncertainty sigma = 0.000028, epsilon = 0.002264
 c19bf                                  6      0.0000       0.00000       A     3.39779e-01     4.50717e-01    ;  uncertainty sigma = 0.000011, epsilon = 0.000896
 c20bf                                  6      0.0000       0.00000       A     3.31508e-01     4.13327e-01    ;  uncertainty sigma = 0.000006, epsilon = 0.000401
 c21bf                                  6      0.0000       0.00000       A     3.31522e-01     4.13406e-01    ;  uncertainty sigma = 0.000005, epsilon = 0.000743
 c22bf                                  6      0.0000       0.00000       A     3.31515e-01     4.13281e-01    ;  uncertainty sigma = 0.000004, epsilon = 0.000707
 c23bf                                  6      0.0000       0.00000       A     3.31523e-01     4.13289e-01    ;  uncertainty sigma = 0.000004, epsilon = 0.000540
 c24bf                                  6      0.0000       0.00000       A     3.31519e-01     4.13362e-01    ;  uncertainty sigma = 0.000003, epsilon = 0.000528
 c25bf                                  6      0.0000       0.00000       A     3.31518e-01     4.13409e-01    ;  uncertainty sigma = 0.000004, epsilon = 0.000601
 h26bf                                  1      0.0000       0.00000       A     2.62560e-01     6.72026e-02    ;  uncertainty sigma = 0.000005, epsilon = 0.000664
 c27bf                                  6      0.0000       0.00000       A     3.39774e-01     4.50863e-01    ;  uncertainty sigma = 0.000004, epsilon = 0.000451
 h28bf                                  1      0.0000       0.00000       A     2.62563e-01     6.71302e-02    ;  uncertainty sigma = 0.000007, epsilon = 0.000527
 h29bf                                  1      0.0000       0.00000       A     2.62562e-01     6.70209e-02    ;  uncertainty sigma = 0.000009, epsilon = 0.000413
 h30bf                                  1      0.0000       0.00000       A     2.62564e-01     6.71200e-02    ;  uncertainty sigma = 0.000005, epsilon = 0.000556
 h31bf                                  1      0.0000       0.00000       A     2.62565e-01     6.71218e-02    ;  uncertainty sigma = 0.000005, epsilon = 0.000518
 h32bf                                  1      0.0000       0.00000       A     2.62558e-01     6.70323e-02    ;  uncertainty sigma = 0.000010, epsilon = 0.000442
 h33bf                                  1      0.0000       0.00000       A     2.62558e-01     6.70323e-02    ;  uncertainty sigma = 0.000010, epsilon = 0.000442
 h34bf                                  1      0.0000       0.00000       A     2.62552e-01     6.70646e-02    ;  uncertainty sigma = 0.000011, epsilon = 0.000453
 h35bf                                  1      0.0000       0.00000       A     2.62565e-01     6.71218e-02    ;  uncertainty sigma = 0.000005, epsilon = 0.000518
 h36bf                                  1      0.0000       0.00000       A     1.10688e-01     4.09428e-02    ;  uncertainty sigma = 0.000086, epsilon = 0.000660
 h37bf                                  1      0.0000       0.00000       A     1.10688e-01     4.09428e-02    ;  uncertainty sigma = 0.000086, epsilon = 0.000660
 h38bf                                  1      0.0000       0.00000       A     1.10688e-01     4.09428e-02    ;  uncertainty sigma = 0.000086, epsilon = 0.000660
 h39bf                                  1      0.0000       0.00000       A     1.88870e-01     8.55762e-02    ;  uncertainty sigma = 0.000080, epsilon = 0.001743
 h40bf                                  1      0.0000       0.00000       A     2.59933e-01     8.65549e-02    ;  uncertainty sigma = 0.000040, epsilon = 0.001066
 h41bf                                  1      0.0000       0.00000       A     2.59933e-01     8.65549e-02    ;  uncertainty sigma = 0.000040, epsilon = 0.001066
 h42bf                                  1      0.0000       0.00000       A     2.42267e-01     8.71728e-02    ;  uncertainty sigma = 0.000080, epsilon = 0.000934
 h43bf                                  1      0.0000       0.00000       A     2.60028e-01     8.64829e-02    ;  uncertainty sigma = 0.000014, epsilon = 0.000854
 h44bf                                  1      0.0000       0.00000       A     2.60028e-01     8.64829e-02    ;  uncertainty sigma = 0.000014, epsilon = 0.000854
 h45bf                                  1      0.0000       0.00000       A     2.60022e-01     8.65316e-02    ;  uncertainty sigma = 0.000011, epsilon = 0.000541
 h46bf                                  1      0.0000       0.00000       A     2.60022e-01     8.65316e-02    ;  uncertainty sigma = 0.000011, epsilon = 0.000541
 h47bf                                  1      0.0000       0.00000       A     2.42219e-01     8.66542e-02    ;  uncertainty sigma = 0.000020, epsilon = 0.000808
 h48bf                                  1      0.0000       0.00000       A     2.42219e-01     8.66542e-02    ;  uncertainty sigma = 0.000020, epsilon = 0.000808
 h49bf                                  1      0.0000       0.00000       A     1.10640e-01     4.13028e-02    ;  uncertainty sigma = 0.000081, epsilon = 0.001069
 h50bf                                  1      0.0000       0.00000       A     2.42179e-01     8.66679e-02    ;  uncertainty sigma = 0.000027, epsilon = 0.001271
 h51bf                                  1      0.0000       0.00000       A     2.42179e-01     8.66679e-02    ;  uncertainty sigma = 0.000027, epsilon = 0.001271
 h52bf                                  1      0.0000       0.00000       A     2.60034e-01     8.66895e-02    ;  uncertainty sigma = 0.000006, epsilon = 0.000488
 h53bf                                  1      0.0000       0.00000       A     2.60034e-01     8.66894e-02    ;  uncertainty sigma = 0.000006, epsilon = 0.000488
 h54bf                                  1      0.0000       0.00000       A     2.60034e-01     8.66895e-02    ;  uncertainty sigma = 0.000006, epsilon = 0.000488

[ moleculetype ]
;name             nrexcl
 MOL                   3

[ atoms ]
;       nr            type      resi   res      atom      cgnr      charge          mass ; qtot
         1            n0bf         1   UNL        n0         1    -0.86601       14.0070 ; qtot   -0.866
         2            c1bf         1   UNL        c1         2     0.08765       12.0110 ; qtot   -0.778
         3            c2bf         1   UNL        c2         3     0.64718       12.0110 ; qtot   -0.131
         4            o3bf         1   UNL        o3         4    -0.60936       15.9990 ; qtot   -0.741
         5            c4bf         1   UNL        c4         5    -0.02686       12.0110 ; qtot   -0.767
         6            c5bf         1   UNL        c5         6    -0.13705       12.0110 ; qtot   -0.904
         7            c6bf         1   UNL        c6         7    -0.11189       12.0110 ; qtot   -1.016
         8            c7bf         1   UNL        c7         8    -0.11189       12.0110 ; qtot   -1.128
         9            c8bf         1   UNL        c8         9    -0.11860       12.0110 ; qtot   -1.247
        10            c9bf         1   UNL        c9        10    -0.11860       12.0110 ; qtot   -1.365
        11           c10bf         1   UNL       c10        11    -0.12782       12.0110 ; qtot   -1.493
        12           n11bf         1   UNL       n11        12    -0.40679       14.0070 ; qtot   -1.900
        13           c12bf         1   UNL       c12        13     0.02902       12.0110 ; qtot   -1.871
        14           c13bf         1   UNL       c13        14     0.65870       12.0110 ; qtot   -1.212
        15           o14bf         1   UNL       o14        15    -0.60628       15.9990 ; qtot   -1.819
        16           c15bf         1   UNL       c15        16    -0.07798       12.0110 ; qtot   -1.897
        17           c16bf         1   UNL       c16        17    -0.09437       12.0110 ; qtot   -1.991
        18           c17bf         1   UNL       c17        18     0.09761       12.0110 ; qtot   -1.893
        19           n18bf         1   UNL       n18        19    -0.56589       14.0070 ; qtot   -2.459
        20           c19bf         1   UNL       c19        20     0.14589       12.0110 ; qtot   -2.313
        21           c20bf         1   UNL       c20        21    -0.12299       12.0110 ; qtot   -2.436
        22           c21bf         1   UNL       c21        22    -0.11363       12.0110 ; qtot   -2.550
        23           c22bf         1   UNL       c22        23    -0.07933       12.0110 ; qtot   -2.629
        24           c23bf         1   UNL       c23        24    -0.12573       12.0110 ; qtot   -2.755
        25           c24bf         1   UNL       c24        25    -0.13014       12.0110 ; qtot   -2.885
        26           c25bf         1   UNL       c25        26    -0.11655       12.0110 ; qtot   -3.002
        27           h26bf         1   UNL       h26        27     0.13353        1.0080 ; qtot   -2.868
        28           c27bf         1   UNL       c27        28    -0.04799       12.0110 ; qtot   -2.916
        29           h28bf         1   UNL       h28        29     0.13019        1.0080 ; qtot   -2.786
        30           h29bf         1   UNL       h29        30     0.13037        1.0080 ; qtot   -2.656
        31           h30bf         1   UNL       h30        31     0.13671        1.0080 ; qtot   -2.519
        32           h31bf         1   UNL       h31        32     0.13886        1.0080 ; qtot   -2.380
        33           h32bf         1   UNL       h32        33     0.13082        1.0080 ; qtot   -2.249
        34           h33bf         1   UNL       h33        34     0.13082        1.0080 ; qtot   -2.118
        35           h34bf         1   UNL       h34        35     0.13198        1.0080 ; qtot   -1.986
        36           h35bf         1   UNL       h35        36     0.13886        1.0080 ; qtot   -1.848
        37           h36bf         1   UNL       h36        37     0.48559        1.0080 ; qtot   -1.362
        38           h37bf         1   UNL       h37        38     0.48559        1.0080 ; qtot   -0.876
        39           h38bf         1   UNL       h38        39     0.48559        1.0080 ; qtot   -0.391
        40           h39bf         1   UNL       h39        40     0.12932        1.0080 ; qtot   -0.261
        41           h40bf         1   UNL       h40        41     0.09501        1.0080 ; qtot   -0.166
        42           h41bf         1   UNL       h41        42     0.09501        1.0080 ; qtot   -0.071
        43           h42bf         1   UNL       h42        43     0.09313        1.0080 ; qtot    0.022
        44           h43bf         1   UNL       h43        44     0.06408        1.0080 ; qtot    0.086
        45           h44bf         1   UNL       h44        45     0.06408        1.0080 ; qtot    0.150
        46           h45bf         1   UNL       h45        46     0.05807        1.0080 ; qtot    0.208
        47           h46bf         1   UNL       h46        47     0.05807        1.0080 ; qtot    0.266
        48           h47bf         1   UNL       h47        48     0.06814        1.0080 ; qtot    0.334
        49           h48bf         1   UNL       h48        49     0.06814        1.0080 ; qtot    0.402
        50           h49bf         1   UNL       h49        50     0.33286        1.0080 ; qtot    0.735
        51           h50bf         1   UNL       h50        51     0.06764        1.0080 ; qtot    0.803
        52           h51bf         1   UNL       h51        52     0.06764        1.0080 ; qtot    0.870
        53           h52bf         1   UNL       h52        53     0.04320        1.0080 ; qtot    0.914
        54           h53bf         1   UNL       h53        54     0.04320        1.0080 ; qtot    0.957
        55           h54bf         1   UNL       h54        55     0.04320        1.0080 ; qtot    1.000

[ bonds ]
;       ai        aj funct               r               k
         1         2     1        0.150491   212631.000024    ;  uncertainty r = 0.000166, k = 23.670442
         1        37     1        0.103308   391133.977246    ;  uncertainty r = 0.000037, k = 11.445086
         1        38     1        0.103308   391133.977246    ;  uncertainty r = 0.000037, k = 11.445086
         1        39     1        0.103308   391133.977246    ;  uncertainty r = 0.000037, k = 11.445086
         2         3     1        0.153383   218392.746484    ;  uncertainty r = 0.000351, k = 18.850458
         2         5     1        0.154868   192604.632861    ;  uncertainty r = 0.000068, k = 15.427770
         2        40     1        0.109152   319716.871631    ;  uncertainty r = 0.000039, k = 5.932176
         3         4     1        0.124430   646067.824609    ;  uncertainty r = 0.000114, k = 4.050960
         3        12     1        0.132837   244620.021777    ;  uncertainty r = 0.000270, k = 32.041619
         5         6     1        0.151366   228169.373438    ;  uncertainty r = 0.000138, k = 4.648141
         5        41     1        0.109492   312207.863379    ;  uncertainty r = 0.000031, k = 2.085891
         5        42     1        0.109492   312207.863379    ;  uncertainty r = 0.000031, k = 2.085891
         6         7     1        0.140076   354245.341846    ;  uncertainty r = 0.000040, k = 3.508676
         6         8     1        0.140076   354245.341846    ;  uncertainty r = 0.000040, k = 3.508676
         7         9     1        0.139656   367109.098877    ;  uncertainty r = 0.000030, k = 2.498313
         7        36     1        0.108908   333963.692969    ;  uncertainty r = 0.000020, k = 1.163684
         8        10     1        0.139656   367109.098877    ;  uncertainty r = 0.000030, k = 2.498313
         8        32     1        0.108908   333963.692969    ;  uncertainty r = 0.000020, k = 1.163684
         9        11     1        0.139637   370587.431934    ;  uncertainty r = 0.000019, k = 1.259387
         9        34     1        0.108854   334327.162646    ;  uncertainty r = 0.000010, k = 0.904567
        10        11     1        0.139637   370587.431934    ;  uncertainty r = 0.000019, k = 1.259387
        10        33     1        0.108854   334327.162646    ;  uncertainty r = 0.000010, k = 0.904567
        11        35     1        0.108851   334582.431592    ;  uncertainty r = 0.000012, k = 0.680626
        12        13     1        0.146481   213389.860767    ;  uncertainty r = 0.000362, k = 17.470711
        12        18     1        0.148173   240716.266016    ;  uncertainty r = 0.000096, k = 8.226007
        13        14     1        0.151531   203632.463257    ;  uncertainty r = 0.000267, k = 12.937238
        13        16     1        0.153641   206709.455103    ;  uncertainty r = 0.000104, k = 6.875550
        13        43     1        0.109490   313697.187598    ;  uncertainty r = 0.000069, k = 6.361160
        14        15     1        0.123883   695740.873242    ;  uncertainty r = 0.000078, k = 5.398281
        14        19     1        0.137039   335802.594678    ;  uncertainty r = 0.000052, k = 18.483830
        16        17     1        0.153731   221851.237207    ;  uncertainty r = 0.000050, k = 5.320392
        16        44     1        0.109345   311554.062305    ;  uncertainty r = 0.000017, k = 1.844883
        16        45     1        0.109345   311554.087842    ;  uncertainty r = 0.000017, k = 1.844883
        17        18     1        0.153352   229030.357080    ;  uncertainty r = 0.000092, k = 7.132328
        17        46     1        0.109405   310965.202100    ;  uncertainty r = 0.000009, k = 1.477969
        17        47     1        0.109405   310965.202100    ;  uncertainty r = 0.000009, k = 1.477969
        18        48     1        0.109284   310084.197363    ;  uncertainty r = 0.000029, k = 3.347334
        18        49     1        0.109284   310084.197363    ;  uncertainty r = 0.000029, k = 3.347334
        19        20     1        0.146051   256801.835840    ;  uncertainty r = 0.000059, k = 10.378524
        19        50     1        0.101717   420119.822168    ;  uncertainty r = 0.000070, k = 2.641117
        20        21     1        0.151792   243472.435156    ;  uncertainty r = 0.000033, k = 4.432462
        20        51     1        0.109388   306053.726465    ;  uncertainty r = 0.000015, k = 4.022431
        20        52     1        0.109388   306053.726465    ;  uncertainty r = 0.000015, k = 4.022431
        21        22     1        0.139866   353183.406689    ;  uncertainty r = 0.000031, k = 2.621456
        21        26     1        0.139801   354874.142090    ;  uncertainty r = 0.000034, k = 3.733647
        22        23     1        0.140109   353117.878467    ;  uncertainty r = 0.000014, k = 3.051910
        22        27     1        0.108926   333324.371436    ;  uncertainty r = 0.000004, k = 0.905717
        23        24     1        0.140165   352069.758887    ;  uncertainty r = 0.000018, k = 2.470236
        23        28     1        0.151203   253100.078613    ;  uncertainty r = 0.000014, k = 5.515748
        24        25     1        0.139677   369666.614844    ;  uncertainty r = 0.000023, k = 2.887973
        24        29     1        0.108886   334899.449268    ;  uncertainty r = 0.000010, k = 0.557301
        25        26     1        0.139618   369287.593066    ;  uncertainty r = 0.000021, k = 1.152407
        25        30     1        0.108833   334035.120264    ;  uncertainty r = 0.000008, k = 0.968365
        26        31     1        0.108868   333758.017090    ;  uncertainty r = 0.000013, k = 0.627189
        28        53     1        0.109533   307752.812500    ;  uncertainty r = 0.000008, k = 1.157806
        28        54     1        0.109533   307752.812500    ;  uncertainty r = 0.000008, k = 1.157806
        28        55     1        0.109533   307752.812500    ;  uncertainty r = 0.000008, k = 1.157806

[ angles ]
;       ai        aj        ak funct           theta             cth
         1         2         3     1      101.865005      535.517206    ;  uncertainty theta = 0.014719, k = 0.222860
         1         2         5     1      111.062416      677.955796    ;  uncertainty theta = 0.002374, k = 0.080532
         1         2        40     1      103.864357      442.467608    ;  uncertainty theta = 0.003851, k = 0.159781
         2         1        37     1      111.017685      417.836875    ;  uncertainty theta = 0.002366, k = 0.115964
         2         1        38     1      111.017685      417.836875    ;  uncertainty theta = 0.002366, k = 0.115964
         2         1        39     1      111.017685      417.836875    ;  uncertainty theta = 0.002366, k = 0.115964
         2         3         4     1      125.113281      512.392906    ;  uncertainty theta = 0.004474, k = 0.243224
         2         3        12     1      113.240524      369.047940    ;  uncertainty theta = 0.008265, k = 0.220207
         2         5         6     1      111.457375      517.417237    ;  uncertainty theta = 0.002141, k = 0.103116
         2         5        41     1      106.760666      398.770582    ;  uncertainty theta = 0.001554, k = 0.093624
         2         5        42     1      106.760666      398.770582    ;  uncertainty theta = 0.001554, k = 0.093624
         3         2         5     1      111.995033      473.784532    ;  uncertainty theta = 0.008277, k = 0.120183
         3         2        40     1      113.360085      371.478051    ;  uncertainty theta = 0.004146, k = 0.297211
         3        12        13     1      116.265060      362.289512    ;  uncertainty theta = 0.006584, k = 0.104236
         3        12        18     1      117.197777      359.643070    ;  uncertainty theta = 0.004351, k = 0.182111
         4         3        12     1      125.708939      735.400821    ;  uncertainty theta = 0.002743, k = 0.148433
         5         2        40     1      110.181053      389.124226    ;  uncertainty theta = 0.002500, k = 0.074436
         5         6         7     1      120.180260      422.287929    ;  uncertainty theta = 0.003579, k = 0.182145
         5         6         8     1      120.180260      422.287929    ;  uncertainty theta = 0.003579, k = 0.182145
         6         5        41     1      108.484146      406.950884    ;  uncertainty theta = 0.001817, k = 0.046949
         6         5        42     1      108.484146      406.950884    ;  uncertainty theta = 0.001817, k = 0.046949
         6         7         9     1      120.905472      516.083721    ;  uncertainty theta = 0.003333, k = 0.059091
         6         7        36     1      118.460892      270.448522    ;  uncertainty theta = 0.002568, k = 0.056882
         6         8        10     1      120.905472      516.083721    ;  uncertainty theta = 0.003333, k = 0.059091
         6         8        32     1      118.460892      270.448522    ;  uncertainty theta = 0.002568, k = 0.056882
         7         6         8     1      120.989014      468.786824    ;  uncertainty theta = 0.002500, k = 0.050317
         7         9        11     1      119.340797      517.932320    ;  uncertainty theta = 0.001023, k = 0.024623
         7         9        34     1      120.021866      284.782215    ;  uncertainty theta = 0.001473, k = 0.020215
         8        10        11     1      119.340797      517.932320    ;  uncertainty theta = 0.001023, k = 0.024623
         8        10        33     1      120.021866      284.782215    ;  uncertainty theta = 0.001473, k = 0.020215
         9         7        36     1      120.165367      295.328721    ;  uncertainty theta = 0.002307, k = 0.033634
         9        11        10     1      118.329407      526.152620    ;  uncertainty theta = 0.000907, k = 0.031471
         9        11        35     1      120.672157      289.503898    ;  uncertainty theta = 0.001676, k = 0.008297
        10         8        32     1      120.165367      295.328721    ;  uncertainty theta = 0.002307, k = 0.033634
        10        11        35     1      120.672157      289.503898    ;  uncertainty theta = 0.001676, k = 0.008297
        11         9        34     1      120.568382      288.279617    ;  uncertainty theta = 0.001545, k = 0.013753
        11        10        33     1      120.568382      288.279617    ;  uncertainty theta = 0.001545, k = 0.013753
        12        13        14     1      106.388016      514.320128    ;  uncertainty theta = 0.005816, k = 0.160511
        12        13        16     1      107.774399      782.062228    ;  uncertainty theta = 0.007655, k = 0.082931
        12        13        43     1      106.938553      428.783708    ;  uncertainty theta = 0.004689, k = 0.055791
        12        18        17     1      106.103958      800.433816    ;  uncertainty theta = 0.003443, k = 0.117194
        12        18        48     1      108.499611      449.947428    ;  uncertainty theta = 0.001644, k = 0.070754
        12        18        49     1      108.499611      449.947428    ;  uncertainty theta = 0.001644, k = 0.070754
        13        12        18     1      117.944016      531.909993    ;  uncertainty theta = 0.006275, k = 0.330652
        13        14        15     1      121.629898      453.112944    ;  uncertainty theta = 0.006055, k = 0.100225
        13        14        19     1      113.149803      473.755930    ;  uncertainty theta = 0.004117, k = 0.232125
        13        16        17     1      105.172134      684.716171    ;  uncertainty theta = 0.002502, k = 0.111900
        13        16        44     1      108.015526      385.043172    ;  uncertainty theta = 0.001173, k = 0.038796
        13        16        45     1      108.015526      385.043172    ;  uncertainty theta = 0.001173, k = 0.038796
        14        13        16     1      109.730995      500.477227    ;  uncertainty theta = 0.004856, k = 0.171797
        14        13        43     1      107.696838      381.259020    ;  uncertainty theta = 0.008408, k = 0.077546
        14        19        20     1      116.473892      437.782251    ;  uncertainty theta = 0.002854, k = 0.179818
        14        19        50     1      116.126205      352.403235    ;  uncertainty theta = 0.003423, k = 0.149084
        15        14        19     1      125.217850      793.049697    ;  uncertainty theta = 0.002178, k = 0.051392
        16        13        43     1      110.250183      390.060831    ;  uncertainty theta = 0.004861, k = 0.093807
        16        17        18     1      103.988670      716.362204    ;  uncertainty theta = 0.001186, k = 0.063292
        16        17        46     1      109.736107      403.996911    ;  uncertainty theta = 0.001017, k = 0.053351
        16        17        47     1      109.736107      403.996911    ;  uncertainty theta = 0.001017, k = 0.053351
        17        16        44     1      110.112877      408.066089    ;  uncertainty theta = 0.001193, k = 0.054094
        17        16        45     1      110.112877      408.066089    ;  uncertainty theta = 0.001193, k = 0.054094
        17        18        48     1      110.852745      407.686480    ;  uncertainty theta = 0.001501, k = 0.028761
        17        18        49     1      110.852745      407.686480    ;  uncertainty theta = 0.001501, k = 0.028761
        18        17        46     1      109.154922      401.836120    ;  uncertainty theta = 0.002099, k = 0.034845
        18        17        47     1      109.154922      401.836120    ;  uncertainty theta = 0.002099, k = 0.034845
        19        20        21     1      112.038414      634.283445    ;  uncertainty theta = 0.000409, k = 0.025243
        19        20        51     1      106.587708      463.132493    ;  uncertainty theta = 0.001818, k = 0.065070
        19        20        52     1      106.587708      463.132493    ;  uncertainty theta = 0.001818, k = 0.065070
        20        19        50     1      111.603165      309.395264    ;  uncertainty theta = 0.002463, k = 0.094480
        20        21        22     1      120.346970      418.902921    ;  uncertainty theta = 0.001616, k = 0.054820
        20        21        26     1      120.630081      426.025955    ;  uncertainty theta = 0.001123, k = 0.062629
        21        20        51     1      108.404190      415.802525    ;  uncertainty theta = 0.001402, k = 0.044267
        21        20        52     1      108.404190      415.802525    ;  uncertainty theta = 0.001402, k = 0.044267
        21        22        23     1      122.463028      520.796977    ;  uncertainty theta = 0.001818, k = 0.063271
        21        22        27     1      118.601341      271.660194    ;  uncertainty theta = 0.001895, k = 0.034731
        21        26        25     1      119.996689      518.603276    ;  uncertainty theta = 0.000825, k = 0.047731
        21        26        31     1      119.188889      269.708074    ;  uncertainty theta = 0.001971, k = 0.062265
        22        21        26     1      120.389771      461.951816    ;  uncertainty theta = 0.001078, k = 0.061820
        22        23        24     1      118.975792      459.247947    ;  uncertainty theta = 0.001919, k = 0.061655
        22        23        28     1      120.393944      425.609126    ;  uncertainty theta = 0.001288, k = 0.098752
        23        22        27     1      119.072403      281.158594    ;  uncertainty theta = 0.001432, k = 0.056199
        23        24        25     1      120.176376      527.399118    ;  uncertainty theta = 0.000874, k = 0.067197
        23        24        29     1      119.406006      279.286756    ;  uncertainty theta = 0.001530, k = 0.052628
        23        28        53     1      109.976730      396.586361    ;  uncertainty theta = 0.001245, k = 0.025625
        23        28        54     1      109.976730      396.586361    ;  uncertainty theta = 0.001245, k = 0.025625
        23        28        55     1      109.976730      396.586361    ;  uncertainty theta = 0.001245, k = 0.025625
        24        23        28     1      120.805191      440.242911    ;  uncertainty theta = 0.000366, k = 0.049344
        24        25        26     1      119.830322      508.257842    ;  uncertainty theta = 0.001242, k = 0.059650
        24        25        30     1      120.329369      287.052272    ;  uncertainty theta = 0.001617, k = 0.022968
        25        24        29     1      120.306564      290.836361    ;  uncertainty theta = 0.001658, k = 0.017565
        25        26        31     1      120.576195      292.595708    ;  uncertainty theta = 0.001913, k = 0.025067
        26        25        30     1      120.293663      283.728585    ;  uncertainty theta = 0.001481, k = 0.029079
        37         1        38     1      108.287552      374.737289    ;  uncertainty theta = 0.002472, k = 0.030242
        37         1        39     1      108.287552      374.737289    ;  uncertainty theta = 0.002472, k = 0.030242
        38         1        39     1      108.287552      374.737289    ;  uncertainty theta = 0.002472, k = 0.030242
        41         5        42     1      105.685440      318.955879    ;  uncertainty theta = 0.004475, k = 0.088689
        44        16        45     1      105.902847      307.931923    ;  uncertainty theta = 0.001816, k = 0.037757
        46        17        47     1      105.686661      297.544449    ;  uncertainty theta = 0.002523, k = 0.030707
        48        18        49     1      105.681274      310.005696    ;  uncertainty theta = 0.001472, k = 0.053670
        51        20        52     1      104.949173      317.137285    ;  uncertainty theta = 0.001777, k = 0.067191
        53        28        54     1      106.745865      317.409096    ;  uncertainty theta = 0.001083, k = 0.005022
        53        28        55     1      106.745865      317.409096    ;  uncertainty theta = 0.001083, k = 0.005022
        54        28        55     1      106.745865      317.409096    ;  uncertainty theta = 0.001083, k = 0.005022

[ dihedrals ] ; propers for gromacs 4.5 or higher, use funct 9
;       ai        aj        ak        al funct           phase               k        pn
         1         2         3         4     9        0.000000        7.142609         1    ;  uncertainty k = 1.462940
         1         2         3         4     9      180.000000        6.964579         2    ;  uncertainty k = 0.328289
         1         2         3         4     9        0.000000        0.708402         3    ;  uncertainty k = 0.195694
         1         2         3         4     9      180.000000       -0.095659         4    ;  uncertainty k = 0.215547
         1         2         3        12     9        0.000000        4.061663         1    ;  uncertainty k = 1.356645
         1         2         3        12     9      180.000000        5.480402         2    ;  uncertainty k = 0.203312
         1         2         3        12     9        0.000000        1.003045         3    ;  uncertainty k = 0.661108
         1         2         3        12     9      180.000000       -0.183311         4    ;  uncertainty k = 0.202246
         1         2         5         6     9        0.000000        1.467841         1    ;  uncertainty k = 1.692150
         1         2         5         6     9      180.000000       -2.238317         2    ;  uncertainty k = 0.692800
         1         2         5         6     9        0.000000        2.172527         3    ;  uncertainty k = 0.356834
         1         2         5         6     9      180.000000       -0.102032         4    ;  uncertainty k = 0.179649
         1         2         5        41     9        0.000000       -0.379758         1    ;  uncertainty k = 0.819217
         1         2         5        41     9      180.000000       -2.218014         2    ;  uncertainty k = 0.395436
         1         2         5        41     9        0.000000        0.882784         3    ;  uncertainty k = 0.120495
         1         2         5        41     9      180.000000       -0.128401         4    ;  uncertainty k = 0.149215
         1         2         5        42     9        0.000000       -0.379758         1    ;  uncertainty k = 0.819217
         1         2         5        42     9      180.000000       -2.218014         2    ;  uncertainty k = 0.395436
         1         2         5        42     9        0.000000        0.882784         3    ;  uncertainty k = 0.120495
         1         2         5        42     9      180.000000       -0.128401         4    ;  uncertainty k = 0.149215
         2         3        12        13     9        0.000000        7.452085         1    ;  uncertainty k = 1.719062
         2         3        12        13     9      180.000000       10.138574         2    ;  uncertainty k = 0.828306
         2         3        12        13     9        0.000000        1.743878         3    ;  uncertainty k = 0.428190
         2         3        12        13     9      180.000000       -0.169627         4    ;  uncertainty k = 0.497682
         2         3        12        18     9        0.000000        7.135344         1    ;  uncertainty k = 1.290001
         2         3        12        18     9      180.000000        9.340876         2    ;  uncertainty k = 0.559931
         2         3        12        18     9        0.000000        1.541788         3    ;  uncertainty k = 0.323462
         2         3        12        18     9      180.000000       -0.087215         4    ;  uncertainty k = 0.346939
         2         5         6         7     9        0.000000        0.129583         1    ;  uncertainty k = 0.099374
         2         5         6         7     9      180.000000        1.005598         2    ;  uncertainty k = 0.162944
         2         5         6         7     9        0.000000        0.630014         3    ;  uncertainty k = 0.097908
         2         5         6         7     9      180.000000        0.281281         4    ;  uncertainty k = 0.071854
         2         5         6         8     9        0.000000        0.129583         1    ;  uncertainty k = 0.099374
         2         5         6         8     9      180.000000        1.005598         2    ;  uncertainty k = 0.162944
         2         5         6         8     9        0.000000        0.630014         3    ;  uncertainty k = 0.097908
         2         5         6         8     9      180.000000        0.281281         4    ;  uncertainty k = 0.071854
         3         2         1        37     9        0.000000        6.240377         1    ;  uncertainty k = 1.752857
         3         2         1        37     9      180.000000       -0.958322         2    ;  uncertainty k = 0.667369
         3         2         1        37     9        0.000000        0.519752         3    ;  uncertainty k = 0.190579
         3         2         1        37     9      180.000000        0.137368         4    ;  uncertainty k = 0.135162
         3         2         1        38     9        0.000000        6.240377         1    ;  uncertainty k = 1.752857
         3         2         1        38     9      180.000000       -0.958322         2    ;  uncertainty k = 0.667369
         3         2         1        38     9        0.000000        0.519752         3    ;  uncertainty k = 0.190579
         3         2         1        38     9      180.000000        0.137368         4    ;  uncertainty k = 0.135162
         3         2         1        39     9        0.000000        6.240377         1    ;  uncertainty k = 1.752857
         3         2         1        39     9      180.000000       -0.958322         2    ;  uncertainty k = 0.667369
         3         2         1        39     9        0.000000        0.519752         3    ;  uncertainty k = 0.190579
         3         2         1        39     9      180.000000        0.137368         4    ;  uncertainty k = 0.135162
         3         2         5         6     9        0.000000       -0.968222         1    ;  uncertainty k = 1.172651
         3         2         5         6     9      180.000000        0.162950         2    ;  uncertainty k = 0.497773
         3         2         5         6     9        0.000000        0.819781         3    ;  uncertainty k = 0.498921
         3         2         5         6     9      180.000000        0.115302         4    ;  uncertainty k = 0.170042
         3         2         5        41     9        0.000000        1.152162         1    ;  uncertainty k = 0.293872
         3         2         5        41     9      180.000000       -0.966516         2    ;  uncertainty k = 0.315573
         3         2         5        41     9        0.000000        0.475687         3    ;  uncertainty k = 0.298335
         3         2         5        41     9      180.000000       -0.092853         4    ;  uncertainty k = 0.084494
         3         2         5        42     9        0.000000        1.152162         1    ;  uncertainty k = 0.293872
         3         2         5        42     9      180.000000       -0.966516         2    ;  uncertainty k = 0.315573
         3         2         5        42     9        0.000000        0.475687         3    ;  uncertainty k = 0.298335
         3         2         5        42     9      180.000000       -0.092853         4    ;  uncertainty k = 0.084494
         3        12        13        14     9        0.000000        4.255977         1    ;  uncertainty k = 1.051250
         3        12        13        14     9      180.000000        0.206562         2    ;  uncertainty k = 0.542866
         3        12        13        14     9        0.000000        0.461872         3    ;  uncertainty k = 0.331259
         3        12        13        14     9      180.000000        0.682794         4    ;  uncertainty k = 0.155659
         3        12        13        16     9        0.000000       -0.956198         1    ;  uncertainty k = 1.405152
         3        12        13        16     9      180.000000        0.401429         2    ;  uncertainty k = 0.554961
         3        12        13        16     9        0.000000        0.539586         3    ;  uncertainty k = 0.348518
         3        12        13        16     9      180.000000        0.418551         4    ;  uncertainty k = 0.274493
         3        12        13        43     9        0.000000        1.979444         1    ;  uncertainty k = 0.705293
         3        12        13        43     9      180.000000       -0.346594         2    ;  uncertainty k = 0.151450
         3        12        13        43     9        0.000000       -0.201540         3    ;  uncertainty k = 0.199550
         3        12        13        43     9      180.000000        0.249656         4    ;  uncertainty k = 0.048885
         3        12        18        17     9        0.000000       -1.106788         1    ;  uncertainty k = 0.928594
         3        12        18        17     9      180.000000        0.085254         2    ;  uncertainty k = 0.618368
         3        12        18        17     9        0.000000        0.508959         3    ;  uncertainty k = 0.441646
         3        12        18        17     9      180.000000        0.512604         4    ;  uncertainty k = 0.293084
         3        12        18        48     9        0.000000        1.779997         1    ;  uncertainty k = 0.884420
         3        12        18        48     9      180.000000       -0.014701         2    ;  uncertainty k = 0.198071
         3        12        18        48     9        0.000000        0.075226         3    ;  uncertainty k = 0.083174
         3        12        18        48     9      180.000000        0.277163         4    ;  uncertainty k = 0.108504
         3        12        18        49     9        0.000000        1.779997         1    ;  uncertainty k = 0.884420
         3        12        18        49     9      180.000000       -0.014701         2    ;  uncertainty k = 0.198071
         3        12        18        49     9        0.000000        0.075226         3    ;  uncertainty k = 0.083174
         3        12        18        49     9      180.000000        0.277163         4    ;  uncertainty k = 0.108504
         4         3         2         5     9        0.000000       -2.091580         1    ;  uncertainty k = 1.801561
         4         3         2         5     9      180.000000        3.285621         2    ;  uncertainty k = 0.513993
         4         3         2         5     9        0.000000        1.218524         3    ;  uncertainty k = 0.553743
         4         3         2         5     9      180.000000        0.285244         4    ;  uncertainty k = 0.192247
         4         3         2        40     9        0.000000       -3.581681         1    ;  uncertainty k = 1.440547
         4         3         2        40     9      180.000000        3.132608         2    ;  uncertainty k = 0.659426
         4         3         2        40     9        0.000000        0.973440         3    ;  uncertainty k = 0.307178
         4         3         2        40     9      180.000000        0.100679         4    ;  uncertainty k = 0.135791
         4         3        12        13     9        0.000000        7.134874         1    ;  uncertainty k = 1.458066
         4         3        12        13     9      180.000000       20.889886         2    ;  uncertainty k = 0.435310
         4         3        12        13     9        0.000000        0.071505         3    ;  uncertainty k = 0.502200
         4         3        12        13     9      180.000000       -1.082059         4    ;  uncertainty k = 0.482157
         4         3        12        18     9        0.000000        5.815607         1    ;  uncertainty k = 1.176556
         4         3        12        18     9      180.000000       20.669128         2    ;  uncertainty k = 0.272650
         4         3        12        18     9        0.000000        0.370358         3    ;  uncertainty k = 0.342314
         4         3        12        18     9      180.000000       -0.935014         4    ;  uncertainty k = 0.258661
         5         2         1        37     9        0.000000        0.257469         1    ;  uncertainty k = 1.035385
         5         2         1        37     9      180.000000       -0.098408         2    ;  uncertainty k = 0.619417
         5         2         1        37     9        0.000000        0.809534         3    ;  uncertainty k = 0.139210
         5         2         1        37     9      180.000000       -0.036122         4    ;  uncertainty k = 0.104784
         5         2         1        38     9        0.000000        0.257469         1    ;  uncertainty k = 1.035385
         5         2         1        38     9      180.000000       -0.098408         2    ;  uncertainty k = 0.619417
         5         2         1        38     9        0.000000        0.809534         3    ;  uncertainty k = 0.139210
         5         2         1        38     9      180.000000       -0.036122         4    ;  uncertainty k = 0.104784
         5         2         1        39     9        0.000000        0.257469         1    ;  uncertainty k = 1.035385
         5         2         1        39     9      180.000000       -0.098408         2    ;  uncertainty k = 0.619417
         5         2         1        39     9        0.000000        0.809534         3    ;  uncertainty k = 0.139210
         5         2         1        39     9      180.000000       -0.036122         4    ;  uncertainty k = 0.104784
         5         2         3        12     9        0.000000       -2.964156         1    ;  uncertainty k = 1.093063
         5         2         3        12     9      180.000000        2.430549         2    ;  uncertainty k = 0.919534
         5         2         3        12     9        0.000000        0.334316         3    ;  uncertainty k = 0.264413
         5         2         3        12     9      180.000000        0.056208         4    ;  uncertainty k = 0.064324
         5         6         7         9     9        0.000000        0.189008         1    ;  uncertainty k = 0.267760
         5         6         7         9     9      180.000000        9.709953         2    ;  uncertainty k = 0.562187
         5         6         7         9     9        0.000000        1.364607         3    ;  uncertainty k = 0.379079
         5         6         7         9     9      180.000000        1.730698         4    ;  uncertainty k = 0.238239
         5         6         7        36     9        0.000000       -0.111711         1    ;  uncertainty k = 0.258803
         5         6         7        36     9      180.000000        7.643073         2    ;  uncertainty k = 0.420096
         5         6         7        36     9        0.000000        0.726597         3    ;  uncertainty k = 0.381013
         5         6         7        36     9      180.000000        1.043876         4    ;  uncertainty k = 0.337907
         5         6         8        10     9        0.000000        0.189008         1    ;  uncertainty k = 0.267760
         5         6         8        10     9      180.000000        9.709953         2    ;  uncertainty k = 0.562187
         5         6         8        10     9        0.000000        1.364607         3    ;  uncertainty k = 0.379079
         5         6         8        10     9      180.000000        1.730698         4    ;  uncertainty k = 0.238239
         5         6         8        32     9        0.000000       -0.111711         1    ;  uncertainty k = 0.258803
         5         6         8        32     9      180.000000        7.643073         2    ;  uncertainty k = 0.420096
         5         6         8        32     9        0.000000        0.726597         3    ;  uncertainty k = 0.381013
         5         6         8        32     9      180.000000        1.043876         4    ;  uncertainty k = 0.337907
         6         5         2        40     9        0.000000        0.680630         1    ;  uncertainty k = 0.526185
         6         5         2        40     9      180.000000        0.274264         2    ;  uncertainty k = 0.235246
         6         5         2        40     9        0.000000        1.009865         3    ;  uncertainty k = 0.194003
         6         5         2        40     9      180.000000       -0.009027         4    ;  uncertainty k = 0.108785
         6         7         9        11     9        0.000000       -0.056312         1    ;  uncertainty k = 0.220611
         6         7         9        11     9      180.000000       13.920268         2    ;  uncertainty k = 0.429547
         6         7         9        11     9        0.000000       -0.891985         3    ;  uncertainty k = 0.426334
         6         7         9        11     9      180.000000        0.722502         4    ;  uncertainty k = 0.225054
         6         7         9        34     9        0.000000       -0.011739         1    ;  uncertainty k = 0.099701
         6         7         9        34     9      180.000000        7.580376         2    ;  uncertainty k = 0.413757
         6         7         9        34     9        0.000000        1.455706         3    ;  uncertainty k = 0.268514
         6         7         9        34     9      180.000000        1.751126         4    ;  uncertainty k = 0.085394
         6         8        10        11     9        0.000000       -0.056312         1    ;  uncertainty k = 0.220611
         6         8        10        11     9      180.000000       13.920268         2    ;  uncertainty k = 0.429547
         6         8        10        11     9        0.000000       -0.891985         3    ;  uncertainty k = 0.426334
         6         8        10        11     9      180.000000        0.722502         4    ;  uncertainty k = 0.225054
         6         8        10        33     9        0.000000       -0.011739         1    ;  uncertainty k = 0.099701
         6         8        10        33     9      180.000000        7.580376         2    ;  uncertainty k = 0.413757
         6         8        10        33     9        0.000000        1.455706         3    ;  uncertainty k = 0.268514
         6         8        10        33     9      180.000000        1.751126         4    ;  uncertainty k = 0.085394
         7         6         5        41     9        0.000000       -0.231624         1    ;  uncertainty k = 0.171472
         7         6         5        41     9      180.000000        1.709932         2    ;  uncertainty k = 0.250888
         7         6         5        41     9        0.000000        0.426007         3    ;  uncertainty k = 0.097455
         7         6         5        41     9      180.000000        0.170665         4    ;  uncertainty k = 0.039251
         7         6         5        42     9        0.000000       -0.231624         1    ;  uncertainty k = 0.171472
         7         6         5        42     9      180.000000        1.709932         2    ;  uncertainty k = 0.250888
         7         6         5        42     9        0.000000        0.426007         3    ;  uncertainty k = 0.097455
         7         6         5        42     9      180.000000        0.170665         4    ;  uncertainty k = 0.039251
         7         6         8        10     9        0.000000       -0.184770         1    ;  uncertainty k = 0.196506
         7         6         8        10     9      180.000000       12.729212         2    ;  uncertainty k = 0.349385
         7         6         8        10     9        0.000000       -0.707095         3    ;  uncertainty k = 0.377914
         7         6         8        10     9      180.000000        0.674302         4    ;  uncertainty k = 0.412311
         7         6         8        32     9        0.000000        0.079141         1    ;  uncertainty k = 0.325245
         7         6         8        32     9      180.000000        7.608414         2    ;  uncertainty k = 0.593107
         7         6         8        32     9        0.000000        1.393170         3    ;  uncertainty k = 0.260644
         7         6         8        32     9      180.000000        1.619583         4    ;  uncertainty k = 0.125831
         7         9        11        10     9        0.000000        0.015551         1    ;  uncertainty k = 0.044340
         7         9        11        10     9      180.000000       15.072880         2    ;  uncertainty k = 0.287882
         7         9        11        10     9        0.000000       -1.226362         3    ;  uncertainty k = 0.468047
         7         9        11        10     9      180.000000        0.510388         4    ;  uncertainty k = 0.285677
         7         9        11        35     9        0.000000        0.025126         1    ;  uncertainty k = 0.103621
         7         9        11        35     9      180.000000        7.435124         2    ;  uncertainty k = 0.310467
         7         9        11        35     9        0.000000        1.490641         3    ;  uncertainty k = 0.292416
         7         9        11        35     9      180.000000        1.803583         4    ;  uncertainty k = 0.204543
         8         6         5        41     9        0.000000       -0.231624         1    ;  uncertainty k = 0.171472
         8         6         5        41     9      180.000000        1.709932         2    ;  uncertainty k = 0.250888
         8         6         5        41     9        0.000000        0.426007         3    ;  uncertainty k = 0.097455
         8         6         5        41     9      180.000000        0.170665         4    ;  uncertainty k = 0.039251
         8         6         5        42     9        0.000000       -0.231624         1    ;  uncertainty k = 0.171472
         8         6         5        42     9      180.000000        1.709932         2    ;  uncertainty k = 0.250888
         8         6         5        42     9        0.000000        0.426007         3    ;  uncertainty k = 0.097455
         8         6         5        42     9      180.000000        0.170665         4    ;  uncertainty k = 0.039251
         8         6         7         9     9        0.000000       -0.184770         1    ;  uncertainty k = 0.196506
         8         6         7         9     9      180.000000       12.729212         2    ;  uncertainty k = 0.349385
         8         6         7         9     9        0.000000       -0.707095         3    ;  uncertainty k = 0.377914
         8         6         7         9     9      180.000000        0.674302         4    ;  uncertainty k = 0.412311
         8         6         7        36     9        0.000000        0.079141         1    ;  uncertainty k = 0.325245
         8         6         7        36     9      180.000000        7.608414         2    ;  uncertainty k = 0.593107
         8         6         7        36     9        0.000000        1.393170         3    ;  uncertainty k = 0.260644
         8         6         7        36     9      180.000000        1.619583         4    ;  uncertainty k = 0.125831
         8        10        11         9     9        0.000000        0.015551         1    ;  uncertainty k = 0.044340
         8        10        11         9     9      180.000000       15.072880         2    ;  uncertainty k = 0.287882
         8        10        11         9     9        0.000000       -1.226362         3    ;  uncertainty k = 0.468047
         8        10        11         9     9      180.000000        0.510388         4    ;  uncertainty k = 0.285677
         8        10        11        35     9        0.000000        0.025126         1    ;  uncertainty k = 0.103621
         8        10        11        35     9      180.000000        7.435124         2    ;  uncertainty k = 0.310467
         8        10        11        35     9        0.000000        1.490641         3    ;  uncertainty k = 0.292416
         8        10        11        35     9      180.000000        1.803583         4    ;  uncertainty k = 0.204543
         9        11        10        33     9        0.000000        0.061790         1    ;  uncertainty k = 0.040367
         9        11        10        33     9      180.000000        7.533638         2    ;  uncertainty k = 0.335058
         9        11        10        33     9        0.000000        1.445862         3    ;  uncertainty k = 0.325060
         9        11        10        33     9      180.000000        1.795809         4    ;  uncertainty k = 0.164033
        10        11         9        34     9        0.000000        0.061790         1    ;  uncertainty k = 0.040367
        10        11         9        34     9      180.000000        7.533638         2    ;  uncertainty k = 0.335058
        10        11         9        34     9        0.000000        1.445862         3    ;  uncertainty k = 0.325060
        10        11         9        34     9      180.000000        1.795809         4    ;  uncertainty k = 0.164033
        11         9         7        36     9        0.000000        0.038027         1    ;  uncertainty k = 0.047983
        11         9         7        36     9      180.000000        8.018719         2    ;  uncertainty k = 0.347750
        11         9         7        36     9        0.000000        1.426490         3    ;  uncertainty k = 0.299400
        11         9         7        36     9      180.000000        1.826770         4    ;  uncertainty k = 0.127277
        11        10         8        32     9        0.000000        0.038027         1    ;  uncertainty k = 0.047983
        11        10         8        32     9      180.000000        8.018719         2    ;  uncertainty k = 0.347750
        11        10         8        32     9        0.000000        1.426490         3    ;  uncertainty k = 0.299400
        11        10         8        32     9      180.000000        1.826770         4    ;  uncertainty k = 0.127277
        12         3         2        40     9        0.000000       -0.080882         1    ;  uncertainty k = 1.675321
        12         3         2        40     9      180.000000        2.186426         2    ;  uncertainty k = 0.295262
        12         3         2        40     9        0.000000        0.171990         3    ;  uncertainty k = 0.439721
        12         3         2        40     9      180.000000        0.088403         4    ;  uncertainty k = 0.160418
        12        13        14        15     9        0.000000        1.295431         1    ;  uncertainty k = 2.898334
        12        13        14        15     9      180.000000        5.906167         2    ;  uncertainty k = 0.379987
        12        13        14        15     9        0.000000        1.441054         3    ;  uncertainty k = 0.285282
        12        13        14        15     9      180.000000        0.475504         4    ;  uncertainty k = 0.148894
        12        13        14        19     9        0.000000        2.460756         1    ;  uncertainty k = 0.518160
        12        13        14        19     9      180.000000        3.385633         2    ;  uncertainty k = 0.065994
        12        13        14        19     9        0.000000        0.620029         3    ;  uncertainty k = 0.200787
        12        13        14        19     9      180.000000        0.259083         4    ;  uncertainty k = 0.072883
        12        13        16        17     9        0.000000       -0.894306         1    ;  uncertainty k = 0.893811
        12        13        16        17     9      180.000000        1.428397         2    ;  uncertainty k = 1.394731
        12        13        16        17     9        0.000000        1.172412         3    ;  uncertainty k = 0.530620
        12        13        16        17     9      180.000000       -1.534881         4    ;  uncertainty k = 0.660249
        12        13        16        44     9        0.000000       -1.252037         1    ;  uncertainty k = 0.554485
        12        13        16        44     9      180.000000        0.181213         2    ;  uncertainty k = 0.452579
        12        13        16        44     9        0.000000        1.256105         3    ;  uncertainty k = 0.274911
        12        13        16        44     9      180.000000        0.061636         4    ;  uncertainty k = 0.024683
        12        13        16        45     9        0.000000       -1.252037         1    ;  uncertainty k = 0.554485
        12        13        16        45     9      180.000000        0.181213         2    ;  uncertainty k = 0.452579
        12        13        16        45     9        0.000000        1.256105         3    ;  uncertainty k = 0.274911
        12        13        16        45     9      180.000000        0.061636         4    ;  uncertainty k = 0.024683
        12        18        17        16     9        0.000000       -1.929645         1    ;  uncertainty k = 1.032871
        12        18        17        16     9      180.000000        3.460818         2    ;  uncertainty k = 1.547367
        12        18        17        16     9        0.000000        0.845089         3    ;  uncertainty k = 0.413125
        12        18        17        16     9      180.000000       -2.134713         4    ;  uncertainty k = 0.756186
        12        18        17        46     9        0.000000       -1.263334         1    ;  uncertainty k = 0.539081
        12        18        17        46     9      180.000000       -0.145701         2    ;  uncertainty k = 0.162362
        12        18        17        46     9        0.000000        1.199217         3    ;  uncertainty k = 0.151655
        12        18        17        46     9      180.000000        0.116179         4    ;  uncertainty k = 0.133669
        12        18        17        47     9        0.000000       -1.263334         1    ;  uncertainty k = 0.539081
        12        18        17        47     9      180.000000       -0.145701         2    ;  uncertainty k = 0.162362
        12        18        17        47     9        0.000000        1.199217         3    ;  uncertainty k = 0.151655
        12        18        17        47     9      180.000000        0.116179         4    ;  uncertainty k = 0.133669
        13        12        18        17     9        0.000000       -1.218194         1    ;  uncertainty k = 0.946659
        13        12        18        17     9      180.000000        1.494270         2    ;  uncertainty k = 0.879336
        13        12        18        17     9        0.000000        0.792452         3    ;  uncertainty k = 0.312463
        13        12        18        17     9      180.000000        0.217092         4    ;  uncertainty k = 0.218741
        13        12        18        48     9        0.000000       -2.197860         1    ;  uncertainty k = 0.585119
        13        12        18        48     9      180.000000        1.437841         2    ;  uncertainty k = 0.301971
        13        12        18        48     9        0.000000        1.315676         3    ;  uncertainty k = 0.201794
        13        12        18        48     9      180.000000        0.356520         4    ;  uncertainty k = 0.049916
        13        12        18        49     9        0.000000       -2.197860         1    ;  uncertainty k = 0.585119
        13        12        18        49     9      180.000000        1.437841         2    ;  uncertainty k = 0.301971
        13        12        18        49     9        0.000000        1.315676         3    ;  uncertainty k = 0.201794
        13        12        18        49     9      180.000000        0.356520         4    ;  uncertainty k = 0.049916
        13        14        19        20     9        0.000000       10.229849         1    ;  uncertainty k = 0.470762
        13        14        19        20     9      180.000000        7.745939         2    ;  uncertainty k = 0.361895
        13        14        19        20     9        0.000000        2.042631         3    ;  uncertainty k = 0.287924
        13        14        19        20     9      180.000000        0.375826         4    ;  uncertainty k = 0.316220
        13        14        19        50     9        0.000000        1.932580         1    ;  uncertainty k = 1.225645
        13        14        19        50     9      180.000000        6.887268         2    ;  uncertainty k = 0.372710
        13        14        19        50     9        0.000000        1.521972         3    ;  uncertainty k = 0.518875
        13        14        19        50     9      180.000000        0.112487         4    ;  uncertainty k = 0.381797
        13        16        17        18     9        0.000000       -1.407672         1    ;  uncertainty k = 1.682004
        13        16        17        18     9      180.000000       10.748334         2    ;  uncertainty k = 0.371862
        13        16        17        18     9        0.000000        0.020580         3    ;  uncertainty k = 0.443934
        13        16        17        18     9      180.000000       -3.045669         4    ;  uncertainty k = 0.308082
        13        16        17        46     9        0.000000       -0.775772         1    ;  uncertainty k = 0.218802
        13        16        17        46     9      180.000000       -0.731454         2    ;  uncertainty k = 0.331875
        13        16        17        46     9        0.000000        0.426465         3    ;  uncertainty k = 0.201415
        13        16        17        46     9      180.000000        0.199405         4    ;  uncertainty k = 0.072296
        13        16        17        47     9        0.000000       -0.775772         1    ;  uncertainty k = 0.218802
        13        16        17        47     9      180.000000       -0.731454         2    ;  uncertainty k = 0.331875
        13        16        17        47     9        0.000000        0.426465         3    ;  uncertainty k = 0.201415
        13        16        17        47     9      180.000000        0.199405         4    ;  uncertainty k = 0.072296
        14        13        12        18     9        0.000000       -1.322937         1    ;  uncertainty k = 2.151621
        14        13        12        18     9      180.000000       -0.215454         2    ;  uncertainty k = 0.980253
        14        13        12        18     9        0.000000        1.078947         3    ;  uncertainty k = 0.478882
        14        13        12        18     9      180.000000        0.146908         4    ;  uncertainty k = 0.161972
        14        13        16        17     9        0.000000       -2.763845         1    ;  uncertainty k = 1.520971
        14        13        16        17     9      180.000000        0.938281         2    ;  uncertainty k = 0.912310
        14        13        16        17     9        0.000000        0.737174         3    ;  uncertainty k = 0.178577
        14        13        16        17     9      180.000000       -0.167811         4    ;  uncertainty k = 0.188166
        14        13        16        44     9        0.000000        1.047959         1    ;  uncertainty k = 0.750710
        14        13        16        44     9      180.000000       -0.005194         2    ;  uncertainty k = 0.252021
        14        13        16        44     9        0.000000        0.540013         3    ;  uncertainty k = 0.118777
        14        13        16        44     9      180.000000        0.056230         4    ;  uncertainty k = 0.061945
        14        13        16        45     9        0.000000        1.047959         1    ;  uncertainty k = 0.750710
        14        13        16        45     9      180.000000       -0.005194         2    ;  uncertainty k = 0.252021
        14        13        16        45     9        0.000000        0.540013         3    ;  uncertainty k = 0.118777
        14        13        16        45     9      180.000000        0.056230         4    ;  uncertainty k = 0.061945
        14        19        20        21     9        0.000000       -0.358705         1    ;  uncertainty k = 0.090232
        14        19        20        21     9      180.000000        0.047103         2    ;  uncertainty k = 0.301039
        14        19        20        21     9        0.000000       -0.010785         3    ;  uncertainty k = 0.103121
        14        19        20        21     9      180.000000        0.356238         4    ;  uncertainty k = 0.118373
        14        19        20        51     9        0.000000        0.874479         1    ;  uncertainty k = 0.468057
        14        19        20        51     9      180.000000       -0.325846         2    ;  uncertainty k = 0.204108
        14        19        20        51     9        0.000000        0.291812         3    ;  uncertainty k = 0.122551
        14        19        20        51     9      180.000000        0.270162         4    ;  uncertainty k = 0.052902
        14        19        20        52     9        0.000000        0.874479         1    ;  uncertainty k = 0.468057
        14        19        20        52     9      180.000000       -0.325846         2    ;  uncertainty k = 0.204108
        14        19        20        52     9        0.000000        0.291812         3    ;  uncertainty k = 0.122551
        14        19        20        52     9      180.000000        0.270162         4    ;  uncertainty k = 0.052902
        15        14        13        16     9        0.000000       -3.595466         1    ;  uncertainty k = 0.840319
        15        14        13        16     9      180.000000        3.414170         2    ;  uncertainty k = 0.442288
        15        14        13        16     9        0.000000        1.003457         3    ;  uncertainty k = 0.136195
        15        14        13        16     9      180.000000        0.496992         4    ;  uncertainty k = 0.066238
        15        14        13        43     9        0.000000       -0.462056         1    ;  uncertainty k = 0.773476
        15        14        13        43     9      180.000000        3.631112         2    ;  uncertainty k = 0.282045
        15        14        13        43     9        0.000000        0.546920         3    ;  uncertainty k = 0.250507
        15        14        13        43     9      180.000000        0.124321         4    ;  uncertainty k = 0.116115
        15        14        19        20     9        0.000000        5.443761         1    ;  uncertainty k = 0.917217
        15        14        19        20     9      180.000000       17.023261         2    ;  uncertainty k = 0.223141
        15        14        19        20     9        0.000000        0.284024         3    ;  uncertainty k = 0.249848
        15        14        19        20     9      180.000000       -0.439780         4    ;  uncertainty k = 0.275999
        15        14        19        50     9        0.000000        3.051307         1    ;  uncertainty k = 0.750937
        15        14        19        50     9      180.000000       16.927947         2    ;  uncertainty k = 0.155434
        15        14        19        50     9        0.000000        1.588139         3    ;  uncertainty k = 0.227813
        15        14        19        50     9      180.000000       -0.110398         4    ;  uncertainty k = 0.145007
        16        13        12        18     9        0.000000       -0.886418         1    ;  uncertainty k = 1.451647
        16        13        12        18     9      180.000000        3.315347         2    ;  uncertainty k = 1.006087
        16        13        12        18     9        0.000000        0.632933         3    ;  uncertainty k = 0.224438
        16        13        12        18     9      180.000000        0.144651         4    ;  uncertainty k = 0.343971
        16        13        14        19     9        0.000000       -1.611661         1    ;  uncertainty k = 0.572526
        16        13        14        19     9      180.000000        1.365700         2    ;  uncertainty k = 0.430660
        16        13        14        19     9        0.000000        0.701185         3    ;  uncertainty k = 0.198208
        16        13        14        19     9      180.000000        0.287723         4    ;  uncertainty k = 0.056761
        16        17        18        48     9        0.000000       -0.275460         1    ;  uncertainty k = 0.373345
        16        17        18        48     9      180.000000       -1.152480         2    ;  uncertainty k = 0.432766
        16        17        18        48     9        0.000000        0.086044         3    ;  uncertainty k = 0.115727
        16        17        18        48     9      180.000000        0.044150         4    ;  uncertainty k = 0.075030
        16        17        18        49     9        0.000000       -0.275460         1    ;  uncertainty k = 0.373345
        16        17        18        49     9      180.000000       -1.152480         2    ;  uncertainty k = 0.432766
        16        17        18        49     9        0.000000        0.086044         3    ;  uncertainty k = 0.115727
        16        17        18        49     9      180.000000        0.044150         4    ;  uncertainty k = 0.075030
        17        16        13        43     9        0.000000       -0.840501         1    ;  uncertainty k = 0.303725
        17        16        13        43     9      180.000000       -0.254878         2    ;  uncertainty k = 0.477094
        17        16        13        43     9        0.000000        0.127234         3    ;  uncertainty k = 0.130546
        17        16        13        43     9      180.000000        0.000600         4    ;  uncertainty k = 0.042732
        18        12        13        43     9        0.000000       -0.994042         1    ;  uncertainty k = 0.833807
        18        12        13        43     9      180.000000        1.709168         2    ;  uncertainty k = 1.049371
        18        12        13        43     9        0.000000        0.804526         3    ;  uncertainty k = 0.319774
        18        12        13        43     9      180.000000        0.303080         4    ;  uncertainty k = 0.068045
        18        17        16        44     9        0.000000       -1.435813         1    ;  uncertainty k = 0.362083
        18        17        16        44     9      180.000000       -0.339245         2    ;  uncertainty k = 0.308496
        18        17        16        44     9        0.000000        0.606388         3    ;  uncertainty k = 0.118688
        18        17        16        44     9      180.000000        0.168691         4    ;  uncertainty k = 0.086944
        18        17        16        45     9        0.000000       -1.435813         1    ;  uncertainty k = 0.362083
        18        17        16        45     9      180.000000       -0.339245         2    ;  uncertainty k = 0.308496
        18        17        16        45     9        0.000000        0.606388         3    ;  uncertainty k = 0.118688
        18        17        16        45     9      180.000000        0.168691         4    ;  uncertainty k = 0.086944
        19        14        13        43     9        0.000000       -2.099182         1    ;  uncertainty k = 0.496017
        19        14        13        43     9      180.000000        2.172822         2    ;  uncertainty k = 0.311044
        19        14        13        43     9        0.000000        0.637559         3    ;  uncertainty k = 0.116162
        19        14        13        43     9      180.000000        0.068391         4    ;  uncertainty k = 0.106754
        19        20        21        22     9        0.000000       -0.318635         1    ;  uncertainty k = 0.406383
        19        20        21        22     9      180.000000        2.844759         2    ;  uncertainty k = 0.134440
        19        20        21        22     9        0.000000        0.605671         3    ;  uncertainty k = 0.191886
        19        20        21        22     9      180.000000        0.419938         4    ;  uncertainty k = 0.041367
        19        20        21        26     9        0.000000       -0.276022         1    ;  uncertainty k = 0.395219
        19        20        21        26     9      180.000000        2.809671         2    ;  uncertainty k = 0.106379
        19        20        21        26     9        0.000000        0.611822         3    ;  uncertainty k = 0.202664
        19        20        21        26     9      180.000000        0.416603         4    ;  uncertainty k = 0.038965
        20        21        22        23     9        0.000000        0.105328         1    ;  uncertainty k = 0.338243
        20        21        22        23     9      180.000000        9.092250         2    ;  uncertainty k = 0.483358
        20        21        22        23     9        0.000000        1.363693         3    ;  uncertainty k = 0.200906
        20        21        22        23     9      180.000000        1.778719         4    ;  uncertainty k = 0.175700
        20        21        22        27     9        0.000000       -0.066224         1    ;  uncertainty k = 0.211197
        20        21        22        27     9      180.000000        7.513152         2    ;  uncertainty k = 0.142235
        20        21        22        27     9        0.000000        0.548081         3    ;  uncertainty k = 0.323921
        20        21        22        27     9      180.000000        1.028393         4    ;  uncertainty k = 0.173825
        20        21        26        25     9        0.000000        0.216097         1    ;  uncertainty k = 0.289403
        20        21        26        25     9      180.000000        9.310329         2    ;  uncertainty k = 0.511220
        20        21        26        25     9        0.000000        1.242449         3    ;  uncertainty k = 0.266497
        20        21        26        25     9      180.000000        1.783144         4    ;  uncertainty k = 0.183527
        20        21        26        31     9        0.000000       -0.054681         1    ;  uncertainty k = 0.243083
        20        21        26        31     9      180.000000        7.371018         2    ;  uncertainty k = 0.136471
        20        21        26        31     9        0.000000        0.546454         3    ;  uncertainty k = 0.328983
        20        21        26        31     9      180.000000        1.004945         4    ;  uncertainty k = 0.154245
        21        20        19        50     9        0.000000        1.836865         1    ;  uncertainty k = 0.640237
        21        20        19        50     9      180.000000       -1.388811         2    ;  uncertainty k = 0.422577
        21        20        19        50     9        0.000000        0.434063         3    ;  uncertainty k = 0.118319
        21        20        19        50     9      180.000000       -0.074309         4    ;  uncertainty k = 0.114470
        21        22        23        24     9        0.000000       -0.162601         1    ;  uncertainty k = 0.142139
        21        22        23        24     9      180.000000       11.085039         2    ;  uncertainty k = 0.354419
        21        22        23        24     9        0.000000       -0.334066         3    ;  uncertainty k = 0.431177
        21        22        23        24     9      180.000000        0.992783         4    ;  uncertainty k = 0.409372
        21        22        23        28     9        0.000000        0.116115         1    ;  uncertainty k = 0.080008
        21        22        23        28     9      180.000000        9.586393         2    ;  uncertainty k = 0.390807
        21        22        23        28     9        0.000000        1.398778         3    ;  uncertainty k = 0.272754
        21        22        23        28     9      180.000000        1.789447         4    ;  uncertainty k = 0.128009
        21        26        25        24     9        0.000000       -0.041023         1    ;  uncertainty k = 0.077392
        21        26        25        24     9      180.000000       13.976490         2    ;  uncertainty k = 0.237906
        21        26        25        24     9        0.000000       -1.116913         3    ;  uncertainty k = 0.407042
        21        26        25        24     9      180.000000        0.693341         4    ;  uncertainty k = 0.243973
        21        26        25        30     9        0.000000        0.022173         1    ;  uncertainty k = 0.192799
        21        26        25        30     9      180.000000        7.421272         2    ;  uncertainty k = 0.403466
        21        26        25        30     9        0.000000        1.435922         3    ;  uncertainty k = 0.215497
        21        26        25        30     9      180.000000        1.762586         4    ;  uncertainty k = 0.133740
        22        21        20        51     9        0.000000       -0.217818         1    ;  uncertainty k = 0.263949
        22        21        20        51     9      180.000000        2.038987         2    ;  uncertainty k = 0.083234
        22        21        20        51     9        0.000000        0.490621         3    ;  uncertainty k = 0.035048
        22        21        20        51     9      180.000000        0.167611         4    ;  uncertainty k = 0.044033
        22        21        20        52     9        0.000000       -0.217818         1    ;  uncertainty k = 0.263949
        22        21        20        52     9      180.000000        2.038987         2    ;  uncertainty k = 0.083234
        22        21        20        52     9        0.000000        0.490621         3    ;  uncertainty k = 0.035048
        22        21        20        52     9      180.000000        0.167611         4    ;  uncertainty k = 0.044033
        22        21        26        25     9        0.000000       -0.178496         1    ;  uncertainty k = 0.153879
        22        21        26        25     9      180.000000       12.018571         2    ;  uncertainty k = 0.394270
        22        21        26        25     9        0.000000       -0.656892         3    ;  uncertainty k = 0.401498
        22        21        26        25     9      180.000000        0.742302         4    ;  uncertainty k = 0.452089
        22        21        26        31     9        0.000000        0.143213         1    ;  uncertainty k = 0.162200
        22        21        26        31     9      180.000000        7.250835         2    ;  uncertainty k = 0.638790
        22        21        26        31     9        0.000000        1.431791         3    ;  uncertainty k = 0.271394
        22        21        26        31     9      180.000000        1.662883         4    ;  uncertainty k = 0.161485
        22        23        24        25     9        0.000000       -0.201980         1    ;  uncertainty k = 0.126624
        22        23        24        25     9      180.000000       12.171034         2    ;  uncertainty k = 0.296164
        22        23        24        25     9        0.000000       -0.557201         3    ;  uncertainty k = 0.395389
        22        23        24        25     9      180.000000        0.755959         4    ;  uncertainty k = 0.408726
        22        23        24        29     9        0.000000        0.055319         1    ;  uncertainty k = 0.139260
        22        23        24        29     9      180.000000        7.101720         2    ;  uncertainty k = 0.419013
        22        23        24        29     9        0.000000        1.486188         3    ;  uncertainty k = 0.331511
        22        23        24        29     9      180.000000        1.630970         4    ;  uncertainty k = 0.143923
        22        23        28        53     9        0.000000        0.042894         1    ;  uncertainty k = 0.041405
        22        23        28        53     9      180.000000        1.141081         2    ;  uncertainty k = 0.044178
        22        23        28        53     9        0.000000        0.343484         3    ;  uncertainty k = 0.040534
        22        23        28        53     9      180.000000        0.177117         4    ;  uncertainty k = 0.029405
        22        23        28        54     9        0.000000        0.042894         1    ;  uncertainty k = 0.041405
        22        23        28        54     9      180.000000        1.141081         2    ;  uncertainty k = 0.044178
        22        23        28        54     9        0.000000        0.343484         3    ;  uncertainty k = 0.040534
        22        23        28        54     9      180.000000        0.177117         4    ;  uncertainty k = 0.029405
        22        23        28        55     9        0.000000        0.042894         1    ;  uncertainty k = 0.041405
        22        23        28        55     9      180.000000        1.141081         2    ;  uncertainty k = 0.044178
        22        23        28        55     9        0.000000        0.343484         3    ;  uncertainty k = 0.040534
        22        23        28        55     9      180.000000        0.177117         4    ;  uncertainty k = 0.029405
        23        22        21        26     9        0.000000       -0.141281         1    ;  uncertainty k = 0.163374
        23        22        21        26     9      180.000000       11.304424         2    ;  uncertainty k = 0.221356
        23        22        21        26     9        0.000000       -0.318122         3    ;  uncertainty k = 0.368863
        23        22        21        26     9      180.000000        0.927189         4    ;  uncertainty k = 0.391321
        23        24        25        26     9        0.000000       -0.142044         1    ;  uncertainty k = 0.233952
        23        24        25        26     9      180.000000       14.272574         2    ;  uncertainty k = 0.265550
        23        24        25        26     9        0.000000       -0.985673         3    ;  uncertainty k = 0.487618
        23        24        25        26     9      180.000000        0.649422         4    ;  uncertainty k = 0.261284
        23        24        25        30     9        0.000000        0.105479         1    ;  uncertainty k = 0.159261
        23        24        25        30     9      180.000000        7.224504         2    ;  uncertainty k = 0.321365
        23        24        25        30     9        0.000000        1.456468         3    ;  uncertainty k = 0.267867
        23        24        25        30     9      180.000000        1.810858         4    ;  uncertainty k = 0.183375
        24        23        22        27     9        0.000000        0.045129         1    ;  uncertainty k = 0.090799
        24        23        22        27     9      180.000000        7.446656         2    ;  uncertainty k = 0.375284
        24        23        22        27     9        0.000000        1.501548         3    ;  uncertainty k = 0.343204
        24        23        22        27     9      180.000000        1.666313         4    ;  uncertainty k = 0.148337
        24        23        28        53     9        0.000000        0.016755         1    ;  uncertainty k = 0.041727
        24        23        28        53     9      180.000000        1.108246         2    ;  uncertainty k = 0.053124
        24        23        28        53     9        0.000000        0.302379         3    ;  uncertainty k = 0.019485
        24        23        28        53     9      180.000000        0.174172         4    ;  uncertainty k = 0.031216
        24        23        28        54     9        0.000000        0.016755         1    ;  uncertainty k = 0.041727
        24        23        28        54     9      180.000000        1.108246         2    ;  uncertainty k = 0.053124
        24        23        28        54     9        0.000000        0.302379         3    ;  uncertainty k = 0.019485
        24        23        28        54     9      180.000000        0.174172         4    ;  uncertainty k = 0.031216
        24        23        28        55     9        0.000000        0.016755         1    ;  uncertainty k = 0.041727
        24        23        28        55     9      180.000000        1.108246         2    ;  uncertainty k = 0.053124
        24        23        28        55     9        0.000000        0.302379         3    ;  uncertainty k = 0.019485
        24        23        28        55     9      180.000000        0.174172         4    ;  uncertainty k = 0.031216
        24        25        26        31     9        0.000000        0.065803         1    ;  uncertainty k = 0.053177
        24        25        26        31     9      180.000000        7.799802         2    ;  uncertainty k = 0.364490
        24        25        26        31     9        0.000000        1.418566         3    ;  uncertainty k = 0.301277
        24        25        26        31     9      180.000000        1.826628         4    ;  uncertainty k = 0.189878
        25        24        23        28     9        0.000000        0.221087         1    ;  uncertainty k = 0.215298
        25        24        23        28     9      180.000000        9.847886         2    ;  uncertainty k = 0.349557
        25        24        23        28     9        0.000000        1.362811         3    ;  uncertainty k = 0.248428
        25        24        23        28     9      180.000000        1.803045         4    ;  uncertainty k = 0.158827
        26        21        20        51     9        0.000000       -0.365742         1    ;  uncertainty k = 0.237418
        26        21        20        51     9      180.000000        2.079310         2    ;  uncertainty k = 0.099683
        26        21        20        51     9        0.000000        0.473465         3    ;  uncertainty k = 0.028940
        26        21        20        51     9      180.000000        0.168921         4    ;  uncertainty k = 0.047392
        26        21        20        52     9        0.000000       -0.365742         1    ;  uncertainty k = 0.237418
        26        21        20        52     9      180.000000        2.079310         2    ;  uncertainty k = 0.099683
        26        21        20        52     9        0.000000        0.473465         3    ;  uncertainty k = 0.028940
        26        21        20        52     9      180.000000        0.168921         4    ;  uncertainty k = 0.047392
        26        21        22        27     9        0.000000        0.163853         1    ;  uncertainty k = 0.106625
        26        21        22        27     9      180.000000        7.509674         2    ;  uncertainty k = 0.542329
        26        21        22        27     9        0.000000        1.443038         3    ;  uncertainty k = 0.276729
        26        21        22        27     9      180.000000        1.655925         4    ;  uncertainty k = 0.150102
        26        25        24        29     9        0.000000        0.073985         1    ;  uncertainty k = 0.084542
        26        25        24        29     9      180.000000        7.790020         2    ;  uncertainty k = 0.368803
        26        25        24        29     9        0.000000        1.465820         3    ;  uncertainty k = 0.293001
        26        25        24        29     9      180.000000        1.814152         4    ;  uncertainty k = 0.208561
        27        22        23        28     9        0.000000       -0.280336         1    ;  uncertainty k = 0.285689
        27        22        23        28     9      180.000000        8.359921         2    ;  uncertainty k = 0.204767
        27        22        23        28     9        0.000000        0.547210         3    ;  uncertainty k = 0.263828
        27        22        23        28     9      180.000000        0.982364         4    ;  uncertainty k = 0.187087
        28        23        24        29     9        0.000000       -0.356851         1    ;  uncertainty k = 0.401606
        28        23        24        29     9      180.000000        8.378170         2    ;  uncertainty k = 0.226929
        28        23        24        29     9        0.000000        0.498956         3    ;  uncertainty k = 0.250393
        28        23        24        29     9      180.000000        0.884077         4    ;  uncertainty k = 0.207058
        29        24        25        30     9        0.000000        0.001344         1    ;  uncertainty k = 0.112381
        29        24        25        30     9      180.000000        7.526976         2    ;  uncertainty k = 0.254268
        29        24        25        30     9        0.000000       -0.449839         3    ;  uncertainty k = 0.263008
        29        24        25        30     9      180.000000        0.080649         4    ;  uncertainty k = 0.107457
        30        25        26        31     9        0.000000       -0.026602         1    ;  uncertainty k = 0.169801
        30        25        26        31     9      180.000000        7.386274         2    ;  uncertainty k = 0.272345
        30        25        26        31     9        0.000000       -0.435419         3    ;  uncertainty k = 0.267342
        30        25        26        31     9      180.000000        0.111407         4    ;  uncertainty k = 0.105505
        32         8        10        33     9        0.000000       -0.016997         1    ;  uncertainty k = 0.094262
        32         8        10        33     9      180.000000        7.719595         2    ;  uncertainty k = 0.283398
        32         8        10        33     9        0.000000       -0.432066         3    ;  uncertainty k = 0.234120
        32         8        10        33     9      180.000000        0.115397         4    ;  uncertainty k = 0.122173
        33        10        11        35     9        0.000000       -0.006372         1    ;  uncertainty k = 0.088779
        33        10        11        35     9      180.000000        7.464231         2    ;  uncertainty k = 0.352345
        33        10        11        35     9        0.000000       -0.416733         3    ;  uncertainty k = 0.274619
        33        10        11        35     9      180.000000        0.051451         4    ;  uncertainty k = 0.138380
        34         9         7        36     9        0.000000       -0.016997         1    ;  uncertainty k = 0.094262
        34         9         7        36     9      180.000000        7.719595         2    ;  uncertainty k = 0.283398
        34         9         7        36     9        0.000000       -0.432066         3    ;  uncertainty k = 0.234120
        34         9         7        36     9      180.000000        0.115397         4    ;  uncertainty k = 0.122173
        34         9        11        35     9        0.000000       -0.006372         1    ;  uncertainty k = 0.088779
        34         9        11        35     9      180.000000        7.464231         2    ;  uncertainty k = 0.352345
        34         9        11        35     9        0.000000       -0.416733         3    ;  uncertainty k = 0.274619
        34         9        11        35     9      180.000000        0.051451         4    ;  uncertainty k = 0.138380
        37         1         2        40     9        0.000000        0.100610         1    ;  uncertainty k = 0.540180
        37         1         2        40     9      180.000000       -0.324825         2    ;  uncertainty k = 0.402334
        37         1         2        40     9        0.000000        0.291530         3    ;  uncertainty k = 0.018257
        37         1         2        40     9      180.000000        0.030305         4    ;  uncertainty k = 0.119402
        38         1         2        40     9        0.000000        0.100610         1    ;  uncertainty k = 0.540180
        38         1         2        40     9      180.000000       -0.324825         2    ;  uncertainty k = 0.402334
        38         1         2        40     9        0.000000        0.291530         3    ;  uncertainty k = 0.018257
        38         1         2        40     9      180.000000        0.030305         4    ;  uncertainty k = 0.119402
        39         1         2        40     9        0.000000        0.100610         1    ;  uncertainty k = 0.540180
        39         1         2        40     9      180.000000       -0.324825         2    ;  uncertainty k = 0.402334
        39         1         2        40     9        0.000000        0.291530         3    ;  uncertainty k = 0.018257
        39         1         2        40     9      180.000000        0.030305         4    ;  uncertainty k = 0.119402
        40         2         5        41     9        0.000000        0.165885         1    ;  uncertainty k = 0.305750
        40         2         5        41     9      180.000000       -0.286547         2    ;  uncertainty k = 0.184659
        40         2         5        41     9        0.000000        0.121008         3    ;  uncertainty k = 0.147363
        40         2         5        41     9      180.000000        0.029743         4    ;  uncertainty k = 0.121930
        40         2         5        42     9        0.000000        0.165885         1    ;  uncertainty k = 0.305750
        40         2         5        42     9      180.000000       -0.286547         2    ;  uncertainty k = 0.184659
        40         2         5        42     9        0.000000        0.121008         3    ;  uncertainty k = 0.147363
        40         2         5        42     9      180.000000        0.029743         4    ;  uncertainty k = 0.121930
        43        13        16        44     9        0.000000        0.509911         1    ;  uncertainty k = 0.672047
        43        13        16        44     9      180.000000       -0.642425         2    ;  uncertainty k = 0.180700
        43        13        16        44     9        0.000000        0.309200         3    ;  uncertainty k = 0.127210
        43        13        16        44     9      180.000000        0.005015         4    ;  uncertainty k = 0.037750
        43        13        16        45     9        0.000000        0.509911         1    ;  uncertainty k = 0.672047
        43        13        16        45     9      180.000000       -0.642425         2    ;  uncertainty k = 0.180700
        43        13        16        45     9        0.000000        0.309200         3    ;  uncertainty k = 0.127210
        43        13        16        45     9      180.000000        0.005015         4    ;  uncertainty k = 0.037750
        44        16        17        46     9        0.000000        1.560403         1    ;  uncertainty k = 0.401862
        44        16        17        46     9      180.000000       -0.083465         2    ;  uncertainty k = 0.173949
        44        16        17        46     9        0.000000        0.762937         3    ;  uncertainty k = 0.121219
        44        16        17        46     9      180.000000        0.017215         4    ;  uncertainty k = 0.044110
        44        16        17        47     9        0.000000        1.560403         1    ;  uncertainty k = 0.401862
        44        16        17        47     9      180.000000       -0.083465         2    ;  uncertainty k = 0.173949
        44        16        17        47     9        0.000000        0.762937         3    ;  uncertainty k = 0.121219
        44        16        17        47     9      180.000000        0.017215         4    ;  uncertainty k = 0.044110
        45        16        17        46     9        0.000000        1.560403         1    ;  uncertainty k = 0.401862
        45        16        17        46     9      180.000000       -0.083465         2    ;  uncertainty k = 0.173949
        45        16        17        46     9        0.000000        0.762937         3    ;  uncertainty k = 0.121219
        45        16        17        46     9      180.000000        0.017215         4    ;  uncertainty k = 0.044110
        45        16        17        47     9        0.000000        1.560403         1    ;  uncertainty k = 0.401862
        45        16        17        47     9      180.000000       -0.083465         2    ;  uncertainty k = 0.173949
        45        16        17        47     9        0.000000        0.762937         3    ;  uncertainty k = 0.121219
        45        16        17        47     9      180.000000        0.017215         4    ;  uncertainty k = 0.044110
        46        17        18        48     9        0.000000        0.822630         1    ;  uncertainty k = 0.312507
        46        17        18        48     9      180.000000       -0.203104         2    ;  uncertainty k = 0.173309
        46        17        18        48     9        0.000000        0.483280         3    ;  uncertainty k = 0.114155
        46        17        18        48     9      180.000000        0.011800         4    ;  uncertainty k = 0.063446
        46        17        18        49     9        0.000000        0.822630         1    ;  uncertainty k = 0.312507
        46        17        18        49     9      180.000000       -0.203104         2    ;  uncertainty k = 0.173309
        46        17        18        49     9        0.000000        0.483280         3    ;  uncertainty k = 0.114155
        46        17        18        49     9      180.000000        0.011800         4    ;  uncertainty k = 0.063446
        47        17        18        48     9        0.000000        0.822630         1    ;  uncertainty k = 0.312507
        47        17        18        48     9      180.000000       -0.203104         2    ;  uncertainty k = 0.173309
        47        17        18        48     9        0.000000        0.483280         3    ;  uncertainty k = 0.114155
        47        17        18        48     9      180.000000        0.011800         4    ;  uncertainty k = 0.063446
        47        17        18        49     9        0.000000        0.822630         1    ;  uncertainty k = 0.312507
        47        17        18        49     9      180.000000       -0.203104         2    ;  uncertainty k = 0.173309
        47        17        18        49     9        0.000000        0.483280         3    ;  uncertainty k = 0.114155
        47        17        18        49     9      180.000000        0.011800         4    ;  uncertainty k = 0.063446
        50        19        20        51     9        0.000000        0.451064         1    ;  uncertainty k = 0.440504
        50        19        20        51     9      180.000000       -0.500510         2    ;  uncertainty k = 0.051250
        50        19        20        51     9        0.000000        0.351217         3    ;  uncertainty k = 0.059488
        50        19        20        51     9      180.000000        0.131125         4    ;  uncertainty k = 0.075926
        50        19        20        52     9        0.000000        0.451064         1    ;  uncertainty k = 0.440504
        50        19        20        52     9      180.000000       -0.500510         2    ;  uncertainty k = 0.051250
        50        19        20        52     9        0.000000        0.351217         3    ;  uncertainty k = 0.059488
        50        19        20        52     9      180.000000        0.131125         4    ;  uncertainty k = 0.075926

[ dihedrals ] ; impropers
;       ai        aj        ak        al funct           phase               k        pn
         3         2         4        12     4      180.000000       49.783366         2    ;  uncertainty k = 0.027500
         3         4        12         2     4      180.000000       49.783366         2    ;  uncertainty k = 0.027500
         3        12         2         4     4      180.000000       49.783366         2    ;  uncertainty k = 0.027500
         6         5         7         8     4      180.000000       10.754127         2    ;  uncertainty k = 0.151417
         6         7         8         5     4      180.000000       10.754127         2    ;  uncertainty k = 0.151417
         6         8         5         7     4      180.000000       10.754127         2    ;  uncertainty k = 0.151417
         7         6         9        36     4      180.000000        3.855665         2    ;  uncertainty k = 0.189968
         7         9        36         6     4      180.000000        3.855665         2    ;  uncertainty k = 0.189968
         7        36         6         9     4      180.000000        3.855665         2    ;  uncertainty k = 0.189968
         8         6        10        32     4      180.000000        3.855665         2    ;  uncertainty k = 0.189968
         8        10        32         6     4      180.000000        3.855665         2    ;  uncertainty k = 0.189968
         8        32         6        10     4      180.000000        3.855665         2    ;  uncertainty k = 0.189968
         9         7        11        34     4      180.000000        4.460718         2    ;  uncertainty k = 0.059202
         9        11        34         7     4      180.000000        4.460718         2    ;  uncertainty k = 0.059202
         9        34         7        11     4      180.000000        4.460718         2    ;  uncertainty k = 0.059202
        10         8        11        33     4      180.000000        4.460718         2    ;  uncertainty k = 0.059202
        10        11        33         8     4      180.000000        4.460718         2    ;  uncertainty k = 0.059202
        10        33         8        11     4      180.000000        4.460718         2    ;  uncertainty k = 0.059202
        11         9        10        35     4      180.000000        4.333637         2    ;  uncertainty k = 0.163022
        11        10        35         9     4      180.000000        4.333637         2    ;  uncertainty k = 0.163022
        11        35         9        10     4      180.000000        4.333637         2    ;  uncertainty k = 0.163022
        14        13        15        19     4      180.000000       51.114876         2    ;  uncertainty k = 0.043080
        14        15        19        13     4      180.000000       51.114876         2    ;  uncertainty k = 0.043080
        14        19        13        15     4      180.000000       51.114876         2    ;  uncertainty k = 0.043080
        19        14        20        50     4      180.000000        0.282650         2    ;  uncertainty k = 0.632025
        19        20        50        14     4      180.000000        0.282650         2    ;  uncertainty k = 0.632025
        19        50        14        20     4      180.000000        0.282650         2    ;  uncertainty k = 0.632025
        21        20        22        26     4      180.000000       12.535920         2    ;  uncertainty k = 0.049997
        21        22        26        20     4      180.000000       12.535920         2    ;  uncertainty k = 0.049997
        21        26        20        22     4      180.000000       12.535920         2    ;  uncertainty k = 0.049997
        22        21        23        27     4      180.000000        4.621140         2    ;  uncertainty k = 0.145926
        22        23        27        21     4      180.000000        4.621140         2    ;  uncertainty k = 0.145926
        22        27        21        23     4      180.000000        4.621140         2    ;  uncertainty k = 0.145926
        23        22        24        28     4      180.000000       15.619273         2    ;  uncertainty k = 0.032651
        23        24        28        22     4      180.000000       15.619273         2    ;  uncertainty k = 0.032651
        23        28        22        24     4      180.000000       15.619273         2    ;  uncertainty k = 0.032651
        24        23        25        29     4      180.000000        3.900795         2    ;  uncertainty k = 0.070710
        24        25        29        23     4      180.000000        3.900795         2    ;  uncertainty k = 0.070710
        24        29        23        25     4      180.000000        3.900795         2    ;  uncertainty k = 0.070710
        25        24        26        30     4      180.000000        4.400598         2    ;  uncertainty k = 0.095715
        25        26        30        24     4      180.000000        4.400598         2    ;  uncertainty k = 0.095715
        25        30        24        26     4      180.000000        4.400598         2    ;  uncertainty k = 0.095715
        26        21        25        31     4      180.000000        4.082994         2    ;  uncertainty k = 0.051460
        26        25        31        21     4      180.000000        4.082994         2    ;  uncertainty k = 0.051460
        26        31        21        25     4      180.000000        4.082994         2    ;  uncertainty k = 0.051460

[ pairs ]
;       ai        aj funct
         1         4     1
         1         6     1
         1        12     1
         1        41     1
         1        42     1
         2         7     1
         2         8     1
         2        13     1
         2        18     1
         3         6     1
         3        14     1
         3        16     1
         3        17     1
         3        37     1
         3        38     1
         3        39     1
         3        41     1
         3        42     1
         3        43     1
         3        48     1
         3        49     1
         4         5     1
         4        13     1
         4        18     1
         4        40     1
         5         9     1
         5        10     1
         5        12     1
         5        32     1
         5        36     1
         5        37     1
         5        38     1
         5        39     1
         6        11     1
         6        33     1
         6        34     1
         6        40     1
         7        10     1
         7        32     1
         7        35     1
         7        41     1
         7        42     1
         8         9     1
         8        35     1
         8        36     1
         8        41     1
         8        42     1
         9        33     1
        10        34     1
        11        32     1
        11        36     1
        12        15     1
        12        19     1
        12        40     1
        12        44     1
        12        45     1
        12        46     1
        12        47     1
        13        20     1
        13        46     1
        13        47     1
        13        48     1
        13        49     1
        13        50     1
        14        17     1
        14        18     1
        14        21     1
        14        44     1
        14        45     1
        14        51     1
        14        52     1
        15        16     1
        15        20     1
        15        43     1
        15        50     1
        16        19     1
        16        48     1
        16        49     1
        17        43     1
        18        43     1
        18        44     1
        18        45     1
        19        22     1
        19        26     1
        19        43     1
        20        23     1
        20        25     1
        20        27     1
        20        31     1
        21        24     1
        21        28     1
        21        30     1
        21        50     1
        22        25     1
        22        29     1
        22        31     1
        22        51     1
        22        52     1
        22        53     1
        22        54     1
        22        55     1
        23        26     1
        23        30     1
        24        27     1
        24        31     1
        24        53     1
        24        54     1
        24        55     1
        25        28     1
        26        27     1
        26        29     1
        26        51     1
        26        52     1
        27        28     1
        28        29     1
        29        30     1
        30        31     1
        32        33     1
        33        35     1
        34        35     1
        34        36     1
        37        40     1
        38        40     1
        39        40     1
        40        41     1
        40        42     1
        43        44     1
        43        45     1
        44        46     1
        44        47     1
        45        46     1
        45        47     1
        46        48     1
        46        49     1
        47        48     1
        47        49     1
        50        51     1
        50        52     1
