; ITP file created by ByteFF-joint-25, 2026-02-17 09:31:53.200433

[ atomtypes ]
;name           bonded.type        at.num        mass        charge   ptype           sigma         epsilon
 n0bf                                   7      0.0000       0.00000       A     2.76943e-01     4.79787e+00    ;  uncertainty sigma = 0.000085, epsilon = 0.015540
 c1bf                                   6      0.0000       0.00000       A     3.39820e-01     4.51271e-01    ;  uncertainty sigma = 0.000027, epsilon = 0.002212
 c2bf                                   6      0.0000       0.00000       A     3.31632e-01     4.11235e-01    ;  uncertainty sigma = 0.000063, epsilon = 0.004547
 o3bf                                   8      0.0000       0.00000       A     3.04820e-01     6.12239e-01    ;  uncertainty sigma = 0.000039, epsilon = 0.003535
 c4bf                                   6      0.0000       0.00000       A     3.39782e-01     4.51132e-01    ;  uncertainty sigma = 0.000025, epsilon = 0.001028
 c5bf                                   6      0.0000       0.00000       A     3.31492e-01     4.12993e-01    ;  uncertainty sigma = 0.000034, epsilon = 0.000807
 c6bf                                   6      0.0000       0.00000       A     3.31515e-01     4.13142e-01    ;  uncertainty sigma = 0.000003, epsilon = 0.000577
 c7bf                                   6      0.0000       0.00000       A     3.31515e-01     4.13142e-01    ;  uncertainty sigma = 0.000003, epsilon = 0.000577
 c8bf                                   6      0.0000       0.00000       A     3.31518e-01     4.13343e-01    ;  uncertainty sigma = 0.000003, epsilon = 0.000526
 c9bf                                   6      0.0000       0.00000       A     3.31518e-01     4.13343e-01    ;  uncertainty sigma = 0.000003, epsilon = 0.000526
 c10bf                                  6      0.0000       0.00000       A     3.31519e-01     4.13331e-01    ;  uncertainty sigma = 0.000003, epsilon = 0.000569
 n11bf                                  7      0.0000       0.00000       A     3.17985e-01     6.80386e-01    ;  uncertainty sigma = 0.000044, epsilon = 0.006992
 c12bf                                  6      0.0000       0.00000       A     3.39813e-01     4.50178e-01    ;  uncertainty sigma = 0.000024, epsilon = 0.000971
 c13bf                                  6      0.0000       0.00000       A     3.31489e-01     4.12862e-01    ;  uncertainty sigma = 0.000016, epsilon = 0.001282
 o14bf                                  8      0.0000       0.00000       A     3.04823e-01     6.12452e-01    ;  uncertainty sigma = 0.000018, epsilon = 0.001232
 c15bf                                  6      0.0000       0.00000       A     3.39755e-01     4.50791e-01    ;  uncertainty sigma = 0.000008, epsilon = 0.000863
 c16bf                                  6      0.0000       0.00000       A     3.39784e-01     4.50380e-01    ;  uncertainty sigma = 0.000008, epsilon = 0.000575
 c17bf                                  6      0.0000       0.00000       A     3.39785e-01     4.50687e-01    ;  uncertainty sigma = 0.000015, epsilon = 0.001114
 n18bf                                  7      0.0000       0.00000       A     3.27008e-01     4.90741e-01    ;  uncertainty sigma = 0.000028, epsilon = 0.002264
 c19bf                                  6      0.0000       0.00000       A     3.39779e-01     4.50717e-01    ;  uncertainty sigma = 0.000011, epsilon = 0.000896
 c20bf                                  6      0.0000       0.00000       A     3.31511e-01     4.13383e-01    ;  uncertainty sigma = 0.000006, epsilon = 0.000431
 c21bf                                  6      0.0000       0.00000       A     3.31520e-01     4.13403e-01    ;  uncertainty sigma = 0.000006, epsilon = 0.000686
 c22bf                                  6      0.0000       0.00000       A     3.31533e-01     4.13232e-01    ;  uncertainty sigma = 0.000002, epsilon = 0.000890
 c23bf                                  6      0.0000       0.00000       A     3.31520e-01     4.13318e-01    ;  uncertainty sigma = 0.000004, epsilon = 0.000529
 c24bf                                  6      0.0000       0.00000       A     3.31516e-01     4.13362e-01    ;  uncertainty sigma = 0.000002, epsilon = 0.000461
 c25bf                                  6      0.0000       0.00000       A     3.31518e-01     4.13409e-01    ;  uncertainty sigma = 0.000004, epsilon = 0.000601
 h26bf                                  1      0.0000       0.00000       A     2.62559e-01     6.71677e-02    ;  uncertainty sigma = 0.000010, epsilon = 0.000633
 c27bf                                  6      0.0000       0.00000       A     3.39752e-01     4.50339e-01    ;  uncertainty sigma = 0.000012, epsilon = 0.000889
 h28bf                                  1      0.0000       0.00000       A     2.62565e-01     6.71218e-02    ;  uncertainty sigma = 0.000005, epsilon = 0.000518
 h29bf                                  1      0.0000       0.00000       A     2.62562e-01     6.70209e-02    ;  uncertainty sigma = 0.000009, epsilon = 0.000413
 h30bf                                  1      0.0000       0.00000       A     2.62564e-01     6.71200e-02    ;  uncertainty sigma = 0.000005, epsilon = 0.000556
 h31bf                                  1      0.0000       0.00000       A     2.62565e-01     6.71218e-02    ;  uncertainty sigma = 0.000005, epsilon = 0.000518
 h32bf                                  1      0.0000       0.00000       A     2.62558e-01     6.70323e-02    ;  uncertainty sigma = 0.000010, epsilon = 0.000442
 h33bf                                  1      0.0000       0.00000       A     2.62558e-01     6.70323e-02    ;  uncertainty sigma = 0.000010, epsilon = 0.000442
 h34bf                                  1      0.0000       0.00000       A     2.62552e-01     6.70646e-02    ;  uncertainty sigma = 0.000011, epsilon = 0.000453
 h35bf                                  1      0.0000       0.00000       A     2.62565e-01     6.71218e-02    ;  uncertainty sigma = 0.000005, epsilon = 0.000518
 h36bf                                  1      0.0000       0.00000       A     1.10688e-01     4.09428e-02    ;  uncertainty sigma = 0.000086, epsilon = 0.000660
 h37bf                                  1      0.0000       0.00000       A     1.10688e-01     4.09428e-02    ;  uncertainty sigma = 0.000086, epsilon = 0.000660
 h38bf                                  1      0.0000       0.00000       A     1.10688e-01     4.09428e-02    ;  uncertainty sigma = 0.000086, epsilon = 0.000660
 h39bf                                  1      0.0000       0.00000       A     1.88870e-01     8.55762e-02    ;  uncertainty sigma = 0.000080, epsilon = 0.001743
 h40bf                                  1      0.0000       0.00000       A     2.59933e-01     8.65549e-02    ;  uncertainty sigma = 0.000040, epsilon = 0.001066
 h41bf                                  1      0.0000       0.00000       A     2.59933e-01     8.65549e-02    ;  uncertainty sigma = 0.000040, epsilon = 0.001066
 h42bf                                  1      0.0000       0.00000       A     2.42267e-01     8.71728e-02    ;  uncertainty sigma = 0.000080, epsilon = 0.000934
 h43bf                                  1      0.0000       0.00000       A     2.60028e-01     8.64829e-02    ;  uncertainty sigma = 0.000014, epsilon = 0.000854
 h44bf                                  1      0.0000       0.00000       A     2.60028e-01     8.64829e-02    ;  uncertainty sigma = 0.000014, epsilon = 0.000854
 h45bf                                  1      0.0000       0.00000       A     2.60022e-01     8.65316e-02    ;  uncertainty sigma = 0.000011, epsilon = 0.000541
 h46bf                                  1      0.0000       0.00000       A     2.60022e-01     8.65316e-02    ;  uncertainty sigma = 0.000011, epsilon = 0.000541
 h47bf                                  1      0.0000       0.00000       A     2.42219e-01     8.66542e-02    ;  uncertainty sigma = 0.000020, epsilon = 0.000808
 h48bf                                  1      0.0000       0.00000       A     2.42219e-01     8.66542e-02    ;  uncertainty sigma = 0.000020, epsilon = 0.000808
 h49bf                                  1      0.0000       0.00000       A     1.10640e-01     4.13028e-02    ;  uncertainty sigma = 0.000081, epsilon = 0.001069
 h50bf                                  1      0.0000       0.00000       A     2.42179e-01     8.66679e-02    ;  uncertainty sigma = 0.000027, epsilon = 0.001271
 h51bf                                  1      0.0000       0.00000       A     2.42179e-01     8.66679e-02    ;  uncertainty sigma = 0.000027, epsilon = 0.001271
 c52bf                                  6      0.0000       0.00000       A     3.39786e-01     4.50780e-01    ;  uncertainty sigma = 0.000004, epsilon = 0.000302
 h53bf                                  1      0.0000       0.00000       A     2.60022e-01     8.67253e-02    ;  uncertainty sigma = 0.000019, epsilon = 0.000696
 h54bf                                  1      0.0000       0.00000       A     2.60022e-01     8.67253e-02    ;  uncertainty sigma = 0.000019, epsilon = 0.000696
 h55bf                                  1      0.0000       0.00000       A     2.60024e-01     8.66314e-02    ;  uncertainty sigma = 0.000009, epsilon = 0.000659
 h56bf                                  1      0.0000       0.00000       A     2.60024e-01     8.66314e-02    ;  uncertainty sigma = 0.000009, epsilon = 0.000659
 h57bf                                  1      0.0000       0.00000       A     2.60024e-01     8.66314e-02    ;  uncertainty sigma = 0.000009, epsilon = 0.000659

[ moleculetype ]
;name             nrexcl
 MOL                   3

[ atoms ]
;       nr            type      resi   res      atom      cgnr      charge          mass ; qtot
         1            n0bf         1   UNL        n0         1    -0.86601       14.0070 ; qtot   -0.866
         2            c1bf         1   UNL        c1         2     0.08765       12.0110 ; qtot   -0.778
         3            c2bf         1   UNL        c2         3     0.64718       12.0110 ; qtot   -0.131
         4            o3bf         1   UNL        o3         4    -0.60936       15.9990 ; qtot   -0.741
         5            c4bf         1   UNL        c4         5    -0.02686       12.0110 ; qtot   -0.767
         6            c5bf         1   UNL        c5         6    -0.13705       12.0110 ; qtot   -0.904
         7            c6bf         1   UNL        c6         7    -0.11189       12.0110 ; qtot   -1.016
         8            c7bf         1   UNL        c7         8    -0.11189       12.0110 ; qtot   -1.128
         9            c8bf         1   UNL        c8         9    -0.11860       12.0110 ; qtot   -1.247
        10            c9bf         1   UNL        c9        10    -0.11860       12.0110 ; qtot   -1.365
        11           c10bf         1   UNL       c10        11    -0.12782       12.0110 ; qtot   -1.493
        12           n11bf         1   UNL       n11        12    -0.40679       14.0070 ; qtot   -1.900
        13           c12bf         1   UNL       c12        13     0.02902       12.0110 ; qtot   -1.871
        14           c13bf         1   UNL       c13        14     0.65870       12.0110 ; qtot   -1.212
        15           o14bf         1   UNL       o14        15    -0.60628       15.9990 ; qtot   -1.819
        16           c15bf         1   UNL       c15        16    -0.07798       12.0110 ; qtot   -1.897
        17           c16bf         1   UNL       c16        17    -0.09437       12.0110 ; qtot   -1.991
        18           c17bf         1   UNL       c17        18     0.09761       12.0110 ; qtot   -1.893
        19           n18bf         1   UNL       n18        19    -0.56589       14.0070 ; qtot   -2.459
        20           c19bf         1   UNL       c19        20     0.14631       12.0110 ; qtot   -2.313
        21           c20bf         1   UNL       c20        21    -0.12261       12.0110 ; qtot   -2.436
        22           c21bf         1   UNL       c21        22    -0.10981       12.0110 ; qtot   -2.545
        23           c22bf         1   UNL       c22        23    -0.08171       12.0110 ; qtot   -2.627
        24           c23bf         1   UNL       c23        24    -0.12489       12.0110 ; qtot   -2.752
        25           c24bf         1   UNL       c24        25    -0.12973       12.0110 ; qtot   -2.882
        26           c25bf         1   UNL       c25        26    -0.11353       12.0110 ; qtot   -2.995
        27           h26bf         1   UNL       h26        27     0.13452        1.0080 ; qtot   -2.861
        28           c27bf         1   UNL       c27        28    -0.03412       12.0110 ; qtot   -2.895
        29           h28bf         1   UNL       h28        29     0.13128        1.0080 ; qtot   -2.764
        30           h29bf         1   UNL       h29        30     0.13115        1.0080 ; qtot   -2.632
        31           h30bf         1   UNL       h30        31     0.13671        1.0080 ; qtot   -2.496
        32           h31bf         1   UNL       h31        32     0.13886        1.0080 ; qtot   -2.357
        33           h32bf         1   UNL       h32        33     0.13082        1.0080 ; qtot   -2.226
        34           h33bf         1   UNL       h33        34     0.13082        1.0080 ; qtot   -2.095
        35           h34bf         1   UNL       h34        35     0.13198        1.0080 ; qtot   -1.963
        36           h35bf         1   UNL       h35        36     0.13886        1.0080 ; qtot   -1.824
        37           h36bf         1   UNL       h36        37     0.48559        1.0080 ; qtot   -1.339
        38           h37bf         1   UNL       h37        38     0.48559        1.0080 ; qtot   -0.853
        39           h38bf         1   UNL       h38        39     0.48559        1.0080 ; qtot   -0.368
        40           h39bf         1   UNL       h39        40     0.12932        1.0080 ; qtot   -0.238
        41           h40bf         1   UNL       h40        41     0.09501        1.0080 ; qtot   -0.143
        42           h41bf         1   UNL       h41        42     0.09501        1.0080 ; qtot   -0.048
        43           h42bf         1   UNL       h42        43     0.09313        1.0080 ; qtot    0.045
        44           h43bf         1   UNL       h43        44     0.06408        1.0080 ; qtot    0.109
        45           h44bf         1   UNL       h44        45     0.06408        1.0080 ; qtot    0.173
        46           h45bf         1   UNL       h45        46     0.05807        1.0080 ; qtot    0.231
        47           h46bf         1   UNL       h46        47     0.05807        1.0080 ; qtot    0.289
        48           h47bf         1   UNL       h47        48     0.06814        1.0080 ; qtot    0.357
        49           h48bf         1   UNL       h48        49     0.06814        1.0080 ; qtot    0.425
        50           h49bf         1   UNL       h49        50     0.33286        1.0080 ; qtot    0.758
        51           h50bf         1   UNL       h50        51     0.06764        1.0080 ; qtot    0.826
        52           h51bf         1   UNL       h51        52     0.06764        1.0080 ; qtot    0.894
        53           c52bf         1   UNL       c52        53    -0.08928       12.0110 ; qtot    0.804
        54           h53bf         1   UNL       h53        54     0.04471        1.0080 ; qtot    0.849
        55           h54bf         1   UNL       h54        55     0.04471        1.0080 ; qtot    0.894
        56           h55bf         1   UNL       h55        56     0.03541        1.0080 ; qtot    0.929
        57           h56bf         1   UNL       h56        57     0.03541        1.0080 ; qtot    0.965
        58           h57bf         1   UNL       h57        58     0.03540        1.0080 ; qtot    1.000

[ bonds ]
;       ai        aj funct               r               k
         1         2     1        0.150491   212631.000024    ;  uncertainty r = 0.000166, k = 23.670442
         1        37     1        0.103308   391133.977246    ;  uncertainty r = 0.000037, k = 11.445086
         1        38     1        0.103308   391133.977246    ;  uncertainty r = 0.000037, k = 11.445086
         1        39     1        0.103308   391133.977246    ;  uncertainty r = 0.000037, k = 11.445086
         2         3     1        0.153383   218392.746484    ;  uncertainty r = 0.000351, k = 18.850458
         2         5     1        0.154868   192604.632861    ;  uncertainty r = 0.000068, k = 15.427770
         2        40     1        0.109152   319716.871631    ;  uncertainty r = 0.000039, k = 5.932176
         3         4     1        0.124430   646067.824609    ;  uncertainty r = 0.000114, k = 4.050960
         3        12     1        0.132837   244620.021777    ;  uncertainty r = 0.000270, k = 32.041619
         5         6     1        0.151366   228169.373438    ;  uncertainty r = 0.000138, k = 4.648141
         5        41     1        0.109492   312207.863379    ;  uncertainty r = 0.000031, k = 2.085891
         5        42     1        0.109492   312207.863379    ;  uncertainty r = 0.000031, k = 2.085891
         6         7     1        0.140076   354245.341846    ;  uncertainty r = 0.000040, k = 3.508676
         6         8     1        0.140076   354245.341846    ;  uncertainty r = 0.000040, k = 3.508676
         7         9     1        0.139656   367109.098877    ;  uncertainty r = 0.000030, k = 2.498313
         7        36     1        0.108908   333963.692969    ;  uncertainty r = 0.000020, k = 1.163684
         8        10     1        0.139656   367109.098877    ;  uncertainty r = 0.000030, k = 2.498313
         8        32     1        0.108908   333963.692969    ;  uncertainty r = 0.000020, k = 1.163684
         9        11     1        0.139637   370587.431934    ;  uncertainty r = 0.000019, k = 1.259387
         9        34     1        0.108854   334327.162646    ;  uncertainty r = 0.000010, k = 0.904567
        10        11     1        0.139637   370587.431934    ;  uncertainty r = 0.000019, k = 1.259387
        10        33     1        0.108854   334327.162646    ;  uncertainty r = 0.000010, k = 0.904567
        11        35     1        0.108851   334582.431592    ;  uncertainty r = 0.000012, k = 0.680626
        12        13     1        0.146481   213389.860767    ;  uncertainty r = 0.000362, k = 17.470711
        12        18     1        0.148173   240716.266016    ;  uncertainty r = 0.000096, k = 8.226007
        13        14     1        0.151531   203632.463257    ;  uncertainty r = 0.000267, k = 12.937238
        13        16     1        0.153641   206709.455103    ;  uncertainty r = 0.000104, k = 6.875550
        13        43     1        0.109490   313697.187598    ;  uncertainty r = 0.000069, k = 6.361160
        14        15     1        0.123883   695740.873242    ;  uncertainty r = 0.000078, k = 5.398281
        14        19     1        0.137039   335802.594678    ;  uncertainty r = 0.000052, k = 18.483830
        16        17     1        0.153731   221851.237207    ;  uncertainty r = 0.000050, k = 5.320392
        16        44     1        0.109345   311554.062305    ;  uncertainty r = 0.000017, k = 1.844883
        16        45     1        0.109345   311554.087842    ;  uncertainty r = 0.000017, k = 1.844883
        17        18     1        0.153352   229030.357080    ;  uncertainty r = 0.000092, k = 7.132328
        17        46     1        0.109405   310965.202100    ;  uncertainty r = 0.000009, k = 1.477969
        17        47     1        0.109405   310965.202100    ;  uncertainty r = 0.000009, k = 1.477969
        18        48     1        0.109284   310084.197363    ;  uncertainty r = 0.000029, k = 3.347334
        18        49     1        0.109284   310084.197363    ;  uncertainty r = 0.000029, k = 3.347334
        19        20     1        0.146051   256801.835840    ;  uncertainty r = 0.000059, k = 10.378524
        19        50     1        0.101717   420119.822168    ;  uncertainty r = 0.000070, k = 2.641117
        20        21     1        0.151805   243641.439746    ;  uncertainty r = 0.000038, k = 4.297394
        20        51     1        0.109388   306053.726465    ;  uncertainty r = 0.000015, k = 4.022431
        20        52     1        0.109388   306053.726465    ;  uncertainty r = 0.000015, k = 4.022431
        21        22     1        0.139756   351536.237598    ;  uncertainty r = 0.000067, k = 1.535991
        21        26     1        0.139761   355230.946582    ;  uncertainty r = 0.000038, k = 3.038951
        22        23     1        0.139792   350433.979346    ;  uncertainty r = 0.000016, k = 2.296583
        22        27     1        0.108958   332813.629248    ;  uncertainty r = 0.000031, k = 1.075548
        23        24     1        0.139881   351516.803857    ;  uncertainty r = 0.000019, k = 2.950318
        23        28     1        0.151326   234373.180029    ;  uncertainty r = 0.000031, k = 3.009376
        24        25     1        0.139646   370063.027393    ;  uncertainty r = 0.000026, k = 2.308358
        24        29     1        0.108912   334449.306641    ;  uncertainty r = 0.000018, k = 0.583475
        25        26     1        0.139595   369470.438770    ;  uncertainty r = 0.000020, k = 1.233634
        25        30     1        0.108836   333750.534717    ;  uncertainty r = 0.000012, k = 1.133244
        26        31     1        0.108868   333758.017090    ;  uncertainty r = 0.000013, k = 0.627189
        28        53     1        0.154175   229422.530469    ;  uncertainty r = 0.000050, k = 5.090749
        28        54     1        0.109673   306874.489160    ;  uncertainty r = 0.000029, k = 2.611116
        28        55     1        0.109673   306874.489160    ;  uncertainty r = 0.000029, k = 2.611116
        53        56     1        0.109610   309233.556250    ;  uncertainty r = 0.000011, k = 0.969525
        53        57     1        0.109610   309233.556250    ;  uncertainty r = 0.000011, k = 0.969525
        53        58     1        0.109610   309233.556250    ;  uncertainty r = 0.000011, k = 0.969525

[ angles ]
;       ai        aj        ak funct           theta             cth
         1         2         3     1      101.865005      535.517206    ;  uncertainty theta = 0.014719, k = 0.222860
         1         2         5     1      111.062416      677.955796    ;  uncertainty theta = 0.002374, k = 0.080532
         1         2        40     1      103.864357      442.467608    ;  uncertainty theta = 0.003851, k = 0.159781
         2         1        37     1      111.017685      417.836875    ;  uncertainty theta = 0.002366, k = 0.115964
         2         1        38     1      111.017685      417.836875    ;  uncertainty theta = 0.002366, k = 0.115964
         2         1        39     1      111.017685      417.836875    ;  uncertainty theta = 0.002366, k = 0.115964
         2         3         4     1      125.113281      512.392906    ;  uncertainty theta = 0.004474, k = 0.243224
         2         3        12     1      113.240524      369.047940    ;  uncertainty theta = 0.008265, k = 0.220207
         2         5         6     1      111.457375      517.417237    ;  uncertainty theta = 0.002141, k = 0.103116
         2         5        41     1      106.760666      398.770582    ;  uncertainty theta = 0.001554, k = 0.093624
         2         5        42     1      106.760666      398.770582    ;  uncertainty theta = 0.001554, k = 0.093624
         3         2         5     1      111.995033      473.784532    ;  uncertainty theta = 0.008277, k = 0.120183
         3         2        40     1      113.360085      371.478051    ;  uncertainty theta = 0.004146, k = 0.297211
         3        12        13     1      116.265060      362.289512    ;  uncertainty theta = 0.006584, k = 0.104236
         3        12        18     1      117.197777      359.643070    ;  uncertainty theta = 0.004351, k = 0.182111
         4         3        12     1      125.708939      735.400821    ;  uncertainty theta = 0.002743, k = 0.148433
         5         2        40     1      110.181053      389.124226    ;  uncertainty theta = 0.002500, k = 0.074436
         5         6         7     1      120.180260      422.287929    ;  uncertainty theta = 0.003579, k = 0.182145
         5         6         8     1      120.180260      422.287929    ;  uncertainty theta = 0.003579, k = 0.182145
         6         5        41     1      108.484146      406.950884    ;  uncertainty theta = 0.001817, k = 0.046949
         6         5        42     1      108.484146      406.950884    ;  uncertainty theta = 0.001817, k = 0.046949
         6         7         9     1      120.905472      516.083721    ;  uncertainty theta = 0.003333, k = 0.059091
         6         7        36     1      118.460892      270.448522    ;  uncertainty theta = 0.002568, k = 0.056882
         6         8        10     1      120.905472      516.083721    ;  uncertainty theta = 0.003333, k = 0.059091
         6         8        32     1      118.460892      270.448522    ;  uncertainty theta = 0.002568, k = 0.056882
         7         6         8     1      120.989014      468.786824    ;  uncertainty theta = 0.002500, k = 0.050317
         7         9        11     1      119.340797      517.932320    ;  uncertainty theta = 0.001023, k = 0.024623
         7         9        34     1      120.021866      284.782215    ;  uncertainty theta = 0.001473, k = 0.020215
         8        10        11     1      119.340797      517.932320    ;  uncertainty theta = 0.001023, k = 0.024623
         8        10        33     1      120.021866      284.782215    ;  uncertainty theta = 0.001473, k = 0.020215
         9         7        36     1      120.165367      295.328721    ;  uncertainty theta = 0.002307, k = 0.033634
         9        11        10     1      118.329407      526.152620    ;  uncertainty theta = 0.000907, k = 0.031471
         9        11        35     1      120.672157      289.503898    ;  uncertainty theta = 0.001676, k = 0.008297
        10         8        32     1      120.165367      295.328721    ;  uncertainty theta = 0.002307, k = 0.033634
        10        11        35     1      120.672157      289.503898    ;  uncertainty theta = 0.001676, k = 0.008297
        11         9        34     1      120.568382      288.279617    ;  uncertainty theta = 0.001545, k = 0.013753
        11        10        33     1      120.568382      288.279617    ;  uncertainty theta = 0.001545, k = 0.013753
        12        13        14     1      106.388016      514.320128    ;  uncertainty theta = 0.005816, k = 0.160511
        12        13        16     1      107.774399      782.062228    ;  uncertainty theta = 0.007655, k = 0.082931
        12        13        43     1      106.938553      428.783708    ;  uncertainty theta = 0.004689, k = 0.055791
        12        18        17     1      106.103958      800.433816    ;  uncertainty theta = 0.003443, k = 0.117194
        12        18        48     1      108.499611      449.947428    ;  uncertainty theta = 0.001644, k = 0.070754
        12        18        49     1      108.499611      449.947428    ;  uncertainty theta = 0.001644, k = 0.070754
        13        12        18     1      117.944016      531.909993    ;  uncertainty theta = 0.006275, k = 0.330652
        13        14        15     1      121.629898      453.112944    ;  uncertainty theta = 0.006055, k = 0.100225
        13        14        19     1      113.149803      473.755930    ;  uncertainty theta = 0.004117, k = 0.232125
        13        16        17     1      105.172134      684.716171    ;  uncertainty theta = 0.002502, k = 0.111900
        13        16        44     1      108.015526      385.043172    ;  uncertainty theta = 0.001173, k = 0.038796
        13        16        45     1      108.015526      385.043172    ;  uncertainty theta = 0.001173, k = 0.038796
        14        13        16     1      109.730995      500.477227    ;  uncertainty theta = 0.004856, k = 0.171797
        14        13        43     1      107.696838      381.259020    ;  uncertainty theta = 0.008408, k = 0.077546
        14        19        20     1      116.473892      437.782251    ;  uncertainty theta = 0.002854, k = 0.179818
        14        19        50     1      116.126205      352.403235    ;  uncertainty theta = 0.003423, k = 0.149084
        15        14        19     1      125.217850      793.049697    ;  uncertainty theta = 0.002178, k = 0.051392
        16        13        43     1      110.250183      390.060831    ;  uncertainty theta = 0.004861, k = 0.093807
        16        17        18     1      103.988670      716.362204    ;  uncertainty theta = 0.001186, k = 0.063292
        16        17        46     1      109.736107      403.996911    ;  uncertainty theta = 0.001017, k = 0.053351
        16        17        47     1      109.736107      403.996911    ;  uncertainty theta = 0.001017, k = 0.053351
        17        16        44     1      110.112877      408.066089    ;  uncertainty theta = 0.001193, k = 0.054094
        17        16        45     1      110.112877      408.066089    ;  uncertainty theta = 0.001193, k = 0.054094
        17        18        48     1      110.852745      407.686480    ;  uncertainty theta = 0.001501, k = 0.028761
        17        18        49     1      110.852745      407.686480    ;  uncertainty theta = 0.001501, k = 0.028761
        18        17        46     1      109.154922      401.836120    ;  uncertainty theta = 0.002099, k = 0.034845
        18        17        47     1      109.154922      401.836120    ;  uncertainty theta = 0.002099, k = 0.034845
        19        20        21     1      112.023972      634.241500    ;  uncertainty theta = 0.000319, k = 0.029316
        19        20        51     1      106.587708      463.132493    ;  uncertainty theta = 0.001818, k = 0.065070
        19        20        52     1      106.587708      463.132493    ;  uncertainty theta = 0.001818, k = 0.065070
        20        19        50     1      111.603165      309.395264    ;  uncertainty theta = 0.002463, k = 0.094480
        20        21        22     1      120.209694      416.925296    ;  uncertainty theta = 0.001609, k = 0.076977
        20        21        26     1      120.644653      425.240306    ;  uncertainty theta = 0.001012, k = 0.066173
        21        20        51     1      108.365990      416.056651    ;  uncertainty theta = 0.001305, k = 0.045621
        21        20        52     1      108.365990      416.056651    ;  uncertainty theta = 0.001305, k = 0.045621
        21        22        23     1      122.573013      518.309503    ;  uncertainty theta = 0.002423, k = 0.060380
        21        22        27     1      118.542542      272.948573    ;  uncertainty theta = 0.002361, k = 0.060652
        21        26        25     1      119.978065      517.430516    ;  uncertainty theta = 0.000801, k = 0.049632
        21        26        31     1      119.144409      269.428347    ;  uncertainty theta = 0.002044, k = 0.051317
        22        21        26     1      120.510521      459.243382    ;  uncertainty theta = 0.001703, k = 0.061983
        22        23        24     1      119.615334      454.101230    ;  uncertainty theta = 0.001945, k = 0.045668
        22        23        28     1      120.759964      421.483925    ;  uncertainty theta = 0.002893, k = 0.099388
        23        22        27     1      118.672874      271.127618    ;  uncertainty theta = 0.001402, k = 0.038220
        23        24        25     1      120.361145      522.658122    ;  uncertainty theta = 0.001026, k = 0.040226
        23        24        29     1      119.046974      270.782452    ;  uncertainty theta = 0.002028, k = 0.025552
        23        28        53     1      111.753311      564.988051    ;  uncertainty theta = 0.002227, k = 0.053880
        23        28        54     1      107.116928      393.428538    ;  uncertainty theta = 0.001983, k = 0.036854
        23        28        55     1      107.116928      393.428538    ;  uncertainty theta = 0.001983, k = 0.036854
        24        23        28     1      121.219749      431.602877    ;  uncertainty theta = 0.001785, k = 0.053928
        24        25        26     1      120.020493      505.361199    ;  uncertainty theta = 0.001580, k = 0.056642
        24        25        30     1      120.357376      285.419014    ;  uncertainty theta = 0.001754, k = 0.032181
        25        24        29     1      120.314232      292.442613    ;  uncertainty theta = 0.002215, k = 0.015617
        25        26        31     1      120.518776      291.966729    ;  uncertainty theta = 0.002148, k = 0.019199
        26        25        30     1      120.326248      283.605784    ;  uncertainty theta = 0.001665, k = 0.029429
        28        53        56     1      108.485924      413.523849    ;  uncertainty theta = 0.001719, k = 0.033361
        28        53        57     1      108.485939      413.523849    ;  uncertainty theta = 0.001719, k = 0.033361
        28        53        58     1      108.485939      413.523849    ;  uncertainty theta = 0.001719, k = 0.033361
        37         1        38     1      108.287552      374.737289    ;  uncertainty theta = 0.002472, k = 0.030242
        37         1        39     1      108.287552      374.737289    ;  uncertainty theta = 0.002472, k = 0.030242
        38         1        39     1      108.287552      374.737257    ;  uncertainty theta = 0.002472, k = 0.030242
        41         5        42     1      105.685440      318.955879    ;  uncertainty theta = 0.004475, k = 0.088689
        44        16        45     1      105.902832      307.931955    ;  uncertainty theta = 0.001816, k = 0.037757
        46        17        47     1      105.686661      297.544449    ;  uncertainty theta = 0.002523, k = 0.030707
        48        18        49     1      105.681274      310.005696    ;  uncertainty theta = 0.001472, k = 0.053670
        51        20        52     1      104.949173      317.137285    ;  uncertainty theta = 0.001777, k = 0.067191
        53        28        54     1      107.858231      407.914910    ;  uncertainty theta = 0.001841, k = 0.042640
        53        28        55     1      107.858231      407.914910    ;  uncertainty theta = 0.001841, k = 0.042640
        54        28        55     1      103.867966      310.341030    ;  uncertainty theta = 0.002775, k = 0.057019
        56        53        57     1      105.139038      315.510156    ;  uncertainty theta = 0.002270, k = 0.015366
        56        53        58     1      105.139038      315.510156    ;  uncertainty theta = 0.002270, k = 0.015366
        57        53        58     1      105.139038      315.510156    ;  uncertainty theta = 0.002270, k = 0.015366

[ dihedrals ] ; propers for gromacs 4.5 or higher, use funct 9
;       ai        aj        ak        al funct           phase               k        pn
         1         2         3         4     9        0.000000        7.142609         1    ;  uncertainty k = 1.462940
         1         2         3         4     9      180.000000        6.964579         2    ;  uncertainty k = 0.328289
         1         2         3         4     9        0.000000        0.708402         3    ;  uncertainty k = 0.195694
         1         2         3         4     9      180.000000       -0.095659         4    ;  uncertainty k = 0.215547
         1         2         3        12     9        0.000000        4.061663         1    ;  uncertainty k = 1.356645
         1         2         3        12     9      180.000000        5.480402         2    ;  uncertainty k = 0.203312
         1         2         3        12     9        0.000000        1.003045         3    ;  uncertainty k = 0.661108
         1         2         3        12     9      180.000000       -0.183311         4    ;  uncertainty k = 0.202246
         1         2         5         6     9        0.000000        1.467841         1    ;  uncertainty k = 1.692150
         1         2         5         6     9      180.000000       -2.238317         2    ;  uncertainty k = 0.692800
         1         2         5         6     9        0.000000        2.172527         3    ;  uncertainty k = 0.356834
         1         2         5         6     9      180.000000       -0.102032         4    ;  uncertainty k = 0.179649
         1         2         5        41     9        0.000000       -0.379758         1    ;  uncertainty k = 0.819217
         1         2         5        41     9      180.000000       -2.218014         2    ;  uncertainty k = 0.395436
         1         2         5        41     9        0.000000        0.882784         3    ;  uncertainty k = 0.120495
         1         2         5        41     9      180.000000       -0.128401         4    ;  uncertainty k = 0.149215
         1         2         5        42     9        0.000000       -0.379758         1    ;  uncertainty k = 0.819217
         1         2         5        42     9      180.000000       -2.218014         2    ;  uncertainty k = 0.395436
         1         2         5        42     9        0.000000        0.882784         3    ;  uncertainty k = 0.120495
         1         2         5        42     9      180.000000       -0.128401         4    ;  uncertainty k = 0.149215
         2         3        12        13     9        0.000000        7.452085         1    ;  uncertainty k = 1.719062
         2         3        12        13     9      180.000000       10.138574         2    ;  uncertainty k = 0.828306
         2         3        12        13     9        0.000000        1.743878         3    ;  uncertainty k = 0.428190
         2         3        12        13     9      180.000000       -0.169627         4    ;  uncertainty k = 0.497682
         2         3        12        18     9        0.000000        7.135344         1    ;  uncertainty k = 1.290001
         2         3        12        18     9      180.000000        9.340876         2    ;  uncertainty k = 0.559931
         2         3        12        18     9        0.000000        1.541788         3    ;  uncertainty k = 0.323462
         2         3        12        18     9      180.000000       -0.087215         4    ;  uncertainty k = 0.346939
         2         5         6         7     9        0.000000        0.129583         1    ;  uncertainty k = 0.099374
         2         5         6         7     9      180.000000        1.005598         2    ;  uncertainty k = 0.162944
         2         5         6         7     9        0.000000        0.630014         3    ;  uncertainty k = 0.097908
         2         5         6         7     9      180.000000        0.281281         4    ;  uncertainty k = 0.071854
         2         5         6         8     9        0.000000        0.129583         1    ;  uncertainty k = 0.099374
         2         5         6         8     9      180.000000        1.005598         2    ;  uncertainty k = 0.162944
         2         5         6         8     9        0.000000        0.630014         3    ;  uncertainty k = 0.097908
         2         5         6         8     9      180.000000        0.281281         4    ;  uncertainty k = 0.071854
         3         2         1        37     9        0.000000        6.240377         1    ;  uncertainty k = 1.752857
         3         2         1        37     9      180.000000       -0.958322         2    ;  uncertainty k = 0.667369
         3         2         1        37     9        0.000000        0.519752         3    ;  uncertainty k = 0.190579
         3         2         1        37     9      180.000000        0.137368         4    ;  uncertainty k = 0.135162
         3         2         1        38     9        0.000000        6.240377         1    ;  uncertainty k = 1.752857
         3         2         1        38     9      180.000000       -0.958322         2    ;  uncertainty k = 0.667369
         3         2         1        38     9        0.000000        0.519752         3    ;  uncertainty k = 0.190579
         3         2         1        38     9      180.000000        0.137368         4    ;  uncertainty k = 0.135162
         3         2         1        39     9        0.000000        6.240377         1    ;  uncertainty k = 1.752857
         3         2         1        39     9      180.000000       -0.958322         2    ;  uncertainty k = 0.667369
         3         2         1        39     9        0.000000        0.519752         3    ;  uncertainty k = 0.190579
         3         2         1        39     9      180.000000        0.137368         4    ;  uncertainty k = 0.135162
         3         2         5         6     9        0.000000       -0.968222         1    ;  uncertainty k = 1.172651
         3         2         5         6     9      180.000000        0.162950         2    ;  uncertainty k = 0.497773
         3         2         5         6     9        0.000000        0.819781         3    ;  uncertainty k = 0.498921
         3         2         5         6     9      180.000000        0.115302         4    ;  uncertainty k = 0.170042
         3         2         5        41     9        0.000000        1.152162         1    ;  uncertainty k = 0.293872
         3         2         5        41     9      180.000000       -0.966516         2    ;  uncertainty k = 0.315573
         3         2         5        41     9        0.000000        0.475687         3    ;  uncertainty k = 0.298335
         3         2         5        41     9      180.000000       -0.092853         4    ;  uncertainty k = 0.084494
         3         2         5        42     9        0.000000        1.152162         1    ;  uncertainty k = 0.293872
         3         2         5        42     9      180.000000       -0.966516         2    ;  uncertainty k = 0.315573
         3         2         5        42     9        0.000000        0.475687         3    ;  uncertainty k = 0.298335
         3         2         5        42     9      180.000000       -0.092853         4    ;  uncertainty k = 0.084494
         3        12        13        14     9        0.000000        4.255977         1    ;  uncertainty k = 1.051250
         3        12        13        14     9      180.000000        0.206562         2    ;  uncertainty k = 0.542866
         3        12        13        14     9        0.000000        0.461872         3    ;  uncertainty k = 0.331259
         3        12        13        14     9      180.000000        0.682794         4    ;  uncertainty k = 0.155659
         3        12        13        16     9        0.000000       -0.956198         1    ;  uncertainty k = 1.405152
         3        12        13        16     9      180.000000        0.401429         2    ;  uncertainty k = 0.554961
         3        12        13        16     9        0.000000        0.539586         3    ;  uncertainty k = 0.348518
         3        12        13        16     9      180.000000        0.418551         4    ;  uncertainty k = 0.274493
         3        12        13        43     9        0.000000        1.979444         1    ;  uncertainty k = 0.705293
         3        12        13        43     9      180.000000       -0.346594         2    ;  uncertainty k = 0.151450
         3        12        13        43     9        0.000000       -0.201540         3    ;  uncertainty k = 0.199550
         3        12        13        43     9      180.000000        0.249656         4    ;  uncertainty k = 0.048885
         3        12        18        17     9        0.000000       -1.106788         1    ;  uncertainty k = 0.928594
         3        12        18        17     9      180.000000        0.085254         2    ;  uncertainty k = 0.618368
         3        12        18        17     9        0.000000        0.508959         3    ;  uncertainty k = 0.441646
         3        12        18        17     9      180.000000        0.512604         4    ;  uncertainty k = 0.293084
         3        12        18        48     9        0.000000        1.779997         1    ;  uncertainty k = 0.884420
         3        12        18        48     9      180.000000       -0.014701         2    ;  uncertainty k = 0.198071
         3        12        18        48     9        0.000000        0.075226         3    ;  uncertainty k = 0.083174
         3        12        18        48     9      180.000000        0.277163         4    ;  uncertainty k = 0.108504
         3        12        18        49     9        0.000000        1.779997         1    ;  uncertainty k = 0.884420
         3        12        18        49     9      180.000000       -0.014701         2    ;  uncertainty k = 0.198071
         3        12        18        49     9        0.000000        0.075226         3    ;  uncertainty k = 0.083174
         3        12        18        49     9      180.000000        0.277163         4    ;  uncertainty k = 0.108504
         4         3         2         5     9        0.000000       -2.091580         1    ;  uncertainty k = 1.801561
         4         3         2         5     9      180.000000        3.285621         2    ;  uncertainty k = 0.513993
         4         3         2         5     9        0.000000        1.218524         3    ;  uncertainty k = 0.553743
         4         3         2         5     9      180.000000        0.285244         4    ;  uncertainty k = 0.192247
         4         3         2        40     9        0.000000       -3.581681         1    ;  uncertainty k = 1.440547
         4         3         2        40     9      180.000000        3.132608         2    ;  uncertainty k = 0.659426
         4         3         2        40     9        0.000000        0.973440         3    ;  uncertainty k = 0.307178
         4         3         2        40     9      180.000000        0.100679         4    ;  uncertainty k = 0.135791
         4         3        12        13     9        0.000000        7.134874         1    ;  uncertainty k = 1.458066
         4         3        12        13     9      180.000000       20.889886         2    ;  uncertainty k = 0.435310
         4         3        12        13     9        0.000000        0.071505         3    ;  uncertainty k = 0.502200
         4         3        12        13     9      180.000000       -1.082059         4    ;  uncertainty k = 0.482157
         4         3        12        18     9        0.000000        5.815607         1    ;  uncertainty k = 1.176556
         4         3        12        18     9      180.000000       20.669128         2    ;  uncertainty k = 0.272650
         4         3        12        18     9        0.000000        0.370358         3    ;  uncertainty k = 0.342314
         4         3        12        18     9      180.000000       -0.935014         4    ;  uncertainty k = 0.258661
         5         2         1        37     9        0.000000        0.257469         1    ;  uncertainty k = 1.035385
         5         2         1        37     9      180.000000       -0.098408         2    ;  uncertainty k = 0.619417
         5         2         1        37     9        0.000000        0.809534         3    ;  uncertainty k = 0.139210
         5         2         1        37     9      180.000000       -0.036122         4    ;  uncertainty k = 0.104784
         5         2         1        38     9        0.000000        0.257469         1    ;  uncertainty k = 1.035385
         5         2         1        38     9      180.000000       -0.098408         2    ;  uncertainty k = 0.619417
         5         2         1        38     9        0.000000        0.809534         3    ;  uncertainty k = 0.139210
         5         2         1        38     9      180.000000       -0.036122         4    ;  uncertainty k = 0.104784
         5         2         1        39     9        0.000000        0.257469         1    ;  uncertainty k = 1.035385
         5         2         1        39     9      180.000000       -0.098408         2    ;  uncertainty k = 0.619417
         5         2         1        39     9        0.000000        0.809534         3    ;  uncertainty k = 0.139210
         5         2         1        39     9      180.000000       -0.036122         4    ;  uncertainty k = 0.104784
         5         2         3        12     9        0.000000       -2.964156         1    ;  uncertainty k = 1.093063
         5         2         3        12     9      180.000000        2.430549         2    ;  uncertainty k = 0.919534
         5         2         3        12     9        0.000000        0.334316         3    ;  uncertainty k = 0.264413
         5         2         3        12     9      180.000000        0.056208         4    ;  uncertainty k = 0.064324
         5         6         7         9     9        0.000000        0.189008         1    ;  uncertainty k = 0.267760
         5         6         7         9     9      180.000000        9.709953         2    ;  uncertainty k = 0.562187
         5         6         7         9     9        0.000000        1.364607         3    ;  uncertainty k = 0.379079
         5         6         7         9     9      180.000000        1.730698         4    ;  uncertainty k = 0.238239
         5         6         7        36     9        0.000000       -0.111711         1    ;  uncertainty k = 0.258803
         5         6         7        36     9      180.000000        7.643073         2    ;  uncertainty k = 0.420096
         5         6         7        36     9        0.000000        0.726597         3    ;  uncertainty k = 0.381013
         5         6         7        36     9      180.000000        1.043876         4    ;  uncertainty k = 0.337907
         5         6         8        10     9        0.000000        0.189008         1    ;  uncertainty k = 0.267760
         5         6         8        10     9      180.000000        9.709953         2    ;  uncertainty k = 0.562187
         5         6         8        10     9        0.000000        1.364607         3    ;  uncertainty k = 0.379079
         5         6         8        10     9      180.000000        1.730698         4    ;  uncertainty k = 0.238239
         5         6         8        32     9        0.000000       -0.111711         1    ;  uncertainty k = 0.258803
         5         6         8        32     9      180.000000        7.643073         2    ;  uncertainty k = 0.420096
         5         6         8        32     9        0.000000        0.726597         3    ;  uncertainty k = 0.381013
         5         6         8        32     9      180.000000        1.043876         4    ;  uncertainty k = 0.337907
         6         5         2        40     9        0.000000        0.680630         1    ;  uncertainty k = 0.526185
         6         5         2        40     9      180.000000        0.274264         2    ;  uncertainty k = 0.235246
         6         5         2        40     9        0.000000        1.009865         3    ;  uncertainty k = 0.194003
         6         5         2        40     9      180.000000       -0.009027         4    ;  uncertainty k = 0.108785
         6         7         9        11     9        0.000000       -0.056312         1    ;  uncertainty k = 0.220611
         6         7         9        11     9      180.000000       13.920268         2    ;  uncertainty k = 0.429547
         6         7         9        11     9        0.000000       -0.891985         3    ;  uncertainty k = 0.426334
         6         7         9        11     9      180.000000        0.722502         4    ;  uncertainty k = 0.225054
         6         7         9        34     9        0.000000       -0.011739         1    ;  uncertainty k = 0.099701
         6         7         9        34     9      180.000000        7.580376         2    ;  uncertainty k = 0.413757
         6         7         9        34     9        0.000000        1.455706         3    ;  uncertainty k = 0.268514
         6         7         9        34     9      180.000000        1.751126         4    ;  uncertainty k = 0.085394
         6         8        10        11     9        0.000000       -0.056312         1    ;  uncertainty k = 0.220611
         6         8        10        11     9      180.000000       13.920268         2    ;  uncertainty k = 0.429547
         6         8        10        11     9        0.000000       -0.891985         3    ;  uncertainty k = 0.426334
         6         8        10        11     9      180.000000        0.722502         4    ;  uncertainty k = 0.225054
         6         8        10        33     9        0.000000       -0.011739         1    ;  uncertainty k = 0.099701
         6         8        10        33     9      180.000000        7.580376         2    ;  uncertainty k = 0.413757
         6         8        10        33     9        0.000000        1.455706         3    ;  uncertainty k = 0.268514
         6         8        10        33     9      180.000000        1.751126         4    ;  uncertainty k = 0.085394
         7         6         5        41     9        0.000000       -0.231624         1    ;  uncertainty k = 0.171472
         7         6         5        41     9      180.000000        1.709932         2    ;  uncertainty k = 0.250888
         7         6         5        41     9        0.000000        0.426007         3    ;  uncertainty k = 0.097455
         7         6         5        41     9      180.000000        0.170665         4    ;  uncertainty k = 0.039251
         7         6         5        42     9        0.000000       -0.231624         1    ;  uncertainty k = 0.171472
         7         6         5        42     9      180.000000        1.709932         2    ;  uncertainty k = 0.250888
         7         6         5        42     9        0.000000        0.426007         3    ;  uncertainty k = 0.097455
         7         6         5        42     9      180.000000        0.170665         4    ;  uncertainty k = 0.039251
         7         6         8        10     9        0.000000       -0.184770         1    ;  uncertainty k = 0.196506
         7         6         8        10     9      180.000000       12.729212         2    ;  uncertainty k = 0.349385
         7         6         8        10     9        0.000000       -0.707095         3    ;  uncertainty k = 0.377914
         7         6         8        10     9      180.000000        0.674302         4    ;  uncertainty k = 0.412311
         7         6         8        32     9        0.000000        0.079141         1    ;  uncertainty k = 0.325245
         7         6         8        32     9      180.000000        7.608414         2    ;  uncertainty k = 0.593107
         7         6         8        32     9        0.000000        1.393170         3    ;  uncertainty k = 0.260644
         7         6         8        32     9      180.000000        1.619583         4    ;  uncertainty k = 0.125831
         7         9        11        10     9        0.000000        0.015551         1    ;  uncertainty k = 0.044340
         7         9        11        10     9      180.000000       15.072880         2    ;  uncertainty k = 0.287882
         7         9        11        10     9        0.000000       -1.226362         3    ;  uncertainty k = 0.468047
         7         9        11        10     9      180.000000        0.510388         4    ;  uncertainty k = 0.285677
         7         9        11        35     9        0.000000        0.025126         1    ;  uncertainty k = 0.103621
         7         9        11        35     9      180.000000        7.435124         2    ;  uncertainty k = 0.310467
         7         9        11        35     9        0.000000        1.490641         3    ;  uncertainty k = 0.292416
         7         9        11        35     9      180.000000        1.803583         4    ;  uncertainty k = 0.204543
         8         6         5        41     9        0.000000       -0.231624         1    ;  uncertainty k = 0.171472
         8         6         5        41     9      180.000000        1.709932         2    ;  uncertainty k = 0.250888
         8         6         5        41     9        0.000000        0.426007         3    ;  uncertainty k = 0.097455
         8         6         5        41     9      180.000000        0.170665         4    ;  uncertainty k = 0.039251
         8         6         5        42     9        0.000000       -0.231624         1    ;  uncertainty k = 0.171472
         8         6         5        42     9      180.000000        1.709932         2    ;  uncertainty k = 0.250888
         8         6         5        42     9        0.000000        0.426007         3    ;  uncertainty k = 0.097455
         8         6         5        42     9      180.000000        0.170665         4    ;  uncertainty k = 0.039251
         8         6         7         9     9        0.000000       -0.184770         1    ;  uncertainty k = 0.196506
         8         6         7         9     9      180.000000       12.729212         2    ;  uncertainty k = 0.349385
         8         6         7         9     9        0.000000       -0.707095         3    ;  uncertainty k = 0.377914
         8         6         7         9     9      180.000000        0.674302         4    ;  uncertainty k = 0.412311
         8         6         7        36     9        0.000000        0.079141         1    ;  uncertainty k = 0.325245
         8         6         7        36     9      180.000000        7.608414         2    ;  uncertainty k = 0.593107
         8         6         7        36     9        0.000000        1.393170         3    ;  uncertainty k = 0.260644
         8         6         7        36     9      180.000000        1.619583         4    ;  uncertainty k = 0.125831
         8        10        11         9     9        0.000000        0.015551         1    ;  uncertainty k = 0.044340
         8        10        11         9     9      180.000000       15.072880         2    ;  uncertainty k = 0.287882
         8        10        11         9     9        0.000000       -1.226362         3    ;  uncertainty k = 0.468047
         8        10        11         9     9      180.000000        0.510388         4    ;  uncertainty k = 0.285677
         8        10        11        35     9        0.000000        0.025126         1    ;  uncertainty k = 0.103621
         8        10        11        35     9      180.000000        7.435124         2    ;  uncertainty k = 0.310467
         8        10        11        35     9        0.000000        1.490641         3    ;  uncertainty k = 0.292416
         8        10        11        35     9      180.000000        1.803583         4    ;  uncertainty k = 0.204543
         9        11        10        33     9        0.000000        0.061790         1    ;  uncertainty k = 0.040367
         9        11        10        33     9      180.000000        7.533638         2    ;  uncertainty k = 0.335058
         9        11        10        33     9        0.000000        1.445862         3    ;  uncertainty k = 0.325060
         9        11        10        33     9      180.000000        1.795809         4    ;  uncertainty k = 0.164033
        10        11         9        34     9        0.000000        0.061790         1    ;  uncertainty k = 0.040367
        10        11         9        34     9      180.000000        7.533638         2    ;  uncertainty k = 0.335058
        10        11         9        34     9        0.000000        1.445862         3    ;  uncertainty k = 0.325060
        10        11         9        34     9      180.000000        1.795809         4    ;  uncertainty k = 0.164033
        11         9         7        36     9        0.000000        0.038027         1    ;  uncertainty k = 0.047983
        11         9         7        36     9      180.000000        8.018719         2    ;  uncertainty k = 0.347750
        11         9         7        36     9        0.000000        1.426490         3    ;  uncertainty k = 0.299400
        11         9         7        36     9      180.000000        1.826770         4    ;  uncertainty k = 0.127277
        11        10         8        32     9        0.000000        0.038027         1    ;  uncertainty k = 0.047983
        11        10         8        32     9      180.000000        8.018719         2    ;  uncertainty k = 0.347750
        11        10         8        32     9        0.000000        1.426490         3    ;  uncertainty k = 0.299400
        11        10         8        32     9      180.000000        1.826770         4    ;  uncertainty k = 0.127277
        12         3         2        40     9        0.000000       -0.080882         1    ;  uncertainty k = 1.675321
        12         3         2        40     9      180.000000        2.186426         2    ;  uncertainty k = 0.295262
        12         3         2        40     9        0.000000        0.171990         3    ;  uncertainty k = 0.439721
        12         3         2        40     9      180.000000        0.088403         4    ;  uncertainty k = 0.160418
        12        13        14        15     9        0.000000        1.295431         1    ;  uncertainty k = 2.898334
        12        13        14        15     9      180.000000        5.906167         2    ;  uncertainty k = 0.379987
        12        13        14        15     9        0.000000        1.441054         3    ;  uncertainty k = 0.285282
        12        13        14        15     9      180.000000        0.475504         4    ;  uncertainty k = 0.148894
        12        13        14        19     9        0.000000        2.460756         1    ;  uncertainty k = 0.518160
        12        13        14        19     9      180.000000        3.385633         2    ;  uncertainty k = 0.065994
        12        13        14        19     9        0.000000        0.620029         3    ;  uncertainty k = 0.200787
        12        13        14        19     9      180.000000        0.259083         4    ;  uncertainty k = 0.072883
        12        13        16        17     9        0.000000       -0.894306         1    ;  uncertainty k = 0.893811
        12        13        16        17     9      180.000000        1.428397         2    ;  uncertainty k = 1.394731
        12        13        16        17     9        0.000000        1.172412         3    ;  uncertainty k = 0.530620
        12        13        16        17     9      180.000000       -1.534881         4    ;  uncertainty k = 0.660249
        12        13        16        44     9        0.000000       -1.252037         1    ;  uncertainty k = 0.554485
        12        13        16        44     9      180.000000        0.181213         2    ;  uncertainty k = 0.452579
        12        13        16        44     9        0.000000        1.256105         3    ;  uncertainty k = 0.274911
        12        13        16        44     9      180.000000        0.061636         4    ;  uncertainty k = 0.024683
        12        13        16        45     9        0.000000       -1.252037         1    ;  uncertainty k = 0.554485
        12        13        16        45     9      180.000000        0.181213         2    ;  uncertainty k = 0.452579
        12        13        16        45     9        0.000000        1.256105         3    ;  uncertainty k = 0.274911
        12        13        16        45     9      180.000000        0.061636         4    ;  uncertainty k = 0.024683
        12        18        17        16     9        0.000000       -1.929645         1    ;  uncertainty k = 1.032871
        12        18        17        16     9      180.000000        3.460818         2    ;  uncertainty k = 1.547367
        12        18        17        16     9        0.000000        0.845089         3    ;  uncertainty k = 0.413125
        12        18        17        16     9      180.000000       -2.134713         4    ;  uncertainty k = 0.756186
        12        18        17        46     9        0.000000       -1.263334         1    ;  uncertainty k = 0.539081
        12        18        17        46     9      180.000000       -0.145701         2    ;  uncertainty k = 0.162362
        12        18        17        46     9        0.000000        1.199217         3    ;  uncertainty k = 0.151655
        12        18        17        46     9      180.000000        0.116179         4    ;  uncertainty k = 0.133669
        12        18        17        47     9        0.000000       -1.263334         1    ;  uncertainty k = 0.539081
        12        18        17        47     9      180.000000       -0.145701         2    ;  uncertainty k = 0.162362
        12        18        17        47     9        0.000000        1.199217         3    ;  uncertainty k = 0.151655
        12        18        17        47     9      180.000000        0.116179         4    ;  uncertainty k = 0.133669
        13        12        18        17     9        0.000000       -1.218194         1    ;  uncertainty k = 0.946659
        13        12        18        17     9      180.000000        1.494270         2    ;  uncertainty k = 0.879336
        13        12        18        17     9        0.000000        0.792452         3    ;  uncertainty k = 0.312463
        13        12        18        17     9      180.000000        0.217092         4    ;  uncertainty k = 0.218741
        13        12        18        48     9        0.000000       -2.197860         1    ;  uncertainty k = 0.585119
        13        12        18        48     9      180.000000        1.437841         2    ;  uncertainty k = 0.301971
        13        12        18        48     9        0.000000        1.315676         3    ;  uncertainty k = 0.201794
        13        12        18        48     9      180.000000        0.356520         4    ;  uncertainty k = 0.049916
        13        12        18        49     9        0.000000       -2.197860         1    ;  uncertainty k = 0.585119
        13        12        18        49     9      180.000000        1.437841         2    ;  uncertainty k = 0.301971
        13        12        18        49     9        0.000000        1.315676         3    ;  uncertainty k = 0.201794
        13        12        18        49     9      180.000000        0.356520         4    ;  uncertainty k = 0.049916
        13        14        19        20     9        0.000000       10.229849         1    ;  uncertainty k = 0.470762
        13        14        19        20     9      180.000000        7.745939         2    ;  uncertainty k = 0.361895
        13        14        19        20     9        0.000000        2.042631         3    ;  uncertainty k = 0.287924
        13        14        19        20     9      180.000000        0.375826         4    ;  uncertainty k = 0.316220
        13        14        19        50     9        0.000000        1.932580         1    ;  uncertainty k = 1.225645
        13        14        19        50     9      180.000000        6.887268         2    ;  uncertainty k = 0.372710
        13        14        19        50     9        0.000000        1.521972         3    ;  uncertainty k = 0.518875
        13        14        19        50     9      180.000000        0.112487         4    ;  uncertainty k = 0.381797
        13        16        17        18     9        0.000000       -1.407672         1    ;  uncertainty k = 1.682004
        13        16        17        18     9      180.000000       10.748334         2    ;  uncertainty k = 0.371862
        13        16        17        18     9        0.000000        0.020580         3    ;  uncertainty k = 0.443934
        13        16        17        18     9      180.000000       -3.045669         4    ;  uncertainty k = 0.308082
        13        16        17        46     9        0.000000       -0.775772         1    ;  uncertainty k = 0.218802
        13        16        17        46     9      180.000000       -0.731454         2    ;  uncertainty k = 0.331875
        13        16        17        46     9        0.000000        0.426465         3    ;  uncertainty k = 0.201415
        13        16        17        46     9      180.000000        0.199405         4    ;  uncertainty k = 0.072296
        13        16        17        47     9        0.000000       -0.775772         1    ;  uncertainty k = 0.218802
        13        16        17        47     9      180.000000       -0.731454         2    ;  uncertainty k = 0.331875
        13        16        17        47     9        0.000000        0.426465         3    ;  uncertainty k = 0.201415
        13        16        17        47     9      180.000000        0.199405         4    ;  uncertainty k = 0.072296
        14        13        12        18     9        0.000000       -1.322937         1    ;  uncertainty k = 2.151621
        14        13        12        18     9      180.000000       -0.215454         2    ;  uncertainty k = 0.980253
        14        13        12        18     9        0.000000        1.078947         3    ;  uncertainty k = 0.478882
        14        13        12        18     9      180.000000        0.146908         4    ;  uncertainty k = 0.161972
        14        13        16        17     9        0.000000       -2.763845         1    ;  uncertainty k = 1.520971
        14        13        16        17     9      180.000000        0.938281         2    ;  uncertainty k = 0.912310
        14        13        16        17     9        0.000000        0.737174         3    ;  uncertainty k = 0.178577
        14        13        16        17     9      180.000000       -0.167811         4    ;  uncertainty k = 0.188166
        14        13        16        44     9        0.000000        1.047959         1    ;  uncertainty k = 0.750710
        14        13        16        44     9      180.000000       -0.005194         2    ;  uncertainty k = 0.252021
        14        13        16        44     9        0.000000        0.540013         3    ;  uncertainty k = 0.118777
        14        13        16        44     9      180.000000        0.056230         4    ;  uncertainty k = 0.061945
        14        13        16        45     9        0.000000        1.047959         1    ;  uncertainty k = 0.750710
        14        13        16        45     9      180.000000       -0.005194         2    ;  uncertainty k = 0.252021
        14        13        16        45     9        0.000000        0.540013         3    ;  uncertainty k = 0.118777
        14        13        16        45     9      180.000000        0.056230         4    ;  uncertainty k = 0.061945
        14        19        20        21     9        0.000000       -0.360378         1    ;  uncertainty k = 0.087183
        14        19        20        21     9      180.000000        0.056922         2    ;  uncertainty k = 0.298850
        14        19        20        21     9        0.000000       -0.006888         3    ;  uncertainty k = 0.102800
        14        19        20        21     9      180.000000        0.354303         4    ;  uncertainty k = 0.119875
        14        19        20        51     9        0.000000        0.874479         1    ;  uncertainty k = 0.468057
        14        19        20        51     9      180.000000       -0.325846         2    ;  uncertainty k = 0.204108
        14        19        20        51     9        0.000000        0.291812         3    ;  uncertainty k = 0.122551
        14        19        20        51     9      180.000000        0.270162         4    ;  uncertainty k = 0.052902
        14        19        20        52     9        0.000000        0.874479         1    ;  uncertainty k = 0.468057
        14        19        20        52     9      180.000000       -0.325846         2    ;  uncertainty k = 0.204108
        14        19        20        52     9        0.000000        0.291812         3    ;  uncertainty k = 0.122551
        14        19        20        52     9      180.000000        0.270162         4    ;  uncertainty k = 0.052902
        15        14        13        16     9        0.000000       -3.595466         1    ;  uncertainty k = 0.840319
        15        14        13        16     9      180.000000        3.414170         2    ;  uncertainty k = 0.442288
        15        14        13        16     9        0.000000        1.003457         3    ;  uncertainty k = 0.136195
        15        14        13        16     9      180.000000        0.496992         4    ;  uncertainty k = 0.066238
        15        14        13        43     9        0.000000       -0.462056         1    ;  uncertainty k = 0.773476
        15        14        13        43     9      180.000000        3.631112         2    ;  uncertainty k = 0.282045
        15        14        13        43     9        0.000000        0.546920         3    ;  uncertainty k = 0.250507
        15        14        13        43     9      180.000000        0.124321         4    ;  uncertainty k = 0.116115
        15        14        19        20     9        0.000000        5.443761         1    ;  uncertainty k = 0.917217
        15        14        19        20     9      180.000000       17.023261         2    ;  uncertainty k = 0.223141
        15        14        19        20     9        0.000000        0.284024         3    ;  uncertainty k = 0.249848
        15        14        19        20     9      180.000000       -0.439780         4    ;  uncertainty k = 0.275999
        15        14        19        50     9        0.000000        3.051307         1    ;  uncertainty k = 0.750937
        15        14        19        50     9      180.000000       16.927947         2    ;  uncertainty k = 0.155434
        15        14        19        50     9        0.000000        1.588139         3    ;  uncertainty k = 0.227813
        15        14        19        50     9      180.000000       -0.110398         4    ;  uncertainty k = 0.145007
        16        13        12        18     9        0.000000       -0.886418         1    ;  uncertainty k = 1.451647
        16        13        12        18     9      180.000000        3.315347         2    ;  uncertainty k = 1.006087
        16        13        12        18     9        0.000000        0.632933         3    ;  uncertainty k = 0.224438
        16        13        12        18     9      180.000000        0.144651         4    ;  uncertainty k = 0.343971
        16        13        14        19     9        0.000000       -1.611661         1    ;  uncertainty k = 0.572526
        16        13        14        19     9      180.000000        1.365700         2    ;  uncertainty k = 0.430660
        16        13        14        19     9        0.000000        0.701185         3    ;  uncertainty k = 0.198208
        16        13        14        19     9      180.000000        0.287723         4    ;  uncertainty k = 0.056761
        16        17        18        48     9        0.000000       -0.275460         1    ;  uncertainty k = 0.373345
        16        17        18        48     9      180.000000       -1.152480         2    ;  uncertainty k = 0.432766
        16        17        18        48     9        0.000000        0.086044         3    ;  uncertainty k = 0.115727
        16        17        18        48     9      180.000000        0.044150         4    ;  uncertainty k = 0.075030
        16        17        18        49     9        0.000000       -0.275460         1    ;  uncertainty k = 0.373345
        16        17        18        49     9      180.000000       -1.152480         2    ;  uncertainty k = 0.432766
        16        17        18        49     9        0.000000        0.086044         3    ;  uncertainty k = 0.115727
        16        17        18        49     9      180.000000        0.044150         4    ;  uncertainty k = 0.075030
        17        16        13        43     9        0.000000       -0.840501         1    ;  uncertainty k = 0.303725
        17        16        13        43     9      180.000000       -0.254878         2    ;  uncertainty k = 0.477094
        17        16        13        43     9        0.000000        0.127234         3    ;  uncertainty k = 0.130546
        17        16        13        43     9      180.000000        0.000600         4    ;  uncertainty k = 0.042732
        18        12        13        43     9        0.000000       -0.994042         1    ;  uncertainty k = 0.833807
        18        12        13        43     9      180.000000        1.709168         2    ;  uncertainty k = 1.049371
        18        12        13        43     9        0.000000        0.804526         3    ;  uncertainty k = 0.319774
        18        12        13        43     9      180.000000        0.303080         4    ;  uncertainty k = 0.068045
        18        17        16        44     9        0.000000       -1.435813         1    ;  uncertainty k = 0.362083
        18        17        16        44     9      180.000000       -0.339245         2    ;  uncertainty k = 0.308496
        18        17        16        44     9        0.000000        0.606388         3    ;  uncertainty k = 0.118688
        18        17        16        44     9      180.000000        0.168691         4    ;  uncertainty k = 0.086944
        18        17        16        45     9        0.000000       -1.435813         1    ;  uncertainty k = 0.362083
        18        17        16        45     9      180.000000       -0.339245         2    ;  uncertainty k = 0.308496
        18        17        16        45     9        0.000000        0.606388         3    ;  uncertainty k = 0.118688
        18        17        16        45     9      180.000000        0.168691         4    ;  uncertainty k = 0.086944
        19        14        13        43     9        0.000000       -2.099182         1    ;  uncertainty k = 0.496017
        19        14        13        43     9      180.000000        2.172822         2    ;  uncertainty k = 0.311044
        19        14        13        43     9        0.000000        0.637559         3    ;  uncertainty k = 0.116162
        19        14        13        43     9      180.000000        0.068391         4    ;  uncertainty k = 0.106754
        19        20        21        22     9        0.000000       -0.357509         1    ;  uncertainty k = 0.456992
        19        20        21        22     9      180.000000        2.847981         2    ;  uncertainty k = 0.141577
        19        20        21        22     9        0.000000        0.651878         3    ;  uncertainty k = 0.184485
        19        20        21        22     9      180.000000        0.415773         4    ;  uncertainty k = 0.049261
        19        20        21        26     9        0.000000       -0.300295         1    ;  uncertainty k = 0.417621
        19        20        21        26     9      180.000000        2.796893         2    ;  uncertainty k = 0.099488
        19        20        21        26     9        0.000000        0.620869         3    ;  uncertainty k = 0.192174
        19        20        21        26     9      180.000000        0.420286         4    ;  uncertainty k = 0.040015
        20        21        22        23     9        0.000000        0.129117         1    ;  uncertainty k = 0.370226
        20        21        22        23     9      180.000000        9.018231         2    ;  uncertainty k = 0.463302
        20        21        22        23     9        0.000000        1.294781         3    ;  uncertainty k = 0.240998
        20        21        22        23     9      180.000000        1.751618         4    ;  uncertainty k = 0.178702
        20        21        22        27     9        0.000000       -0.058381         1    ;  uncertainty k = 0.175667
        20        21        22        27     9      180.000000        7.534711         2    ;  uncertainty k = 0.158205
        20        21        22        27     9        0.000000        0.569597         3    ;  uncertainty k = 0.313652
        20        21        22        27     9      180.000000        1.051824         4    ;  uncertainty k = 0.163739
        20        21        26        25     9        0.000000        0.229278         1    ;  uncertainty k = 0.285843
        20        21        26        25     9      180.000000        9.338158         2    ;  uncertainty k = 0.532622
        20        21        26        25     9        0.000000        1.232505         3    ;  uncertainty k = 0.269438
        20        21        26        25     9      180.000000        1.782350         4    ;  uncertainty k = 0.185576
        20        21        26        31     9        0.000000       -0.038252         1    ;  uncertainty k = 0.231903
        20        21        26        31     9      180.000000        7.338810         2    ;  uncertainty k = 0.126331
        20        21        26        31     9        0.000000        0.548868         3    ;  uncertainty k = 0.325835
        20        21        26        31     9      180.000000        1.009392         4    ;  uncertainty k = 0.154118
        21        20        19        50     9        0.000000        1.833190         1    ;  uncertainty k = 0.602940
        21        20        19        50     9      180.000000       -1.370960         2    ;  uncertainty k = 0.422411
        21        20        19        50     9        0.000000        0.441463         3    ;  uncertainty k = 0.123846
        21        20        19        50     9      180.000000       -0.079086         4    ;  uncertainty k = 0.114444
        21        22        23        24     9        0.000000       -0.156134         1    ;  uncertainty k = 0.209455
        21        22        23        24     9      180.000000       10.871735         2    ;  uncertainty k = 0.361395
        21        22        23        24     9        0.000000       -0.292979         3    ;  uncertainty k = 0.317988
        21        22        23        24     9      180.000000        0.943260         4    ;  uncertainty k = 0.416481
        21        22        23        28     9        0.000000        0.110411         1    ;  uncertainty k = 0.200912
        21        22        23        28     9      180.000000        9.227569         2    ;  uncertainty k = 0.426566
        21        22        23        28     9        0.000000        1.426248         3    ;  uncertainty k = 0.289137
        21        22        23        28     9      180.000000        1.768671         4    ;  uncertainty k = 0.181143
        21        26        25        24     9        0.000000       -0.068962         1    ;  uncertainty k = 0.026375
        21        26        25        24     9      180.000000       13.960210         2    ;  uncertainty k = 0.221229
        21        26        25        24     9        0.000000       -1.087633         3    ;  uncertainty k = 0.404765
        21        26        25        24     9      180.000000        0.675844         4    ;  uncertainty k = 0.252023
        21        26        25        30     9        0.000000       -0.000471         1    ;  uncertainty k = 0.188715
        21        26        25        30     9      180.000000        7.395217         2    ;  uncertainty k = 0.390776
        21        26        25        30     9        0.000000        1.414065         3    ;  uncertainty k = 0.217113
        21        26        25        30     9      180.000000        1.758720         4    ;  uncertainty k = 0.136050
        22        21        20        51     9        0.000000       -0.174141         1    ;  uncertainty k = 0.259594
        22        21        20        51     9      180.000000        2.041217         2    ;  uncertainty k = 0.098871
        22        21        20        51     9        0.000000        0.490970         3    ;  uncertainty k = 0.046393
        22        21        20        51     9      180.000000        0.171537         4    ;  uncertainty k = 0.055863
        22        21        20        52     9        0.000000       -0.174141         1    ;  uncertainty k = 0.259594
        22        21        20        52     9      180.000000        2.041217         2    ;  uncertainty k = 0.098871
        22        21        20        52     9        0.000000        0.490970         3    ;  uncertainty k = 0.046393
        22        21        20        52     9      180.000000        0.171537         4    ;  uncertainty k = 0.055863
        22        21        26        25     9        0.000000       -0.179442         1    ;  uncertainty k = 0.132074
        22        21        26        25     9      180.000000       12.039071         2    ;  uncertainty k = 0.410003
        22        21        26        25     9        0.000000       -0.632349         3    ;  uncertainty k = 0.411513
        22        21        26        25     9      180.000000        0.749892         4    ;  uncertainty k = 0.452755
        22        21        26        31     9        0.000000        0.172043         1    ;  uncertainty k = 0.189444
        22        21        26        31     9      180.000000        7.197082         2    ;  uncertainty k = 0.639686
        22        21        26        31     9        0.000000        1.414430         3    ;  uncertainty k = 0.267342
        22        21        26        31     9      180.000000        1.651620         4    ;  uncertainty k = 0.153794
        22        23        24        25     9        0.000000       -0.179324         1    ;  uncertainty k = 0.134468
        22        23        24        25     9      180.000000       11.830263         2    ;  uncertainty k = 0.356819
        22        23        24        25     9        0.000000       -0.476790         3    ;  uncertainty k = 0.341759
        22        23        24        25     9      180.000000        0.759507         4    ;  uncertainty k = 0.414504
        22        23        24        29     9        0.000000        0.091916         1    ;  uncertainty k = 0.221941
        22        23        24        29     9      180.000000        7.060633         2    ;  uncertainty k = 0.530091
        22        23        24        29     9        0.000000        1.418645         3    ;  uncertainty k = 0.336842
        22        23        24        29     9      180.000000        1.627360         4    ;  uncertainty k = 0.114748
        22        23        28        53     9        0.000000       -0.499783         1    ;  uncertainty k = 0.498068
        22        23        28        53     9      180.000000        1.966302         2    ;  uncertainty k = 0.248298
        22        23        28        53     9        0.000000        0.478176         3    ;  uncertainty k = 0.113325
        22        23        28        53     9      180.000000        0.420859         4    ;  uncertainty k = 0.040986
        22        23        28        54     9        0.000000        0.128344         1    ;  uncertainty k = 0.317584
        22        23        28        54     9      180.000000        1.706700         2    ;  uncertainty k = 0.157445
        22        23        28        54     9        0.000000        0.423321         3    ;  uncertainty k = 0.070898
        22        23        28        54     9      180.000000        0.205059         4    ;  uncertainty k = 0.030651
        22        23        28        55     9        0.000000        0.128344         1    ;  uncertainty k = 0.317584
        22        23        28        55     9      180.000000        1.706700         2    ;  uncertainty k = 0.157445
        22        23        28        55     9        0.000000        0.423321         3    ;  uncertainty k = 0.070898
        22        23        28        55     9      180.000000        0.205059         4    ;  uncertainty k = 0.030651
        23        22        21        26     9        0.000000       -0.143565         1    ;  uncertainty k = 0.086698
        23        22        21        26     9      180.000000       11.053400         2    ;  uncertainty k = 0.358957
        23        22        21        26     9        0.000000       -0.283084         3    ;  uncertainty k = 0.305733
        23        22        21        26     9      180.000000        0.957709         4    ;  uncertainty k = 0.417705
        23        24        25        26     9        0.000000       -0.123699         1    ;  uncertainty k = 0.167435
        23        24        25        26     9      180.000000       13.891778         2    ;  uncertainty k = 0.234932
        23        24        25        26     9        0.000000       -0.970382         3    ;  uncertainty k = 0.452550
        23        24        25        26     9      180.000000        0.676097         4    ;  uncertainty k = 0.299232
        23        24        25        30     9        0.000000        0.053043         1    ;  uncertainty k = 0.134286
        23        24        25        30     9      180.000000        7.277863         2    ;  uncertainty k = 0.391766
        23        24        25        30     9        0.000000        1.459478         3    ;  uncertainty k = 0.231930
        23        24        25        30     9      180.000000        1.801321         4    ;  uncertainty k = 0.168408
        23        28        53        56     9        0.000000        0.014412         1    ;  uncertainty k = 0.134869
        23        28        53        56     9      180.000000       -0.404215         2    ;  uncertainty k = 0.363404
        23        28        53        56     9        0.000000        1.475209         3    ;  uncertainty k = 0.070266
        23        28        53        56     9      180.000000       -0.048993         4    ;  uncertainty k = 0.052436
        23        28        53        57     9        0.000000        0.014412         1    ;  uncertainty k = 0.134870
        23        28        53        57     9      180.000000       -0.404215         2    ;  uncertainty k = 0.363404
        23        28        53        57     9        0.000000        1.475209         3    ;  uncertainty k = 0.070266
        23        28        53        57     9      180.000000       -0.048993         4    ;  uncertainty k = 0.052436
        23        28        53        58     9        0.000000        0.014412         1    ;  uncertainty k = 0.134870
        23        28        53        58     9      180.000000       -0.404215         2    ;  uncertainty k = 0.363404
        23        28        53        58     9        0.000000        1.475209         3    ;  uncertainty k = 0.070266
        23        28        53        58     9      180.000000       -0.048993         4    ;  uncertainty k = 0.052436
        24        23        22        27     9        0.000000        0.121147         1    ;  uncertainty k = 0.127295
        24        23        22        27     9      180.000000        7.376838         2    ;  uncertainty k = 0.477386
        24        23        22        27     9        0.000000        1.442561         3    ;  uncertainty k = 0.337698
        24        23        22        27     9      180.000000        1.660878         4    ;  uncertainty k = 0.129629
        24        23        28        53     9        0.000000       -0.601930         1    ;  uncertainty k = 0.448359
        24        23        28        53     9      180.000000        1.911253         2    ;  uncertainty k = 0.191291
        24        23        28        53     9        0.000000        0.503759         3    ;  uncertainty k = 0.111856
        24        23        28        53     9      180.000000        0.425330         4    ;  uncertainty k = 0.017868
        24        23        28        54     9        0.000000        0.042969         1    ;  uncertainty k = 0.261366
        24        23        28        54     9      180.000000        1.698271         2    ;  uncertainty k = 0.202010
        24        23        28        54     9        0.000000        0.428613         3    ;  uncertainty k = 0.059707
        24        23        28        54     9      180.000000        0.191502         4    ;  uncertainty k = 0.022214
        24        23        28        55     9        0.000000        0.042969         1    ;  uncertainty k = 0.261366
        24        23        28        55     9      180.000000        1.698271         2    ;  uncertainty k = 0.202010
        24        23        28        55     9        0.000000        0.428613         3    ;  uncertainty k = 0.059707
        24        23        28        55     9      180.000000        0.191502         4    ;  uncertainty k = 0.022214
        24        25        26        31     9        0.000000        0.068038         1    ;  uncertainty k = 0.057699
        24        25        26        31     9      180.000000        7.681953         2    ;  uncertainty k = 0.378943
        24        25        26        31     9        0.000000        1.420548         3    ;  uncertainty k = 0.308920
        24        25        26        31     9      180.000000        1.815459         4    ;  uncertainty k = 0.190816
        25        24        23        28     9        0.000000        0.241208         1    ;  uncertainty k = 0.347913
        25        24        23        28     9      180.000000        9.350704         2    ;  uncertainty k = 0.422849
        25        24        23        28     9        0.000000        1.395709         3    ;  uncertainty k = 0.280466
        25        24        23        28     9      180.000000        1.810490         4    ;  uncertainty k = 0.181140
        26        21        20        51     9        0.000000       -0.359465         1    ;  uncertainty k = 0.250105
        26        21        20        51     9      180.000000        2.070222         2    ;  uncertainty k = 0.091733
        26        21        20        51     9        0.000000        0.474098         3    ;  uncertainty k = 0.022211
        26        21        20        51     9      180.000000        0.168132         4    ;  uncertainty k = 0.051329
        26        21        20        52     9        0.000000       -0.359465         1    ;  uncertainty k = 0.250105
        26        21        20        52     9      180.000000        2.070222         2    ;  uncertainty k = 0.091733
        26        21        20        52     9        0.000000        0.474098         3    ;  uncertainty k = 0.022211
        26        21        20        52     9      180.000000        0.168132         4    ;  uncertainty k = 0.051329
        26        21        22        27     9        0.000000        0.187632         1    ;  uncertainty k = 0.097028
        26        21        22        27     9      180.000000        7.496381         2    ;  uncertainty k = 0.530034
        26        21        22        27     9        0.000000        1.413114         3    ;  uncertainty k = 0.263823
        26        21        22        27     9      180.000000        1.661287         4    ;  uncertainty k = 0.146704
        26        25        24        29     9        0.000000        0.064237         1    ;  uncertainty k = 0.106088
        26        25        24        29     9      180.000000        7.713202         2    ;  uncertainty k = 0.339178
        26        25        24        29     9        0.000000        1.442372         3    ;  uncertainty k = 0.295586
        26        25        24        29     9      180.000000        1.819209         4    ;  uncertainty k = 0.197775
        27        22        23        28     9        0.000000       -0.179491         1    ;  uncertainty k = 0.244147
        27        22        23        28     9      180.000000        7.905664         2    ;  uncertainty k = 0.181497
        27        22        23        28     9        0.000000        0.623602         3    ;  uncertainty k = 0.282399
        27        22        23        28     9      180.000000        1.041708         4    ;  uncertainty k = 0.188993
        28        23        24        29     9        0.000000       -0.213653         1    ;  uncertainty k = 0.275540
        28        23        24        29     9      180.000000        7.820775         2    ;  uncertainty k = 0.228017
        28        23        24        29     9        0.000000        0.602243         3    ;  uncertainty k = 0.273735
        28        23        24        29     9      180.000000        0.977106         4    ;  uncertainty k = 0.176927
        29        24        25        30     9        0.000000       -0.048541         1    ;  uncertainty k = 0.060898
        29        24        25        30     9      180.000000        7.492421         2    ;  uncertainty k = 0.252127
        29        24        25        30     9        0.000000       -0.457828         3    ;  uncertainty k = 0.266328
        29        24        25        30     9      180.000000        0.092424         4    ;  uncertainty k = 0.107847
        30        25        26        31     9        0.000000       -0.069807         1    ;  uncertainty k = 0.142248
        30        25        26        31     9      180.000000        7.375792         2    ;  uncertainty k = 0.249936
        30        25        26        31     9        0.000000       -0.436940         3    ;  uncertainty k = 0.273841
        30        25        26        31     9      180.000000        0.114376         4    ;  uncertainty k = 0.109214
        32         8        10        33     9        0.000000       -0.016997         1    ;  uncertainty k = 0.094262
        32         8        10        33     9      180.000000        7.719595         2    ;  uncertainty k = 0.283398
        32         8        10        33     9        0.000000       -0.432066         3    ;  uncertainty k = 0.234120
        32         8        10        33     9      180.000000        0.115397         4    ;  uncertainty k = 0.122173
        33        10        11        35     9        0.000000       -0.006372         1    ;  uncertainty k = 0.088779
        33        10        11        35     9      180.000000        7.464231         2    ;  uncertainty k = 0.352345
        33        10        11        35     9        0.000000       -0.416733         3    ;  uncertainty k = 0.274619
        33        10        11        35     9      180.000000        0.051451         4    ;  uncertainty k = 0.138380
        34         9         7        36     9        0.000000       -0.016997         1    ;  uncertainty k = 0.094262
        34         9         7        36     9      180.000000        7.719595         2    ;  uncertainty k = 0.283398
        34         9         7        36     9        0.000000       -0.432066         3    ;  uncertainty k = 0.234120
        34         9         7        36     9      180.000000        0.115397         4    ;  uncertainty k = 0.122173
        34         9        11        35     9        0.000000       -0.006372         1    ;  uncertainty k = 0.088779
        34         9        11        35     9      180.000000        7.464231         2    ;  uncertainty k = 0.352345
        34         9        11        35     9        0.000000       -0.416733         3    ;  uncertainty k = 0.274619
        34         9        11        35     9      180.000000        0.051451         4    ;  uncertainty k = 0.138380
        37         1         2        40     9        0.000000        0.100610         1    ;  uncertainty k = 0.540180
        37         1         2        40     9      180.000000       -0.324825         2    ;  uncertainty k = 0.402334
        37         1         2        40     9        0.000000        0.291530         3    ;  uncertainty k = 0.018257
        37         1         2        40     9      180.000000        0.030305         4    ;  uncertainty k = 0.119402
        38         1         2        40     9        0.000000        0.100610         1    ;  uncertainty k = 0.540180
        38         1         2        40     9      180.000000       -0.324825         2    ;  uncertainty k = 0.402334
        38         1         2        40     9        0.000000        0.291530         3    ;  uncertainty k = 0.018257
        38         1         2        40     9      180.000000        0.030305         4    ;  uncertainty k = 0.119402
        39         1         2        40     9        0.000000        0.100610         1    ;  uncertainty k = 0.540180
        39         1         2        40     9      180.000000       -0.324825         2    ;  uncertainty k = 0.402334
        39         1         2        40     9        0.000000        0.291530         3    ;  uncertainty k = 0.018257
        39         1         2        40     9      180.000000        0.030305         4    ;  uncertainty k = 0.119402
        40         2         5        41     9        0.000000        0.165885         1    ;  uncertainty k = 0.305750
        40         2         5        41     9      180.000000       -0.286547         2    ;  uncertainty k = 0.184659
        40         2         5        41     9        0.000000        0.121008         3    ;  uncertainty k = 0.147363
        40         2         5        41     9      180.000000        0.029743         4    ;  uncertainty k = 0.121930
        40         2         5        42     9        0.000000        0.165885         1    ;  uncertainty k = 0.305750
        40         2         5        42     9      180.000000       -0.286547         2    ;  uncertainty k = 0.184659
        40         2         5        42     9        0.000000        0.121008         3    ;  uncertainty k = 0.147363
        40         2         5        42     9      180.000000        0.029743         4    ;  uncertainty k = 0.121930
        43        13        16        44     9        0.000000        0.509911         1    ;  uncertainty k = 0.672047
        43        13        16        44     9      180.000000       -0.642425         2    ;  uncertainty k = 0.180700
        43        13        16        44     9        0.000000        0.309200         3    ;  uncertainty k = 0.127210
        43        13        16        44     9      180.000000        0.005015         4    ;  uncertainty k = 0.037750
        43        13        16        45     9        0.000000        0.509911         1    ;  uncertainty k = 0.672047
        43        13        16        45     9      180.000000       -0.642425         2    ;  uncertainty k = 0.180700
        43        13        16        45     9        0.000000        0.309200         3    ;  uncertainty k = 0.127210
        43        13        16        45     9      180.000000        0.005015         4    ;  uncertainty k = 0.037750
        44        16        17        46     9        0.000000        1.560403         1    ;  uncertainty k = 0.401862
        44        16        17        46     9      180.000000       -0.083465         2    ;  uncertainty k = 0.173949
        44        16        17        46     9        0.000000        0.762937         3    ;  uncertainty k = 0.121219
        44        16        17        46     9      180.000000        0.017215         4    ;  uncertainty k = 0.044110
        44        16        17        47     9        0.000000        1.560403         1    ;  uncertainty k = 0.401862
        44        16        17        47     9      180.000000       -0.083465         2    ;  uncertainty k = 0.173949
        44        16        17        47     9        0.000000        0.762937         3    ;  uncertainty k = 0.121219
        44        16        17        47     9      180.000000        0.017215         4    ;  uncertainty k = 0.044110
        45        16        17        46     9        0.000000        1.560403         1    ;  uncertainty k = 0.401862
        45        16        17        46     9      180.000000       -0.083465         2    ;  uncertainty k = 0.173949
        45        16        17        46     9        0.000000        0.762937         3    ;  uncertainty k = 0.121219
        45        16        17        46     9      180.000000        0.017215         4    ;  uncertainty k = 0.044110
        45        16        17        47     9        0.000000        1.560403         1    ;  uncertainty k = 0.401862
        45        16        17        47     9      180.000000       -0.083465         2    ;  uncertainty k = 0.173949
        45        16        17        47     9        0.000000        0.762937         3    ;  uncertainty k = 0.121219
        45        16        17        47     9      180.000000        0.017215         4    ;  uncertainty k = 0.044110
        46        17        18        48     9        0.000000        0.822630         1    ;  uncertainty k = 0.312507
        46        17        18        48     9      180.000000       -0.203104         2    ;  uncertainty k = 0.173309
        46        17        18        48     9        0.000000        0.483280         3    ;  uncertainty k = 0.114155
        46        17        18        48     9      180.000000        0.011800         4    ;  uncertainty k = 0.063446
        46        17        18        49     9        0.000000        0.822630         1    ;  uncertainty k = 0.312507
        46        17        18        49     9      180.000000       -0.203104         2    ;  uncertainty k = 0.173309
        46        17        18        49     9        0.000000        0.483280         3    ;  uncertainty k = 0.114155
        46        17        18        49     9      180.000000        0.011800         4    ;  uncertainty k = 0.063446
        47        17        18        48     9        0.000000        0.822630         1    ;  uncertainty k = 0.312507
        47        17        18        48     9      180.000000       -0.203104         2    ;  uncertainty k = 0.173309
        47        17        18        48     9        0.000000        0.483280         3    ;  uncertainty k = 0.114155
        47        17        18        48     9      180.000000        0.011800         4    ;  uncertainty k = 0.063446
        47        17        18        49     9        0.000000        0.822630         1    ;  uncertainty k = 0.312507
        47        17        18        49     9      180.000000       -0.203104         2    ;  uncertainty k = 0.173309
        47        17        18        49     9        0.000000        0.483280         3    ;  uncertainty k = 0.114155
        47        17        18        49     9      180.000000        0.011800         4    ;  uncertainty k = 0.063446
        50        19        20        51     9        0.000000        0.451064         1    ;  uncertainty k = 0.440504
        50        19        20        51     9      180.000000       -0.500510         2    ;  uncertainty k = 0.051250
        50        19        20        51     9        0.000000        0.351217         3    ;  uncertainty k = 0.059488
        50        19        20        51     9      180.000000        0.131125         4    ;  uncertainty k = 0.075926
        50        19        20        52     9        0.000000        0.451064         1    ;  uncertainty k = 0.440504
        50        19        20        52     9      180.000000       -0.500510         2    ;  uncertainty k = 0.051250
        50        19        20        52     9        0.000000        0.351217         3    ;  uncertainty k = 0.059488
        50        19        20        52     9      180.000000        0.131125         4    ;  uncertainty k = 0.075926
        54        28        53        56     9        0.000000        0.503998         1    ;  uncertainty k = 0.189247
        54        28        53        56     9      180.000000       -0.611291         2    ;  uncertainty k = 0.248145
        54        28        53        56     9        0.000000        0.712706         3    ;  uncertainty k = 0.035625
        54        28        53        56     9      180.000000        0.004418         4    ;  uncertainty k = 0.031165
        54        28        53        57     9        0.000000        0.503999         1    ;  uncertainty k = 0.189246
        54        28        53        57     9      180.000000       -0.611291         2    ;  uncertainty k = 0.248145
        54        28        53        57     9        0.000000        0.712706         3    ;  uncertainty k = 0.035625
        54        28        53        57     9      180.000000        0.004418         4    ;  uncertainty k = 0.031165
        54        28        53        58     9        0.000000        0.503999         1    ;  uncertainty k = 0.189246
        54        28        53        58     9      180.000000       -0.611291         2    ;  uncertainty k = 0.248145
        54        28        53        58     9        0.000000        0.712706         3    ;  uncertainty k = 0.035625
        54        28        53        58     9      180.000000        0.004418         4    ;  uncertainty k = 0.031165
        55        28        53        56     9        0.000000        0.503998         1    ;  uncertainty k = 0.189247
        55        28        53        56     9      180.000000       -0.611291         2    ;  uncertainty k = 0.248145
        55        28        53        56     9        0.000000        0.712706         3    ;  uncertainty k = 0.035625
        55        28        53        56     9      180.000000        0.004418         4    ;  uncertainty k = 0.031165
        55        28        53        57     9        0.000000        0.503999         1    ;  uncertainty k = 0.189246
        55        28        53        57     9      180.000000       -0.611291         2    ;  uncertainty k = 0.248145
        55        28        53        57     9        0.000000        0.712706         3    ;  uncertainty k = 0.035625
        55        28        53        57     9      180.000000        0.004418         4    ;  uncertainty k = 0.031165
        55        28        53        58     9        0.000000        0.503999         1    ;  uncertainty k = 0.189246
        55        28        53        58     9      180.000000       -0.611291         2    ;  uncertainty k = 0.248145
        55        28        53        58     9        0.000000        0.712706         3    ;  uncertainty k = 0.035625
        55        28        53        58     9      180.000000        0.004418         4    ;  uncertainty k = 0.031165

[ dihedrals ] ; impropers
;       ai        aj        ak        al funct           phase               k        pn
         3         2         4        12     4      180.000000       49.783366         2    ;  uncertainty k = 0.027500
         3         4        12         2     4      180.000000       49.783366         2    ;  uncertainty k = 0.027500
         3        12         2         4     4      180.000000       49.783366         2    ;  uncertainty k = 0.027500
         6         5         7         8     4      180.000000       10.754127         2    ;  uncertainty k = 0.151417
         6         7         8         5     4      180.000000       10.754127         2    ;  uncertainty k = 0.151417
         6         8         5         7     4      180.000000       10.754127         2    ;  uncertainty k = 0.151417
         7         6         9        36     4      180.000000        3.855665         2    ;  uncertainty k = 0.189968
         7         9        36         6     4      180.000000        3.855665         2    ;  uncertainty k = 0.189968
         7        36         6         9     4      180.000000        3.855665         2    ;  uncertainty k = 0.189968
         8         6        10        32     4      180.000000        3.855665         2    ;  uncertainty k = 0.189968
         8        10        32         6     4      180.000000        3.855665         2    ;  uncertainty k = 0.189968
         8        32         6        10     4      180.000000        3.855665         2    ;  uncertainty k = 0.189968
         9         7        11        34     4      180.000000        4.460718         2    ;  uncertainty k = 0.059202
         9        11        34         7     4      180.000000        4.460718         2    ;  uncertainty k = 0.059202
         9        34         7        11     4      180.000000        4.460718         2    ;  uncertainty k = 0.059202
        10         8        11        33     4      180.000000        4.460718         2    ;  uncertainty k = 0.059202
        10        11        33         8     4      180.000000        4.460718         2    ;  uncertainty k = 0.059202
        10        33         8        11     4      180.000000        4.460718         2    ;  uncertainty k = 0.059202
        11         9        10        35     4      180.000000        4.333637         2    ;  uncertainty k = 0.163022
        11        10        35         9     4      180.000000        4.333637         2    ;  uncertainty k = 0.163022
        11        35         9        10     4      180.000000        4.333637         2    ;  uncertainty k = 0.163022
        14        13        15        19     4      180.000000       51.114876         2    ;  uncertainty k = 0.043080
        14        15        19        13     4      180.000000       51.114876         2    ;  uncertainty k = 0.043080
        14        19        13        15     4      180.000000       51.114876         2    ;  uncertainty k = 0.043080
        19        14        20        50     4      180.000000        0.282650         2    ;  uncertainty k = 0.632025
        19        20        50        14     4      180.000000        0.282650         2    ;  uncertainty k = 0.632025
        19        50        14        20     4      180.000000        0.282650         2    ;  uncertainty k = 0.632025
        21        20        22        26     4      180.000000       12.283517         2    ;  uncertainty k = 0.060232
        21        22        26        20     4      180.000000       12.283517         2    ;  uncertainty k = 0.060232
        21        26        20        22     4      180.000000       12.283517         2    ;  uncertainty k = 0.060232
        22        21        23        27     4      180.000000        4.716651         2    ;  uncertainty k = 0.234382
        22        23        27        21     4      180.000000        4.716651         2    ;  uncertainty k = 0.234382
        22        27        21        23     4      180.000000        4.716651         2    ;  uncertainty k = 0.234382
        23        22        24        28     4      180.000000       14.478605         2    ;  uncertainty k = 0.060689
        23        24        28        22     4      180.000000       14.478605         2    ;  uncertainty k = 0.060689
        23        28        22        24     4      180.000000       14.478605         2    ;  uncertainty k = 0.060689
        24        23        25        29     4      180.000000        3.954469         2    ;  uncertainty k = 0.115255
        24        25        29        23     4      180.000000        3.954469         2    ;  uncertainty k = 0.115255
        24        29        23        25     4      180.000000        3.954469         2    ;  uncertainty k = 0.115255
        25        24        26        30     4      180.000000        4.224391         2    ;  uncertainty k = 0.128629
        25        26        30        24     4      180.000000        4.224391         2    ;  uncertainty k = 0.128629
        25        30        24        26     4      180.000000        4.224391         2    ;  uncertainty k = 0.128629
        26        21        25        31     4      180.000000        4.073247         2    ;  uncertainty k = 0.035705
        26        25        31        21     4      180.000000        4.073247         2    ;  uncertainty k = 0.035705
        26        31        21        25     4      180.000000        4.073247         2    ;  uncertainty k = 0.035705

[ pairs ]
;       ai        aj funct
         1         4     1
         1         6     1
         1        12     1
         1        41     1
         1        42     1
         2         7     1
         2         8     1
         2        13     1
         2        18     1
         3         6     1
         3        14     1
         3        16     1
         3        17     1
         3        37     1
         3        38     1
         3        39     1
         3        41     1
         3        42     1
         3        43     1
         3        48     1
         3        49     1
         4         5     1
         4        13     1
         4        18     1
         4        40     1
         5         9     1
         5        10     1
         5        12     1
         5        32     1
         5        36     1
         5        37     1
         5        38     1
         5        39     1
         6        11     1
         6        33     1
         6        34     1
         6        40     1
         7        10     1
         7        32     1
         7        35     1
         7        41     1
         7        42     1
         8         9     1
         8        35     1
         8        36     1
         8        41     1
         8        42     1
         9        33     1
        10        34     1
        11        32     1
        11        36     1
        12        15     1
        12        19     1
        12        40     1
        12        44     1
        12        45     1
        12        46     1
        12        47     1
        13        20     1
        13        46     1
        13        47     1
        13        48     1
        13        49     1
        13        50     1
        14        17     1
        14        18     1
        14        21     1
        14        44     1
        14        45     1
        14        51     1
        14        52     1
        15        16     1
        15        20     1
        15        43     1
        15        50     1
        16        19     1
        16        48     1
        16        49     1
        17        43     1
        18        43     1
        18        44     1
        18        45     1
        19        22     1
        19        26     1
        19        43     1
        20        23     1
        20        25     1
        20        27     1
        20        31     1
        21        24     1
        21        28     1
        21        30     1
        21        50     1
        22        25     1
        22        29     1
        22        31     1
        22        51     1
        22        52     1
        22        53     1
        22        54     1
        22        55     1
        23        26     1
        23        30     1
        23        56     1
        23        57     1
        23        58     1
        24        27     1
        24        31     1
        24        53     1
        24        54     1
        24        55     1
        25        28     1
        26        27     1
        26        29     1
        26        51     1
        26        52     1
        27        28     1
        28        29     1
        29        30     1
        30        31     1
        32        33     1
        33        35     1
        34        35     1
        34        36     1
        37        40     1
        38        40     1
        39        40     1
        40        41     1
        40        42     1
        43        44     1
        43        45     1
        44        46     1
        44        47     1
        45        46     1
        45        47     1
        46        48     1
        46        49     1
        47        48     1
        47        49     1
        50        51     1
        50        52     1
        54        56     1
        54        57     1
        54        58     1
        55        56     1
        55        57     1
        55        58     1
