; ITP file created by ByteFF-joint-25, 2026-02-17 09:31:47.799966

[ atomtypes ]
;name           bonded.type        at.num        mass        charge   ptype           sigma         epsilon
 n0bf                                   7      0.0000       0.00000       A     2.76943e-01     4.79787e+00    ;  uncertainty sigma = 0.000085, epsilon = 0.015540
 c1bf                                   6      0.0000       0.00000       A     3.39820e-01     4.51271e-01    ;  uncertainty sigma = 0.000027, epsilon = 0.002212
 c2bf                                   6      0.0000       0.00000       A     3.31632e-01     4.11235e-01    ;  uncertainty sigma = 0.000063, epsilon = 0.004547
 o3bf                                   8      0.0000       0.00000       A     3.04820e-01     6.12239e-01    ;  uncertainty sigma = 0.000039, epsilon = 0.003535
 c4bf                                   6      0.0000       0.00000       A     3.39782e-01     4.51132e-01    ;  uncertainty sigma = 0.000025, epsilon = 0.001028
 c5bf                                   6      0.0000       0.00000       A     3.31492e-01     4.12993e-01    ;  uncertainty sigma = 0.000034, epsilon = 0.000807
 c6bf                                   6      0.0000       0.00000       A     3.31515e-01     4.13142e-01    ;  uncertainty sigma = 0.000003, epsilon = 0.000577
 c7bf                                   6      0.0000       0.00000       A     3.31515e-01     4.13142e-01    ;  uncertainty sigma = 0.000003, epsilon = 0.000577
 c8bf                                   6      0.0000       0.00000       A     3.31518e-01     4.13343e-01    ;  uncertainty sigma = 0.000003, epsilon = 0.000526
 c9bf                                   6      0.0000       0.00000       A     3.31518e-01     4.13343e-01    ;  uncertainty sigma = 0.000003, epsilon = 0.000526
 c10bf                                  6      0.0000       0.00000       A     3.31519e-01     4.13331e-01    ;  uncertainty sigma = 0.000003, epsilon = 0.000569
 n11bf                                  7      0.0000       0.00000       A     3.17985e-01     6.80386e-01    ;  uncertainty sigma = 0.000044, epsilon = 0.006992
 c12bf                                  6      0.0000       0.00000       A     3.39813e-01     4.50178e-01    ;  uncertainty sigma = 0.000024, epsilon = 0.000971
 c13bf                                  6      0.0000       0.00000       A     3.31489e-01     4.12862e-01    ;  uncertainty sigma = 0.000016, epsilon = 0.001282
 o14bf                                  8      0.0000       0.00000       A     3.04823e-01     6.12452e-01    ;  uncertainty sigma = 0.000018, epsilon = 0.001232
 c15bf                                  6      0.0000       0.00000       A     3.39755e-01     4.50791e-01    ;  uncertainty sigma = 0.000008, epsilon = 0.000863
 c16bf                                  6      0.0000       0.00000       A     3.39784e-01     4.50380e-01    ;  uncertainty sigma = 0.000008, epsilon = 0.000575
 c17bf                                  6      0.0000       0.00000       A     3.39785e-01     4.50687e-01    ;  uncertainty sigma = 0.000015, epsilon = 0.001114
 n18bf                                  7      0.0000       0.00000       A     3.27020e-01     4.90937e-01    ;  uncertainty sigma = 0.000031, epsilon = 0.002258
 c19bf                                  6      0.0000       0.00000       A     3.39772e-01     4.50792e-01    ;  uncertainty sigma = 0.000008, epsilon = 0.000894
 c20bf                                  6      0.0000       0.00000       A     3.31506e-01     4.13448e-01    ;  uncertainty sigma = 0.000009, epsilon = 0.000500
 c21bf                                  6      0.0000       0.00000       A     3.31519e-01     4.13432e-01    ;  uncertainty sigma = 0.000006, epsilon = 0.000545
 c22bf                                  6      0.0000       0.00000       A     3.31528e-01     4.13319e-01    ;  uncertainty sigma = 0.000005, epsilon = 0.000459
 c23bf                                  6      0.0000       0.00000       A     3.31520e-01     4.13473e-01    ;  uncertainty sigma = 0.000005, epsilon = 0.000556
 c24bf                                  6      0.0000       0.00000       A     3.31518e-01     4.13301e-01    ;  uncertainty sigma = 0.000004, epsilon = 0.000603
 c25bf                                  6      0.0000       0.00000       A     3.31524e-01     4.13486e-01    ;  uncertainty sigma = 0.000006, epsilon = 0.000546
 h26bf                                  1      0.0000       0.00000       A     2.62558e-01     6.72109e-02    ;  uncertainty sigma = 0.000011, epsilon = 0.000602
 cl27bf                                17      0.0000       0.00000       A     3.46608e-01     1.10413e+00    ;  uncertainty sigma = 0.000012, epsilon = 0.001419
 h28bf                                  1      0.0000       0.00000       A     2.62559e-01     6.70715e-02    ;  uncertainty sigma = 0.000009, epsilon = 0.000633
 h29bf                                  1      0.0000       0.00000       A     2.62565e-01     6.70368e-02    ;  uncertainty sigma = 0.000008, epsilon = 0.000464
 f30bf                                  9      0.0000       0.00000       A     3.03437e-01     3.47631e-01    ;  uncertainty sigma = 0.000012, epsilon = 0.000713
 h31bf                                  1      0.0000       0.00000       A     2.62565e-01     6.71218e-02    ;  uncertainty sigma = 0.000005, epsilon = 0.000518
 h32bf                                  1      0.0000       0.00000       A     2.62558e-01     6.70323e-02    ;  uncertainty sigma = 0.000010, epsilon = 0.000442
 h33bf                                  1      0.0000       0.00000       A     2.62558e-01     6.70323e-02    ;  uncertainty sigma = 0.000010, epsilon = 0.000442
 h34bf                                  1      0.0000       0.00000       A     2.62552e-01     6.70646e-02    ;  uncertainty sigma = 0.000011, epsilon = 0.000453
 h35bf                                  1      0.0000       0.00000       A     2.62565e-01     6.71218e-02    ;  uncertainty sigma = 0.000005, epsilon = 0.000518
 h36bf                                  1      0.0000       0.00000       A     1.10688e-01     4.09428e-02    ;  uncertainty sigma = 0.000086, epsilon = 0.000660
 h37bf                                  1      0.0000       0.00000       A     1.10688e-01     4.09428e-02    ;  uncertainty sigma = 0.000086, epsilon = 0.000660
 h38bf                                  1      0.0000       0.00000       A     1.10688e-01     4.09428e-02    ;  uncertainty sigma = 0.000086, epsilon = 0.000660
 h39bf                                  1      0.0000       0.00000       A     1.88870e-01     8.55762e-02    ;  uncertainty sigma = 0.000080, epsilon = 0.001743
 h40bf                                  1      0.0000       0.00000       A     2.59933e-01     8.65549e-02    ;  uncertainty sigma = 0.000040, epsilon = 0.001066
 h41bf                                  1      0.0000       0.00000       A     2.59933e-01     8.65549e-02    ;  uncertainty sigma = 0.000040, epsilon = 0.001066
 h42bf                                  1      0.0000       0.00000       A     2.42267e-01     8.71728e-02    ;  uncertainty sigma = 0.000080, epsilon = 0.000934
 h43bf                                  1      0.0000       0.00000       A     2.60028e-01     8.64829e-02    ;  uncertainty sigma = 0.000014, epsilon = 0.000854
 h44bf                                  1      0.0000       0.00000       A     2.60028e-01     8.64829e-02    ;  uncertainty sigma = 0.000014, epsilon = 0.000854
 h45bf                                  1      0.0000       0.00000       A     2.60022e-01     8.65316e-02    ;  uncertainty sigma = 0.000011, epsilon = 0.000541
 h46bf                                  1      0.0000       0.00000       A     2.60022e-01     8.65316e-02    ;  uncertainty sigma = 0.000011, epsilon = 0.000541
 h47bf                                  1      0.0000       0.00000       A     2.42219e-01     8.66542e-02    ;  uncertainty sigma = 0.000020, epsilon = 0.000808
 h48bf                                  1      0.0000       0.00000       A     2.42219e-01     8.66542e-02    ;  uncertainty sigma = 0.000020, epsilon = 0.000808
 h49bf                                  1      0.0000       0.00000       A     1.10640e-01     4.13028e-02    ;  uncertainty sigma = 0.000081, epsilon = 0.001069
 h50bf                                  1      0.0000       0.00000       A     2.42196e-01     8.64930e-02    ;  uncertainty sigma = 0.000037, epsilon = 0.001032
 h51bf                                  1      0.0000       0.00000       A     2.42196e-01     8.64930e-02    ;  uncertainty sigma = 0.000037, epsilon = 0.001032

[ moleculetype ]
;name             nrexcl
 MOL                   3

[ atoms ]
;       nr            type      resi   res      atom      cgnr      charge          mass ; qtot
         1            n0bf         1   UNL        n0         1    -0.86601       14.0070 ; qtot   -0.866
         2            c1bf         1   UNL        c1         2     0.08765       12.0110 ; qtot   -0.778
         3            c2bf         1   UNL        c2         3     0.64718       12.0110 ; qtot   -0.131
         4            o3bf         1   UNL        o3         4    -0.60936       15.9990 ; qtot   -0.741
         5            c4bf         1   UNL        c4         5    -0.02686       12.0110 ; qtot   -0.767
         6            c5bf         1   UNL        c5         6    -0.13705       12.0110 ; qtot   -0.904
         7            c6bf         1   UNL        c6         7    -0.11189       12.0110 ; qtot   -1.016
         8            c7bf         1   UNL        c7         8    -0.11189       12.0110 ; qtot   -1.128
         9            c8bf         1   UNL        c8         9    -0.11860       12.0110 ; qtot   -1.247
        10            c9bf         1   UNL        c9        10    -0.11860       12.0110 ; qtot   -1.365
        11           c10bf         1   UNL       c10        11    -0.12782       12.0110 ; qtot   -1.493
        12           n11bf         1   UNL       n11        12    -0.40679       14.0070 ; qtot   -1.900
        13           c12bf         1   UNL       c12        13     0.02902       12.0110 ; qtot   -1.871
        14           c13bf         1   UNL       c13        14     0.65875       12.0110 ; qtot   -1.212
        15           o14bf         1   UNL       o14        15    -0.60628       15.9990 ; qtot   -1.819
        16           c15bf         1   UNL       c15        16    -0.07798       12.0110 ; qtot   -1.897
        17           c16bf         1   UNL       c16        17    -0.09437       12.0110 ; qtot   -1.991
        18           c17bf         1   UNL       c17        18     0.09761       12.0110 ; qtot   -1.893
        19           n18bf         1   UNL       n18        19    -0.56360       14.0070 ; qtot   -2.457
        20           c19bf         1   UNL       c19        20     0.14955       12.0110 ; qtot   -2.307
        21           c20bf         1   UNL       c20        21    -0.14462       12.0110 ; qtot   -2.452
        22           c21bf         1   UNL       c21        22    -0.07755       12.0110 ; qtot   -2.530
        23           c22bf         1   UNL       c22        23     0.01409       12.0110 ; qtot   -2.515
        24           c23bf         1   UNL       c23        24    -0.08795       12.0110 ; qtot   -2.603
        25           c24bf         1   UNL       c24        25    -0.15915       12.0110 ; qtot   -2.763
        26           c25bf         1   UNL       c25        26     0.13911       12.0110 ; qtot   -2.623
        27           h26bf         1   UNL       h26        27     0.16010        1.0080 ; qtot   -2.463
        28          cl27bf         1   UNL      cl27        28    -0.11159       35.4530 ; qtot   -2.575
        29           h28bf         1   UNL       h28        29     0.15549        1.0080 ; qtot   -2.419
        30           h29bf         1   UNL       h29        30     0.15643        1.0080 ; qtot   -2.263
        31           f30bf         1   UNL       f30        31    -0.14370       18.9980 ; qtot   -2.407
        32           h31bf         1   UNL       h31        32     0.13886        1.0080 ; qtot   -2.268
        33           h32bf         1   UNL       h32        33     0.13082        1.0080 ; qtot   -2.137
        34           h33bf         1   UNL       h33        34     0.13082        1.0080 ; qtot   -2.006
        35           h34bf         1   UNL       h34        35     0.13198        1.0080 ; qtot   -1.874
        36           h35bf         1   UNL       h35        36     0.13886        1.0080 ; qtot   -1.735
        37           h36bf         1   UNL       h36        37     0.48559        1.0080 ; qtot   -1.250
        38           h37bf         1   UNL       h37        38     0.48559        1.0080 ; qtot   -0.764
        39           h38bf         1   UNL       h38        39     0.48559        1.0080 ; qtot   -0.279
        40           h39bf         1   UNL       h39        40     0.12932        1.0080 ; qtot   -0.149
        41           h40bf         1   UNL       h40        41     0.09501        1.0080 ; qtot   -0.054
        42           h41bf         1   UNL       h41        42     0.09501        1.0080 ; qtot    0.041
        43           h42bf         1   UNL       h42        43     0.09313        1.0080 ; qtot    0.134
        44           h43bf         1   UNL       h43        44     0.06408        1.0080 ; qtot    0.198
        45           h44bf         1   UNL       h44        45     0.06408        1.0080 ; qtot    0.262
        46           h45bf         1   UNL       h45        46     0.05807        1.0080 ; qtot    0.320
        47           h46bf         1   UNL       h46        47     0.05807        1.0080 ; qtot    0.378
        48           h47bf         1   UNL       h47        48     0.06814        1.0080 ; qtot    0.446
        49           h48bf         1   UNL       h48        49     0.06814        1.0080 ; qtot    0.514
        50           h49bf         1   UNL       h49        50     0.33451        1.0080 ; qtot    0.849
        51           h50bf         1   UNL       h50        51     0.07550        1.0080 ; qtot    0.924
        52           h51bf         1   UNL       h51        52     0.07551        1.0080 ; qtot    1.000

[ bonds ]
;       ai        aj funct               r               k
         1         2     1        0.150491   212631.000024    ;  uncertainty r = 0.000166, k = 23.670442
         1        37     1        0.103308   391133.977246    ;  uncertainty r = 0.000037, k = 11.445086
         1        38     1        0.103308   391133.977246    ;  uncertainty r = 0.000037, k = 11.445086
         1        39     1        0.103308   391133.977246    ;  uncertainty r = 0.000037, k = 11.445086
         2         3     1        0.153383   218392.746484    ;  uncertainty r = 0.000351, k = 18.850458
         2         5     1        0.154868   192604.632861    ;  uncertainty r = 0.000068, k = 15.427770
         2        40     1        0.109152   319716.871631    ;  uncertainty r = 0.000039, k = 5.932176
         3         4     1        0.124430   646067.824609    ;  uncertainty r = 0.000114, k = 4.050960
         3        12     1        0.132837   244620.021777    ;  uncertainty r = 0.000270, k = 32.041619
         5         6     1        0.151366   228169.373438    ;  uncertainty r = 0.000138, k = 4.648141
         5        41     1        0.109492   312207.863379    ;  uncertainty r = 0.000031, k = 2.085891
         5        42     1        0.109492   312207.863379    ;  uncertainty r = 0.000031, k = 2.085891
         6         7     1        0.140076   354245.341846    ;  uncertainty r = 0.000040, k = 3.508676
         6         8     1        0.140076   354245.341846    ;  uncertainty r = 0.000040, k = 3.508676
         7         9     1        0.139656   367109.098877    ;  uncertainty r = 0.000030, k = 2.498313
         7        36     1        0.108908   333963.692969    ;  uncertainty r = 0.000020, k = 1.163684
         8        10     1        0.139656   367109.098877    ;  uncertainty r = 0.000030, k = 2.498313
         8        32     1        0.108908   333963.692969    ;  uncertainty r = 0.000020, k = 1.163684
         9        11     1        0.139637   370587.431934    ;  uncertainty r = 0.000019, k = 1.259387
         9        34     1        0.108854   334327.162646    ;  uncertainty r = 0.000010, k = 0.904567
        10        11     1        0.139637   370587.431934    ;  uncertainty r = 0.000019, k = 1.259387
        10        33     1        0.108854   334327.162646    ;  uncertainty r = 0.000010, k = 0.904567
        11        35     1        0.108851   334582.431592    ;  uncertainty r = 0.000012, k = 0.680626
        12        13     1        0.146481   213389.860767    ;  uncertainty r = 0.000362, k = 17.470711
        12        18     1        0.148173   240716.266016    ;  uncertainty r = 0.000096, k = 8.226007
        13        14     1        0.151531   203632.463257    ;  uncertainty r = 0.000267, k = 12.937238
        13        16     1        0.153641   206709.455103    ;  uncertainty r = 0.000104, k = 6.875550
        13        43     1        0.109490   313697.187598    ;  uncertainty r = 0.000069, k = 6.361160
        14        15     1        0.123883   695740.873242    ;  uncertainty r = 0.000078, k = 5.398281
        14        19     1        0.137079   334932.009082    ;  uncertainty r = 0.000051, k = 18.421915
        16        17     1        0.153731   221851.237207    ;  uncertainty r = 0.000050, k = 5.320392
        16        44     1        0.109345   311554.062305    ;  uncertainty r = 0.000017, k = 1.844883
        16        45     1        0.109345   311554.087842    ;  uncertainty r = 0.000017, k = 1.844883
        17        18     1        0.153352   229030.357080    ;  uncertainty r = 0.000092, k = 7.132328
        17        46     1        0.109405   310965.202100    ;  uncertainty r = 0.000009, k = 1.477969
        17        47     1        0.109405   310965.202100    ;  uncertainty r = 0.000009, k = 1.477969
        18        48     1        0.109284   310084.197363    ;  uncertainty r = 0.000029, k = 3.347334
        18        49     1        0.109284   310084.197363    ;  uncertainty r = 0.000029, k = 3.347334
        19        20     1        0.145705   264086.475049    ;  uncertainty r = 0.000135, k = 13.405524
        19        50     1        0.101714   420698.901660    ;  uncertainty r = 0.000066, k = 1.960536
        20        21     1        0.151592   230832.229980    ;  uncertainty r = 0.000038, k = 6.006001
        20        51     1        0.109319   307254.481348    ;  uncertainty r = 0.000023, k = 1.659247
        20        52     1        0.109319   307254.481348    ;  uncertainty r = 0.000023, k = 1.659247
        21        22     1        0.139586   360579.362158    ;  uncertainty r = 0.000038, k = 3.408924
        21        26     1        0.139199   353377.769629    ;  uncertainty r = 0.000043, k = 4.647661
        22        23     1        0.139426   360720.378076    ;  uncertainty r = 0.000018, k = 0.743718
        22        27     1        0.108687   334083.053418    ;  uncertainty r = 0.000024, k = 1.596916
        23        24     1        0.139422   364332.627734    ;  uncertainty r = 0.000007, k = 1.404819
        23        28     1        0.175722   198799.450391    ;  uncertainty r = 0.000043, k = 3.699506
        24        25     1        0.139292   381683.280420    ;  uncertainty r = 0.000034, k = 3.177734
        24        29     1        0.108660   335170.014941    ;  uncertainty r = 0.000018, k = 0.605068
        25        26     1        0.138946   356797.009814    ;  uncertainty r = 0.000019, k = 2.838726
        25        30     1        0.108752   336451.901221    ;  uncertainty r = 0.000010, k = 1.076174
        26        31     1        0.135922   335464.508887    ;  uncertainty r = 0.000083, k = 3.271390

[ angles ]
;       ai        aj        ak funct           theta             cth
         1         2         3     1      101.865005      535.517206    ;  uncertainty theta = 0.014719, k = 0.222860
         1         2         5     1      111.062416      677.955796    ;  uncertainty theta = 0.002374, k = 0.080532
         1         2        40     1      103.864357      442.467608    ;  uncertainty theta = 0.003851, k = 0.159781
         2         1        37     1      111.017685      417.836875    ;  uncertainty theta = 0.002366, k = 0.115964
         2         1        38     1      111.017685      417.836875    ;  uncertainty theta = 0.002366, k = 0.115964
         2         1        39     1      111.017685      417.836875    ;  uncertainty theta = 0.002366, k = 0.115964
         2         3         4     1      125.113281      512.392906    ;  uncertainty theta = 0.004474, k = 0.243224
         2         3        12     1      113.240524      369.047940    ;  uncertainty theta = 0.008265, k = 0.220207
         2         5         6     1      111.457375      517.417237    ;  uncertainty theta = 0.002141, k = 0.103116
         2         5        41     1      106.760666      398.770582    ;  uncertainty theta = 0.001554, k = 0.093624
         2         5        42     1      106.760666      398.770582    ;  uncertainty theta = 0.001554, k = 0.093624
         3         2         5     1      111.995033      473.784532    ;  uncertainty theta = 0.008277, k = 0.120183
         3         2        40     1      113.360085      371.478051    ;  uncertainty theta = 0.004146, k = 0.297211
         3        12        13     1      116.265060      362.289512    ;  uncertainty theta = 0.006584, k = 0.104236
         3        12        18     1      117.197777      359.643070    ;  uncertainty theta = 0.004351, k = 0.182111
         4         3        12     1      125.708939      735.400821    ;  uncertainty theta = 0.002743, k = 0.148433
         5         2        40     1      110.181053      389.124226    ;  uncertainty theta = 0.002500, k = 0.074436
         5         6         7     1      120.180260      422.287929    ;  uncertainty theta = 0.003579, k = 0.182145
         5         6         8     1      120.180260      422.287929    ;  uncertainty theta = 0.003579, k = 0.182145
         6         5        41     1      108.484146      406.950884    ;  uncertainty theta = 0.001817, k = 0.046949
         6         5        42     1      108.484146      406.950884    ;  uncertainty theta = 0.001817, k = 0.046949
         6         7         9     1      120.905472      516.083721    ;  uncertainty theta = 0.003333, k = 0.059091
         6         7        36     1      118.460892      270.448522    ;  uncertainty theta = 0.002568, k = 0.056882
         6         8        10     1      120.905472      516.083721    ;  uncertainty theta = 0.003333, k = 0.059091
         6         8        32     1      118.460892      270.448522    ;  uncertainty theta = 0.002568, k = 0.056882
         7         6         8     1      120.989014      468.786824    ;  uncertainty theta = 0.002500, k = 0.050317
         7         9        11     1      119.340797      517.932320    ;  uncertainty theta = 0.001023, k = 0.024623
         7         9        34     1      120.021866      284.782215    ;  uncertainty theta = 0.001473, k = 0.020215
         8        10        11     1      119.340797      517.932320    ;  uncertainty theta = 0.001023, k = 0.024623
         8        10        33     1      120.021866      284.782215    ;  uncertainty theta = 0.001473, k = 0.020215
         9         7        36     1      120.165367      295.328721    ;  uncertainty theta = 0.002307, k = 0.033634
         9        11        10     1      118.329407      526.152620    ;  uncertainty theta = 0.000907, k = 0.031471
         9        11        35     1      120.672157      289.503898    ;  uncertainty theta = 0.001676, k = 0.008297
        10         8        32     1      120.165367      295.328721    ;  uncertainty theta = 0.002307, k = 0.033634
        10        11        35     1      120.672157      289.503898    ;  uncertainty theta = 0.001676, k = 0.008297
        11         9        34     1      120.568382      288.279617    ;  uncertainty theta = 0.001545, k = 0.013753
        11        10        33     1      120.568382      288.279617    ;  uncertainty theta = 0.001545, k = 0.013753
        12        13        14     1      106.388016      514.320128    ;  uncertainty theta = 0.005816, k = 0.160511
        12        13        16     1      107.774399      782.062228    ;  uncertainty theta = 0.007655, k = 0.082931
        12        13        43     1      106.938553      428.783708    ;  uncertainty theta = 0.004689, k = 0.055791
        12        18        17     1      106.103958      800.433816    ;  uncertainty theta = 0.003443, k = 0.117194
        12        18        48     1      108.499611      449.947428    ;  uncertainty theta = 0.001644, k = 0.070754
        12        18        49     1      108.499611      449.947428    ;  uncertainty theta = 0.001644, k = 0.070754
        13        12        18     1      117.944016      531.909993    ;  uncertainty theta = 0.006275, k = 0.330652
        13        14        15     1      121.629898      453.112944    ;  uncertainty theta = 0.006055, k = 0.100225
        13        14        19     1      113.156082      473.532257    ;  uncertainty theta = 0.004358, k = 0.240446
        13        16        17     1      105.172134      684.716171    ;  uncertainty theta = 0.002502, k = 0.111900
        13        16        44     1      108.015526      385.043172    ;  uncertainty theta = 0.001173, k = 0.038796
        13        16        45     1      108.015526      385.043172    ;  uncertainty theta = 0.001173, k = 0.038796
        14        13        16     1      109.730995      500.477227    ;  uncertainty theta = 0.004856, k = 0.171797
        14        13        43     1      107.696838      381.259020    ;  uncertainty theta = 0.008408, k = 0.077546
        14        19        20     1      115.739548      441.020101    ;  uncertainty theta = 0.003028, k = 0.224051
        14        19        50     1      116.193985      351.261758    ;  uncertainty theta = 0.003406, k = 0.157897
        15        14        19     1      125.272232      791.642857    ;  uncertainty theta = 0.002061, k = 0.055668
        16        13        43     1      110.250183      390.060831    ;  uncertainty theta = 0.004861, k = 0.093807
        16        17        18     1      103.988670      716.362204    ;  uncertainty theta = 0.001186, k = 0.063292
        16        17        46     1      109.736107      403.996911    ;  uncertainty theta = 0.001017, k = 0.053351
        16        17        47     1      109.736107      403.996911    ;  uncertainty theta = 0.001017, k = 0.053351
        17        16        44     1      110.112877      408.066089    ;  uncertainty theta = 0.001193, k = 0.054094
        17        16        45     1      110.112877      408.066089    ;  uncertainty theta = 0.001193, k = 0.054094
        17        18        48     1      110.852745      407.686480    ;  uncertainty theta = 0.001501, k = 0.028761
        17        18        49     1      110.852745      407.686480    ;  uncertainty theta = 0.001501, k = 0.028761
        18        17        46     1      109.154922      401.836120    ;  uncertainty theta = 0.002099, k = 0.034845
        18        17        47     1      109.154922      401.836120    ;  uncertainty theta = 0.002099, k = 0.034845
        19        20        21     1      111.518166      621.795543    ;  uncertainty theta = 0.000853, k = 0.064894
        19        20        51     1      106.807739      461.209293    ;  uncertainty theta = 0.000653, k = 0.054876
        19        20        52     1      106.807739      461.209293    ;  uncertainty theta = 0.000653, k = 0.054876
        20        19        50     1      111.299789      313.053550    ;  uncertainty theta = 0.003068, k = 0.096706
        20        21        22     1      120.812645      417.038297    ;  uncertainty theta = 0.003010, k = 0.153707
        20        21        26     1      119.943161      409.468077    ;  uncertainty theta = 0.003051, k = 0.102137
        21        20        51     1      107.798851      418.899219    ;  uncertainty theta = 0.000994, k = 0.073520
        21        20        52     1      107.798851      418.899219    ;  uncertainty theta = 0.000994, k = 0.073520
        21        22        23     1      121.178360      496.720686    ;  uncertainty theta = 0.001993, k = 0.057500
        21        22        27     1      118.232071      263.612909    ;  uncertainty theta = 0.002441, k = 0.070591
        21        26        25     1      125.127663      369.007304    ;  uncertainty theta = 0.005772, k = 0.094641
        21        26        31     1      116.818069      477.741794    ;  uncertainty theta = 0.001992, k = 0.105341
        22        21        26     1      119.694580      432.963143    ;  uncertainty theta = 0.002465, k = 0.129866
        22        23        24     1      121.112656      366.089849    ;  uncertainty theta = 0.001681, k = 0.123135
        22        23        28     1      120.167137      436.212038    ;  uncertainty theta = 0.000538, k = 0.044155
        23        22        27     1      120.832260      289.105200    ;  uncertainty theta = 0.002094, k = 0.032098
        23        24        25     1      118.157921      503.325253    ;  uncertainty theta = 0.001333, k = 0.026304
        23        24        29     1      121.090561      284.904857    ;  uncertainty theta = 0.001685, k = 0.024533
        24        23        28     1      120.448509      447.459283    ;  uncertainty theta = 0.000685, k = 0.061212
        24        25        26     1      119.155273      476.704796    ;  uncertainty theta = 0.002021, k = 0.073391
        24        25        30     1      121.127892      279.599171    ;  uncertainty theta = 0.001289, k = 0.027169
        25        24        29     1      120.595314      280.189142    ;  uncertainty theta = 0.001891, k = 0.019236
        25        26        31     1      118.636986      525.183423    ;  uncertainty theta = 0.002622, k = 0.072982
        26        25        30     1      120.133812      275.899769    ;  uncertainty theta = 0.001520, k = 0.042458
        37         1        38     1      108.287552      374.737289    ;  uncertainty theta = 0.002472, k = 0.030242
        37         1        39     1      108.287552      374.737289    ;  uncertainty theta = 0.002472, k = 0.030242
        38         1        39     1      108.287552      374.737289    ;  uncertainty theta = 0.002472, k = 0.030242
        41         5        42     1      105.685440      318.955879    ;  uncertainty theta = 0.004475, k = 0.088689
        44        16        45     1      105.902847      307.931923    ;  uncertainty theta = 0.001816, k = 0.037757
        46        17        47     1      105.686661      297.544449    ;  uncertainty theta = 0.002523, k = 0.030707
        48        18        49     1      105.681274      310.005728    ;  uncertainty theta = 0.001472, k = 0.053670
        51        20        52     1      105.271957      315.603431    ;  uncertainty theta = 0.002393, k = 0.053622

[ dihedrals ] ; propers for gromacs 4.5 or higher, use funct 9
;       ai        aj        ak        al funct           phase               k        pn
         1         2         3         4     9        0.000000        7.142609         1    ;  uncertainty k = 1.462940
         1         2         3         4     9      180.000000        6.964579         2    ;  uncertainty k = 0.328289
         1         2         3         4     9        0.000000        0.708402         3    ;  uncertainty k = 0.195694
         1         2         3         4     9      180.000000       -0.095659         4    ;  uncertainty k = 0.215547
         1         2         3        12     9        0.000000        4.061663         1    ;  uncertainty k = 1.356645
         1         2         3        12     9      180.000000        5.480402         2    ;  uncertainty k = 0.203312
         1         2         3        12     9        0.000000        1.003045         3    ;  uncertainty k = 0.661108
         1         2         3        12     9      180.000000       -0.183311         4    ;  uncertainty k = 0.202246
         1         2         5         6     9        0.000000        1.467841         1    ;  uncertainty k = 1.692150
         1         2         5         6     9      180.000000       -2.238317         2    ;  uncertainty k = 0.692800
         1         2         5         6     9        0.000000        2.172527         3    ;  uncertainty k = 0.356834
         1         2         5         6     9      180.000000       -0.102032         4    ;  uncertainty k = 0.179649
         1         2         5        41     9        0.000000       -0.379758         1    ;  uncertainty k = 0.819217
         1         2         5        41     9      180.000000       -2.218014         2    ;  uncertainty k = 0.395436
         1         2         5        41     9        0.000000        0.882784         3    ;  uncertainty k = 0.120495
         1         2         5        41     9      180.000000       -0.128401         4    ;  uncertainty k = 0.149215
         1         2         5        42     9        0.000000       -0.379758         1    ;  uncertainty k = 0.819217
         1         2         5        42     9      180.000000       -2.218014         2    ;  uncertainty k = 0.395436
         1         2         5        42     9        0.000000        0.882784         3    ;  uncertainty k = 0.120495
         1         2         5        42     9      180.000000       -0.128401         4    ;  uncertainty k = 0.149215
         2         3        12        13     9        0.000000        7.452085         1    ;  uncertainty k = 1.719062
         2         3        12        13     9      180.000000       10.138574         2    ;  uncertainty k = 0.828306
         2         3        12        13     9        0.000000        1.743878         3    ;  uncertainty k = 0.428190
         2         3        12        13     9      180.000000       -0.169627         4    ;  uncertainty k = 0.497682
         2         3        12        18     9        0.000000        7.135344         1    ;  uncertainty k = 1.290001
         2         3        12        18     9      180.000000        9.340876         2    ;  uncertainty k = 0.559931
         2         3        12        18     9        0.000000        1.541788         3    ;  uncertainty k = 0.323462
         2         3        12        18     9      180.000000       -0.087215         4    ;  uncertainty k = 0.346939
         2         5         6         7     9        0.000000        0.129583         1    ;  uncertainty k = 0.099374
         2         5         6         7     9      180.000000        1.005598         2    ;  uncertainty k = 0.162944
         2         5         6         7     9        0.000000        0.630014         3    ;  uncertainty k = 0.097908
         2         5         6         7     9      180.000000        0.281281         4    ;  uncertainty k = 0.071854
         2         5         6         8     9        0.000000        0.129583         1    ;  uncertainty k = 0.099374
         2         5         6         8     9      180.000000        1.005598         2    ;  uncertainty k = 0.162944
         2         5         6         8     9        0.000000        0.630014         3    ;  uncertainty k = 0.097908
         2         5         6         8     9      180.000000        0.281281         4    ;  uncertainty k = 0.071854
         3         2         1        37     9        0.000000        6.240377         1    ;  uncertainty k = 1.752857
         3         2         1        37     9      180.000000       -0.958322         2    ;  uncertainty k = 0.667369
         3         2         1        37     9        0.000000        0.519752         3    ;  uncertainty k = 0.190579
         3         2         1        37     9      180.000000        0.137368         4    ;  uncertainty k = 0.135162
         3         2         1        38     9        0.000000        6.240377         1    ;  uncertainty k = 1.752857
         3         2         1        38     9      180.000000       -0.958322         2    ;  uncertainty k = 0.667369
         3         2         1        38     9        0.000000        0.519752         3    ;  uncertainty k = 0.190579
         3         2         1        38     9      180.000000        0.137368         4    ;  uncertainty k = 0.135162
         3         2         1        39     9        0.000000        6.240377         1    ;  uncertainty k = 1.752857
         3         2         1        39     9      180.000000       -0.958322         2    ;  uncertainty k = 0.667369
         3         2         1        39     9        0.000000        0.519752         3    ;  uncertainty k = 0.190579
         3         2         1        39     9      180.000000        0.137368         4    ;  uncertainty k = 0.135162
         3         2         5         6     9        0.000000       -0.968222         1    ;  uncertainty k = 1.172651
         3         2         5         6     9      180.000000        0.162950         2    ;  uncertainty k = 0.497773
         3         2         5         6     9        0.000000        0.819781         3    ;  uncertainty k = 0.498921
         3         2         5         6     9      180.000000        0.115302         4    ;  uncertainty k = 0.170042
         3         2         5        41     9        0.000000        1.152162         1    ;  uncertainty k = 0.293872
         3         2         5        41     9      180.000000       -0.966516         2    ;  uncertainty k = 0.315573
         3         2         5        41     9        0.000000        0.475687         3    ;  uncertainty k = 0.298335
         3         2         5        41     9      180.000000       -0.092853         4    ;  uncertainty k = 0.084494
         3         2         5        42     9        0.000000        1.152162         1    ;  uncertainty k = 0.293872
         3         2         5        42     9      180.000000       -0.966516         2    ;  uncertainty k = 0.315573
         3         2         5        42     9        0.000000        0.475687         3    ;  uncertainty k = 0.298335
         3         2         5        42     9      180.000000       -0.092853         4    ;  uncertainty k = 0.084494
         3        12        13        14     9        0.000000        4.255977         1    ;  uncertainty k = 1.051250
         3        12        13        14     9      180.000000        0.206562         2    ;  uncertainty k = 0.542866
         3        12        13        14     9        0.000000        0.461872         3    ;  uncertainty k = 0.331259
         3        12        13        14     9      180.000000        0.682794         4    ;  uncertainty k = 0.155659
         3        12        13        16     9        0.000000       -0.956198         1    ;  uncertainty k = 1.405152
         3        12        13        16     9      180.000000        0.401429         2    ;  uncertainty k = 0.554961
         3        12        13        16     9        0.000000        0.539586         3    ;  uncertainty k = 0.348518
         3        12        13        16     9      180.000000        0.418551         4    ;  uncertainty k = 0.274493
         3        12        13        43     9        0.000000        1.979444         1    ;  uncertainty k = 0.705293
         3        12        13        43     9      180.000000       -0.346594         2    ;  uncertainty k = 0.151450
         3        12        13        43     9        0.000000       -0.201540         3    ;  uncertainty k = 0.199550
         3        12        13        43     9      180.000000        0.249656         4    ;  uncertainty k = 0.048885
         3        12        18        17     9        0.000000       -1.106788         1    ;  uncertainty k = 0.928594
         3        12        18        17     9      180.000000        0.085254         2    ;  uncertainty k = 0.618368
         3        12        18        17     9        0.000000        0.508959         3    ;  uncertainty k = 0.441646
         3        12        18        17     9      180.000000        0.512604         4    ;  uncertainty k = 0.293084
         3        12        18        48     9        0.000000        1.779997         1    ;  uncertainty k = 0.884420
         3        12        18        48     9      180.000000       -0.014701         2    ;  uncertainty k = 0.198071
         3        12        18        48     9        0.000000        0.075226         3    ;  uncertainty k = 0.083174
         3        12        18        48     9      180.000000        0.277163         4    ;  uncertainty k = 0.108504
         3        12        18        49     9        0.000000        1.779997         1    ;  uncertainty k = 0.884420
         3        12        18        49     9      180.000000       -0.014701         2    ;  uncertainty k = 0.198071
         3        12        18        49     9        0.000000        0.075226         3    ;  uncertainty k = 0.083174
         3        12        18        49     9      180.000000        0.277163         4    ;  uncertainty k = 0.108504
         4         3         2         5     9        0.000000       -2.091580         1    ;  uncertainty k = 1.801561
         4         3         2         5     9      180.000000        3.285621         2    ;  uncertainty k = 0.513993
         4         3         2         5     9        0.000000        1.218524         3    ;  uncertainty k = 0.553743
         4         3         2         5     9      180.000000        0.285244         4    ;  uncertainty k = 0.192247
         4         3         2        40     9        0.000000       -3.581681         1    ;  uncertainty k = 1.440547
         4         3         2        40     9      180.000000        3.132608         2    ;  uncertainty k = 0.659426
         4         3         2        40     9        0.000000        0.973440         3    ;  uncertainty k = 0.307178
         4         3         2        40     9      180.000000        0.100679         4    ;  uncertainty k = 0.135791
         4         3        12        13     9        0.000000        7.134874         1    ;  uncertainty k = 1.458066
         4         3        12        13     9      180.000000       20.889886         2    ;  uncertainty k = 0.435310
         4         3        12        13     9        0.000000        0.071505         3    ;  uncertainty k = 0.502200
         4         3        12        13     9      180.000000       -1.082059         4    ;  uncertainty k = 0.482157
         4         3        12        18     9        0.000000        5.815607         1    ;  uncertainty k = 1.176556
         4         3        12        18     9      180.000000       20.669128         2    ;  uncertainty k = 0.272650
         4         3        12        18     9        0.000000        0.370358         3    ;  uncertainty k = 0.342314
         4         3        12        18     9      180.000000       -0.935014         4    ;  uncertainty k = 0.258661
         5         2         1        37     9        0.000000        0.257469         1    ;  uncertainty k = 1.035385
         5         2         1        37     9      180.000000       -0.098408         2    ;  uncertainty k = 0.619417
         5         2         1        37     9        0.000000        0.809534         3    ;  uncertainty k = 0.139210
         5         2         1        37     9      180.000000       -0.036122         4    ;  uncertainty k = 0.104784
         5         2         1        38     9        0.000000        0.257469         1    ;  uncertainty k = 1.035385
         5         2         1        38     9      180.000000       -0.098408         2    ;  uncertainty k = 0.619417
         5         2         1        38     9        0.000000        0.809534         3    ;  uncertainty k = 0.139210
         5         2         1        38     9      180.000000       -0.036122         4    ;  uncertainty k = 0.104784
         5         2         1        39     9        0.000000        0.257469         1    ;  uncertainty k = 1.035385
         5         2         1        39     9      180.000000       -0.098408         2    ;  uncertainty k = 0.619417
         5         2         1        39     9        0.000000        0.809534         3    ;  uncertainty k = 0.139210
         5         2         1        39     9      180.000000       -0.036122         4    ;  uncertainty k = 0.104784
         5         2         3        12     9        0.000000       -2.964156         1    ;  uncertainty k = 1.093063
         5         2         3        12     9      180.000000        2.430549         2    ;  uncertainty k = 0.919534
         5         2         3        12     9        0.000000        0.334316         3    ;  uncertainty k = 0.264413
         5         2         3        12     9      180.000000        0.056208         4    ;  uncertainty k = 0.064324
         5         6         7         9     9        0.000000        0.189008         1    ;  uncertainty k = 0.267760
         5         6         7         9     9      180.000000        9.709953         2    ;  uncertainty k = 0.562187
         5         6         7         9     9        0.000000        1.364607         3    ;  uncertainty k = 0.379079
         5         6         7         9     9      180.000000        1.730698         4    ;  uncertainty k = 0.238239
         5         6         7        36     9        0.000000       -0.111711         1    ;  uncertainty k = 0.258803
         5         6         7        36     9      180.000000        7.643073         2    ;  uncertainty k = 0.420096
         5         6         7        36     9        0.000000        0.726597         3    ;  uncertainty k = 0.381013
         5         6         7        36     9      180.000000        1.043876         4    ;  uncertainty k = 0.337907
         5         6         8        10     9        0.000000        0.189008         1    ;  uncertainty k = 0.267760
         5         6         8        10     9      180.000000        9.709953         2    ;  uncertainty k = 0.562187
         5         6         8        10     9        0.000000        1.364607         3    ;  uncertainty k = 0.379079
         5         6         8        10     9      180.000000        1.730698         4    ;  uncertainty k = 0.238239
         5         6         8        32     9        0.000000       -0.111711         1    ;  uncertainty k = 0.258803
         5         6         8        32     9      180.000000        7.643073         2    ;  uncertainty k = 0.420096
         5         6         8        32     9        0.000000        0.726597         3    ;  uncertainty k = 0.381013
         5         6         8        32     9      180.000000        1.043876         4    ;  uncertainty k = 0.337907
         6         5         2        40     9        0.000000        0.680630         1    ;  uncertainty k = 0.526185
         6         5         2        40     9      180.000000        0.274264         2    ;  uncertainty k = 0.235246
         6         5         2        40     9        0.000000        1.009865         3    ;  uncertainty k = 0.194003
         6         5         2        40     9      180.000000       -0.009027         4    ;  uncertainty k = 0.108785
         6         7         9        11     9        0.000000       -0.056312         1    ;  uncertainty k = 0.220611
         6         7         9        11     9      180.000000       13.920268         2    ;  uncertainty k = 0.429547
         6         7         9        11     9        0.000000       -0.891985         3    ;  uncertainty k = 0.426334
         6         7         9        11     9      180.000000        0.722502         4    ;  uncertainty k = 0.225054
         6         7         9        34     9        0.000000       -0.011739         1    ;  uncertainty k = 0.099701
         6         7         9        34     9      180.000000        7.580376         2    ;  uncertainty k = 0.413757
         6         7         9        34     9        0.000000        1.455706         3    ;  uncertainty k = 0.268514
         6         7         9        34     9      180.000000        1.751126         4    ;  uncertainty k = 0.085394
         6         8        10        11     9        0.000000       -0.056312         1    ;  uncertainty k = 0.220611
         6         8        10        11     9      180.000000       13.920268         2    ;  uncertainty k = 0.429547
         6         8        10        11     9        0.000000       -0.891985         3    ;  uncertainty k = 0.426334
         6         8        10        11     9      180.000000        0.722502         4    ;  uncertainty k = 0.225054
         6         8        10        33     9        0.000000       -0.011739         1    ;  uncertainty k = 0.099701
         6         8        10        33     9      180.000000        7.580376         2    ;  uncertainty k = 0.413757
         6         8        10        33     9        0.000000        1.455706         3    ;  uncertainty k = 0.268514
         6         8        10        33     9      180.000000        1.751126         4    ;  uncertainty k = 0.085394
         7         6         5        41     9        0.000000       -0.231624         1    ;  uncertainty k = 0.171472
         7         6         5        41     9      180.000000        1.709932         2    ;  uncertainty k = 0.250888
         7         6         5        41     9        0.000000        0.426007         3    ;  uncertainty k = 0.097455
         7         6         5        41     9      180.000000        0.170665         4    ;  uncertainty k = 0.039251
         7         6         5        42     9        0.000000       -0.231624         1    ;  uncertainty k = 0.171472
         7         6         5        42     9      180.000000        1.709932         2    ;  uncertainty k = 0.250888
         7         6         5        42     9        0.000000        0.426007         3    ;  uncertainty k = 0.097455
         7         6         5        42     9      180.000000        0.170665         4    ;  uncertainty k = 0.039251
         7         6         8        10     9        0.000000       -0.184770         1    ;  uncertainty k = 0.196506
         7         6         8        10     9      180.000000       12.729212         2    ;  uncertainty k = 0.349385
         7         6         8        10     9        0.000000       -0.707095         3    ;  uncertainty k = 0.377914
         7         6         8        10     9      180.000000        0.674302         4    ;  uncertainty k = 0.412311
         7         6         8        32     9        0.000000        0.079141         1    ;  uncertainty k = 0.325245
         7         6         8        32     9      180.000000        7.608414         2    ;  uncertainty k = 0.593107
         7         6         8        32     9        0.000000        1.393170         3    ;  uncertainty k = 0.260644
         7         6         8        32     9      180.000000        1.619583         4    ;  uncertainty k = 0.125831
         7         9        11        10     9        0.000000        0.015551         1    ;  uncertainty k = 0.044340
         7         9        11        10     9      180.000000       15.072880         2    ;  uncertainty k = 0.287882
         7         9        11        10     9        0.000000       -1.226362         3    ;  uncertainty k = 0.468047
         7         9        11        10     9      180.000000        0.510388         4    ;  uncertainty k = 0.285677
         7         9        11        35     9        0.000000        0.025126         1    ;  uncertainty k = 0.103621
         7         9        11        35     9      180.000000        7.435124         2    ;  uncertainty k = 0.310467
         7         9        11        35     9        0.000000        1.490641         3    ;  uncertainty k = 0.292416
         7         9        11        35     9      180.000000        1.803583         4    ;  uncertainty k = 0.204543
         8         6         5        41     9        0.000000       -0.231624         1    ;  uncertainty k = 0.171472
         8         6         5        41     9      180.000000        1.709932         2    ;  uncertainty k = 0.250888
         8         6         5        41     9        0.000000        0.426007         3    ;  uncertainty k = 0.097455
         8         6         5        41     9      180.000000        0.170665         4    ;  uncertainty k = 0.039251
         8         6         5        42     9        0.000000       -0.231624         1    ;  uncertainty k = 0.171472
         8         6         5        42     9      180.000000        1.709932         2    ;  uncertainty k = 0.250888
         8         6         5        42     9        0.000000        0.426007         3    ;  uncertainty k = 0.097455
         8         6         5        42     9      180.000000        0.170665         4    ;  uncertainty k = 0.039251
         8         6         7         9     9        0.000000       -0.184770         1    ;  uncertainty k = 0.196506
         8         6         7         9     9      180.000000       12.729212         2    ;  uncertainty k = 0.349385
         8         6         7         9     9        0.000000       -0.707095         3    ;  uncertainty k = 0.377914
         8         6         7         9     9      180.000000        0.674302         4    ;  uncertainty k = 0.412311
         8         6         7        36     9        0.000000        0.079141         1    ;  uncertainty k = 0.325245
         8         6         7        36     9      180.000000        7.608414         2    ;  uncertainty k = 0.593107
         8         6         7        36     9        0.000000        1.393170         3    ;  uncertainty k = 0.260644
         8         6         7        36     9      180.000000        1.619583         4    ;  uncertainty k = 0.125831
         8        10        11         9     9        0.000000        0.015551         1    ;  uncertainty k = 0.044340
         8        10        11         9     9      180.000000       15.072880         2    ;  uncertainty k = 0.287882
         8        10        11         9     9        0.000000       -1.226362         3    ;  uncertainty k = 0.468047
         8        10        11         9     9      180.000000        0.510388         4    ;  uncertainty k = 0.285677
         8        10        11        35     9        0.000000        0.025126         1    ;  uncertainty k = 0.103621
         8        10        11        35     9      180.000000        7.435124         2    ;  uncertainty k = 0.310467
         8        10        11        35     9        0.000000        1.490641         3    ;  uncertainty k = 0.292416
         8        10        11        35     9      180.000000        1.803583         4    ;  uncertainty k = 0.204543
         9        11        10        33     9        0.000000        0.061790         1    ;  uncertainty k = 0.040367
         9        11        10        33     9      180.000000        7.533638         2    ;  uncertainty k = 0.335058
         9        11        10        33     9        0.000000        1.445862         3    ;  uncertainty k = 0.325060
         9        11        10        33     9      180.000000        1.795809         4    ;  uncertainty k = 0.164033
        10        11         9        34     9        0.000000        0.061790         1    ;  uncertainty k = 0.040367
        10        11         9        34     9      180.000000        7.533638         2    ;  uncertainty k = 0.335058
        10        11         9        34     9        0.000000        1.445862         3    ;  uncertainty k = 0.325060
        10        11         9        34     9      180.000000        1.795809         4    ;  uncertainty k = 0.164033
        11         9         7        36     9        0.000000        0.038027         1    ;  uncertainty k = 0.047983
        11         9         7        36     9      180.000000        8.018719         2    ;  uncertainty k = 0.347750
        11         9         7        36     9        0.000000        1.426490         3    ;  uncertainty k = 0.299400
        11         9         7        36     9      180.000000        1.826770         4    ;  uncertainty k = 0.127277
        11        10         8        32     9        0.000000        0.038027         1    ;  uncertainty k = 0.047983
        11        10         8        32     9      180.000000        8.018719         2    ;  uncertainty k = 0.347750
        11        10         8        32     9        0.000000        1.426490         3    ;  uncertainty k = 0.299400
        11        10         8        32     9      180.000000        1.826770         4    ;  uncertainty k = 0.127277
        12         3         2        40     9        0.000000       -0.080882         1    ;  uncertainty k = 1.675321
        12         3         2        40     9      180.000000        2.186426         2    ;  uncertainty k = 0.295262
        12         3         2        40     9        0.000000        0.171990         3    ;  uncertainty k = 0.439721
        12         3         2        40     9      180.000000        0.088403         4    ;  uncertainty k = 0.160418
        12        13        14        15     9        0.000000        1.295431         1    ;  uncertainty k = 2.898334
        12        13        14        15     9      180.000000        5.906167         2    ;  uncertainty k = 0.379987
        12        13        14        15     9        0.000000        1.441054         3    ;  uncertainty k = 0.285282
        12        13        14        15     9      180.000000        0.475504         4    ;  uncertainty k = 0.148894
        12        13        14        19     9        0.000000        2.475578         1    ;  uncertainty k = 0.544117
        12        13        14        19     9      180.000000        3.385679         2    ;  uncertainty k = 0.097178
        12        13        14        19     9        0.000000        0.619281         3    ;  uncertainty k = 0.197147
        12        13        14        19     9      180.000000        0.261906         4    ;  uncertainty k = 0.067091
        12        13        16        17     9        0.000000       -0.894306         1    ;  uncertainty k = 0.893811
        12        13        16        17     9      180.000000        1.428397         2    ;  uncertainty k = 1.394731
        12        13        16        17     9        0.000000        1.172412         3    ;  uncertainty k = 0.530620
        12        13        16        17     9      180.000000       -1.534881         4    ;  uncertainty k = 0.660249
        12        13        16        44     9        0.000000       -1.252037         1    ;  uncertainty k = 0.554485
        12        13        16        44     9      180.000000        0.181213         2    ;  uncertainty k = 0.452579
        12        13        16        44     9        0.000000        1.256105         3    ;  uncertainty k = 0.274911
        12        13        16        44     9      180.000000        0.061636         4    ;  uncertainty k = 0.024683
        12        13        16        45     9        0.000000       -1.252037         1    ;  uncertainty k = 0.554485
        12        13        16        45     9      180.000000        0.181213         2    ;  uncertainty k = 0.452579
        12        13        16        45     9        0.000000        1.256105         3    ;  uncertainty k = 0.274911
        12        13        16        45     9      180.000000        0.061636         4    ;  uncertainty k = 0.024683
        12        18        17        16     9        0.000000       -1.929645         1    ;  uncertainty k = 1.032871
        12        18        17        16     9      180.000000        3.460818         2    ;  uncertainty k = 1.547367
        12        18        17        16     9        0.000000        0.845089         3    ;  uncertainty k = 0.413125
        12        18        17        16     9      180.000000       -2.134713         4    ;  uncertainty k = 0.756186
        12        18        17        46     9        0.000000       -1.263334         1    ;  uncertainty k = 0.539081
        12        18        17        46     9      180.000000       -0.145701         2    ;  uncertainty k = 0.162362
        12        18        17        46     9        0.000000        1.199217         3    ;  uncertainty k = 0.151655
        12        18        17        46     9      180.000000        0.116179         4    ;  uncertainty k = 0.133669
        12        18        17        47     9        0.000000       -1.263334         1    ;  uncertainty k = 0.539081
        12        18        17        47     9      180.000000       -0.145701         2    ;  uncertainty k = 0.162362
        12        18        17        47     9        0.000000        1.199217         3    ;  uncertainty k = 0.151655
        12        18        17        47     9      180.000000        0.116179         4    ;  uncertainty k = 0.133669
        13        12        18        17     9        0.000000       -1.218194         1    ;  uncertainty k = 0.946659
        13        12        18        17     9      180.000000        1.494270         2    ;  uncertainty k = 0.879336
        13        12        18        17     9        0.000000        0.792452         3    ;  uncertainty k = 0.312463
        13        12        18        17     9      180.000000        0.217092         4    ;  uncertainty k = 0.218741
        13        12        18        48     9        0.000000       -2.197860         1    ;  uncertainty k = 0.585119
        13        12        18        48     9      180.000000        1.437841         2    ;  uncertainty k = 0.301971
        13        12        18        48     9        0.000000        1.315676         3    ;  uncertainty k = 0.201794
        13        12        18        48     9      180.000000        0.356520         4    ;  uncertainty k = 0.049916
        13        12        18        49     9        0.000000       -2.197860         1    ;  uncertainty k = 0.585119
        13        12        18        49     9      180.000000        1.437841         2    ;  uncertainty k = 0.301971
        13        12        18        49     9        0.000000        1.315676         3    ;  uncertainty k = 0.201794
        13        12        18        49     9      180.000000        0.356520         4    ;  uncertainty k = 0.049916
        13        14        19        20     9        0.000000        9.744783         1    ;  uncertainty k = 0.502677
        13        14        19        20     9      180.000000        7.696202         2    ;  uncertainty k = 0.470352
        13        14        19        20     9        0.000000        2.040370         3    ;  uncertainty k = 0.333316
        13        14        19        20     9      180.000000        0.394851         4    ;  uncertainty k = 0.325668
        13        14        19        50     9        0.000000        1.960387         1    ;  uncertainty k = 1.211079
        13        14        19        50     9      180.000000        6.908842         2    ;  uncertainty k = 0.367510
        13        14        19        50     9        0.000000        1.517806         3    ;  uncertainty k = 0.514804
        13        14        19        50     9      180.000000        0.109600         4    ;  uncertainty k = 0.379216
        13        16        17        18     9        0.000000       -1.407672         1    ;  uncertainty k = 1.682004
        13        16        17        18     9      180.000000       10.748334         2    ;  uncertainty k = 0.371862
        13        16        17        18     9        0.000000        0.020580         3    ;  uncertainty k = 0.443934
        13        16        17        18     9      180.000000       -3.045669         4    ;  uncertainty k = 0.308082
        13        16        17        46     9        0.000000       -0.775772         1    ;  uncertainty k = 0.218802
        13        16        17        46     9      180.000000       -0.731454         2    ;  uncertainty k = 0.331875
        13        16        17        46     9        0.000000        0.426465         3    ;  uncertainty k = 0.201415
        13        16        17        46     9      180.000000        0.199405         4    ;  uncertainty k = 0.072296
        13        16        17        47     9        0.000000       -0.775772         1    ;  uncertainty k = 0.218802
        13        16        17        47     9      180.000000       -0.731454         2    ;  uncertainty k = 0.331875
        13        16        17        47     9        0.000000        0.426465         3    ;  uncertainty k = 0.201415
        13        16        17        47     9      180.000000        0.199405         4    ;  uncertainty k = 0.072296
        14        13        12        18     9        0.000000       -1.322937         1    ;  uncertainty k = 2.151621
        14        13        12        18     9      180.000000       -0.215454         2    ;  uncertainty k = 0.980253
        14        13        12        18     9        0.000000        1.078947         3    ;  uncertainty k = 0.478882
        14        13        12        18     9      180.000000        0.146908         4    ;  uncertainty k = 0.161972
        14        13        16        17     9        0.000000       -2.763845         1    ;  uncertainty k = 1.520971
        14        13        16        17     9      180.000000        0.938281         2    ;  uncertainty k = 0.912310
        14        13        16        17     9        0.000000        0.737174         3    ;  uncertainty k = 0.178577
        14        13        16        17     9      180.000000       -0.167811         4    ;  uncertainty k = 0.188166
        14        13        16        44     9        0.000000        1.047959         1    ;  uncertainty k = 0.750710
        14        13        16        44     9      180.000000       -0.005194         2    ;  uncertainty k = 0.252021
        14        13        16        44     9        0.000000        0.540013         3    ;  uncertainty k = 0.118777
        14        13        16        44     9      180.000000        0.056230         4    ;  uncertainty k = 0.061945
        14        13        16        45     9        0.000000        1.047959         1    ;  uncertainty k = 0.750710
        14        13        16        45     9      180.000000       -0.005194         2    ;  uncertainty k = 0.252021
        14        13        16        45     9        0.000000        0.540013         3    ;  uncertainty k = 0.118777
        14        13        16        45     9      180.000000        0.056230         4    ;  uncertainty k = 0.061945
        14        19        20        21     9        0.000000       -1.197569         1    ;  uncertainty k = 0.389497
        14        19        20        21     9      180.000000       -0.049896         2    ;  uncertainty k = 0.257090
        14        19        20        21     9        0.000000       -0.088820         3    ;  uncertainty k = 0.092234
        14        19        20        21     9      180.000000        0.323994         4    ;  uncertainty k = 0.139078
        14        19        20        51     9        0.000000        0.953603         1    ;  uncertainty k = 0.572982
        14        19        20        51     9      180.000000       -0.207396         2    ;  uncertainty k = 0.181037
        14        19        20        51     9        0.000000        0.295208         3    ;  uncertainty k = 0.104917
        14        19        20        51     9      180.000000        0.266491         4    ;  uncertainty k = 0.060502
        14        19        20        52     9        0.000000        0.953603         1    ;  uncertainty k = 0.572982
        14        19        20        52     9      180.000000       -0.207396         2    ;  uncertainty k = 0.181037
        14        19        20        52     9        0.000000        0.295208         3    ;  uncertainty k = 0.104917
        14        19        20        52     9      180.000000        0.266491         4    ;  uncertainty k = 0.060502
        15        14        13        16     9        0.000000       -3.595466         1    ;  uncertainty k = 0.840319
        15        14        13        16     9      180.000000        3.414170         2    ;  uncertainty k = 0.442288
        15        14        13        16     9        0.000000        1.003457         3    ;  uncertainty k = 0.136195
        15        14        13        16     9      180.000000        0.496992         4    ;  uncertainty k = 0.066238
        15        14        13        43     9        0.000000       -0.462056         1    ;  uncertainty k = 0.773476
        15        14        13        43     9      180.000000        3.631112         2    ;  uncertainty k = 0.282045
        15        14        13        43     9        0.000000        0.546920         3    ;  uncertainty k = 0.250507
        15        14        13        43     9      180.000000        0.124321         4    ;  uncertainty k = 0.116115
        15        14        19        20     9        0.000000        5.899505         1    ;  uncertainty k = 0.867842
        15        14        19        20     9      180.000000       17.096684         2    ;  uncertainty k = 0.132338
        15        14        19        20     9        0.000000        0.311752         3    ;  uncertainty k = 0.297888
        15        14        19        20     9      180.000000       -0.398102         4    ;  uncertainty k = 0.283954
        15        14        19        50     9        0.000000        3.040092         1    ;  uncertainty k = 0.744219
        15        14        19        50     9      180.000000       16.924500         2    ;  uncertainty k = 0.144053
        15        14        19        50     9        0.000000        1.600632         3    ;  uncertainty k = 0.224212
        15        14        19        50     9      180.000000       -0.097843         4    ;  uncertainty k = 0.154076
        16        13        12        18     9        0.000000       -0.886418         1    ;  uncertainty k = 1.451647
        16        13        12        18     9      180.000000        3.315347         2    ;  uncertainty k = 1.006087
        16        13        12        18     9        0.000000        0.632933         3    ;  uncertainty k = 0.224438
        16        13        12        18     9      180.000000        0.144651         4    ;  uncertainty k = 0.343971
        16        13        14        19     9        0.000000       -1.628799         1    ;  uncertainty k = 0.540351
        16        13        14        19     9      180.000000        1.377670         2    ;  uncertainty k = 0.453319
        16        13        14        19     9        0.000000        0.712740         3    ;  uncertainty k = 0.186234
        16        13        14        19     9      180.000000        0.287986         4    ;  uncertainty k = 0.054717
        16        17        18        48     9        0.000000       -0.275460         1    ;  uncertainty k = 0.373345
        16        17        18        48     9      180.000000       -1.152480         2    ;  uncertainty k = 0.432766
        16        17        18        48     9        0.000000        0.086044         3    ;  uncertainty k = 0.115727
        16        17        18        48     9      180.000000        0.044150         4    ;  uncertainty k = 0.075030
        16        17        18        49     9        0.000000       -0.275460         1    ;  uncertainty k = 0.373345
        16        17        18        49     9      180.000000       -1.152480         2    ;  uncertainty k = 0.432766
        16        17        18        49     9        0.000000        0.086044         3    ;  uncertainty k = 0.115727
        16        17        18        49     9      180.000000        0.044150         4    ;  uncertainty k = 0.075030
        17        16        13        43     9        0.000000       -0.840501         1    ;  uncertainty k = 0.303725
        17        16        13        43     9      180.000000       -0.254878         2    ;  uncertainty k = 0.477094
        17        16        13        43     9        0.000000        0.127234         3    ;  uncertainty k = 0.130546
        17        16        13        43     9      180.000000        0.000600         4    ;  uncertainty k = 0.042732
        18        12        13        43     9        0.000000       -0.994042         1    ;  uncertainty k = 0.833807
        18        12        13        43     9      180.000000        1.709168         2    ;  uncertainty k = 1.049371
        18        12        13        43     9        0.000000        0.804526         3    ;  uncertainty k = 0.319774
        18        12        13        43     9      180.000000        0.303080         4    ;  uncertainty k = 0.068045
        18        17        16        44     9        0.000000       -1.435813         1    ;  uncertainty k = 0.362083
        18        17        16        44     9      180.000000       -0.339245         2    ;  uncertainty k = 0.308496
        18        17        16        44     9        0.000000        0.606388         3    ;  uncertainty k = 0.118688
        18        17        16        44     9      180.000000        0.168691         4    ;  uncertainty k = 0.086944
        18        17        16        45     9        0.000000       -1.435813         1    ;  uncertainty k = 0.362083
        18        17        16        45     9      180.000000       -0.339245         2    ;  uncertainty k = 0.308496
        18        17        16        45     9        0.000000        0.606388         3    ;  uncertainty k = 0.118688
        18        17        16        45     9      180.000000        0.168691         4    ;  uncertainty k = 0.086944
        19        14        13        43     9        0.000000       -2.111572         1    ;  uncertainty k = 0.500510
        19        14        13        43     9      180.000000        2.165370         2    ;  uncertainty k = 0.315940
        19        14        13        43     9        0.000000        0.640569         3    ;  uncertainty k = 0.116888
        19        14        13        43     9      180.000000        0.067232         4    ;  uncertainty k = 0.103740
        19        20        21        22     9        0.000000       -0.417023         1    ;  uncertainty k = 0.938872
        19        20        21        22     9      180.000000        2.933442         2    ;  uncertainty k = 0.359964
        19        20        21        22     9        0.000000        0.314124         3    ;  uncertainty k = 0.188020
        19        20        21        22     9      180.000000        0.387921         4    ;  uncertainty k = 0.065088
        19        20        21        26     9        0.000000       -0.100347         1    ;  uncertainty k = 0.317230
        19        20        21        26     9      180.000000        2.397968         2    ;  uncertainty k = 0.402796
        19        20        21        26     9        0.000000        0.975016         3    ;  uncertainty k = 0.225809
        19        20        21        26     9      180.000000        0.350272         4    ;  uncertainty k = 0.099276
        20        21        22        23     9        0.000000        0.279276         1    ;  uncertainty k = 0.322133
        20        21        22        23     9      180.000000        9.426874         2    ;  uncertainty k = 0.376709
        20        21        22        23     9        0.000000        1.397498         3    ;  uncertainty k = 0.180363
        20        21        22        23     9      180.000000        1.826984         4    ;  uncertainty k = 0.176826
        20        21        22        27     9        0.000000       -0.073806         1    ;  uncertainty k = 0.298835
        20        21        22        27     9      180.000000        7.216026         2    ;  uncertainty k = 0.402924
        20        21        22        27     9        0.000000        0.528726         3    ;  uncertainty k = 0.444758
        20        21        22        27     9      180.000000        1.080958         4    ;  uncertainty k = 0.200520
        20        21        26        25     9        0.000000        0.300687         1    ;  uncertainty k = 0.470806
        20        21        26        25     9      180.000000        6.350323         2    ;  uncertainty k = 0.601460
        20        21        26        25     9        0.000000        1.213581         3    ;  uncertainty k = 0.267181
        20        21        26        25     9      180.000000        1.642179         4    ;  uncertainty k = 0.298630
        20        21        26        31     9        0.000000       -0.226708         1    ;  uncertainty k = 0.337153
        20        21        26        31     9      180.000000       11.295649         2    ;  uncertainty k = 0.396517
        20        21        26        31     9        0.000000        1.109884         3    ;  uncertainty k = 0.293209
        20        21        26        31     9      180.000000        1.262241         4    ;  uncertainty k = 0.197551
        21        20        19        50     9        0.000000        1.910478         1    ;  uncertainty k = 0.509049
        21        20        19        50     9      180.000000       -1.748547         2    ;  uncertainty k = 0.278073
        21        20        19        50     9        0.000000        0.369452         3    ;  uncertainty k = 0.146951
        21        20        19        50     9      180.000000       -0.050988         4    ;  uncertainty k = 0.061655
        21        22        23        24     9        0.000000       -0.070846         1    ;  uncertainty k = 0.289970
        21        22        23        24     9      180.000000        8.975135         2    ;  uncertainty k = 0.466886
        21        22        23        24     9        0.000000       -0.240936         3    ;  uncertainty k = 0.455427
        21        22        23        24     9      180.000000        1.210541         4    ;  uncertainty k = 0.377985
        21        22        23        28     9        0.000000        0.022619         1    ;  uncertainty k = 0.181779
        21        22        23        28     9      180.000000        8.954677         2    ;  uncertainty k = 0.544346
        21        22        23        28     9        0.000000        1.441135         3    ;  uncertainty k = 0.373927
        21        22        23        28     9      180.000000        1.642530         4    ;  uncertainty k = 0.152243
        21        26        25        24     9        0.000000        0.000290         1    ;  uncertainty k = 0.132105
        21        26        25        24     9      180.000000        8.083528         2    ;  uncertainty k = 0.474079
        21        26        25        24     9        0.000000        0.168485         3    ;  uncertainty k = 0.430929
        21        26        25        24     9      180.000000        1.276484         4    ;  uncertainty k = 0.319361
        21        26        25        30     9        0.000000       -0.018723         1    ;  uncertainty k = 0.416062
        21        26        25        30     9      180.000000        5.495645         2    ;  uncertainty k = 0.889663
        21        26        25        30     9        0.000000        1.318586         3    ;  uncertainty k = 0.341853
        21        26        25        30     9      180.000000        1.471190         4    ;  uncertainty k = 0.128789
        22        21        20        51     9        0.000000       -0.411276         1    ;  uncertainty k = 0.383108
        22        21        20        51     9      180.000000        2.268817         2    ;  uncertainty k = 0.148054
        22        21        20        51     9        0.000000        0.353388         3    ;  uncertainty k = 0.081263
        22        21        20        51     9      180.000000        0.167946         4    ;  uncertainty k = 0.031548
        22        21        20        52     9        0.000000       -0.411276         1    ;  uncertainty k = 0.383108
        22        21        20        52     9      180.000000        2.268817         2    ;  uncertainty k = 0.148054
        22        21        20        52     9        0.000000        0.353388         3    ;  uncertainty k = 0.081263
        22        21        20        52     9      180.000000        0.167946         4    ;  uncertainty k = 0.031548
        22        21        26        25     9        0.000000       -0.327138         1    ;  uncertainty k = 0.255003
        22        21        26        25     9      180.000000        6.559041         2    ;  uncertainty k = 0.929467
        22        21        26        25     9        0.000000        0.341056         3    ;  uncertainty k = 0.372262
        22        21        26        25     9      180.000000        1.176348         4    ;  uncertainty k = 0.371256
        22        21        26        31     9        0.000000        0.085375         1    ;  uncertainty k = 0.194078
        22        21        26        31     9      180.000000       11.287199         2    ;  uncertainty k = 0.163857
        22        21        26        31     9        0.000000        1.449867         3    ;  uncertainty k = 0.113315
        22        21        26        31     9      180.000000        1.456646         4    ;  uncertainty k = 0.184976
        22        23        24        25     9        0.000000        0.029821         1    ;  uncertainty k = 0.180424
        22        23        24        25     9      180.000000       10.551742         2    ;  uncertainty k = 0.364972
        22        23        24        25     9        0.000000       -0.463536         3    ;  uncertainty k = 0.561608
        22        23        24        25     9      180.000000        0.971180         4    ;  uncertainty k = 0.419797
        22        23        24        29     9        0.000000        0.037659         1    ;  uncertainty k = 0.141511
        22        23        24        29     9      180.000000        6.079871         2    ;  uncertainty k = 0.544929
        22        23        24        29     9        0.000000        1.401333         3    ;  uncertainty k = 0.329226
        22        23        24        29     9      180.000000        1.528778         4    ;  uncertainty k = 0.188386
        23        22        21        26     9        0.000000        0.054851         1    ;  uncertainty k = 0.207033
        23        22        21        26     9      180.000000       11.271526         2    ;  uncertainty k = 0.245563
        23        22        21        26     9        0.000000        0.024864         3    ;  uncertainty k = 0.448284
        23        22        21        26     9      180.000000        1.137140         4    ;  uncertainty k = 0.348343
        23        24        25        26     9        0.000000        0.028407         1    ;  uncertainty k = 0.327967
        23        24        25        26     9      180.000000       14.444097         2    ;  uncertainty k = 0.266608
        23        24        25        26     9        0.000000       -0.896865         3    ;  uncertainty k = 0.510013
        23        24        25        26     9      180.000000        0.798742         4    ;  uncertainty k = 0.326603
        23        24        25        30     9        0.000000        0.071664         1    ;  uncertainty k = 0.112655
        23        24        25        30     9      180.000000        7.551556         2    ;  uncertainty k = 0.304247
        23        24        25        30     9        0.000000        1.491318         3    ;  uncertainty k = 0.295434
        23        24        25        30     9      180.000000        1.856834         4    ;  uncertainty k = 0.215760
        24        23        22        27     9        0.000000       -0.013465         1    ;  uncertainty k = 0.182183
        24        23        22        27     9      180.000000        6.209250         2    ;  uncertainty k = 0.592085
        24        23        22        27     9        0.000000        1.387545         3    ;  uncertainty k = 0.342230
        24        23        22        27     9      180.000000        1.594518         4    ;  uncertainty k = 0.162315
        24        25        26        31     9        0.000000       -0.039023         1    ;  uncertainty k = 0.403326
        24        25        26        31     9      180.000000       12.744267         2    ;  uncertainty k = 0.465018
        24        25        26        31     9        0.000000        1.416533         3    ;  uncertainty k = 0.299523
        24        25        26        31     9      180.000000        1.522652         4    ;  uncertainty k = 0.256427
        25        24        23        28     9        0.000000        0.036585         1    ;  uncertainty k = 0.125395
        25        24        23        28     9      180.000000        9.443371         2    ;  uncertainty k = 0.662745
        25        24        23        28     9        0.000000        1.516949         3    ;  uncertainty k = 0.410252
        25        24        23        28     9      180.000000        1.630370         4    ;  uncertainty k = 0.169619
        26        21        20        51     9        0.000000        0.095236         1    ;  uncertainty k = 0.380742
        26        21        20        51     9      180.000000        2.229942         2    ;  uncertainty k = 0.310140
        26        21        20        51     9        0.000000        0.386843         3    ;  uncertainty k = 0.125146
        26        21        20        51     9      180.000000        0.236808         4    ;  uncertainty k = 0.069174
        26        21        20        52     9        0.000000        0.095236         1    ;  uncertainty k = 0.380742
        26        21        20        52     9      180.000000        2.229942         2    ;  uncertainty k = 0.310140
        26        21        20        52     9        0.000000        0.386843         3    ;  uncertainty k = 0.125146
        26        21        20        52     9      180.000000        0.236808         4    ;  uncertainty k = 0.069174
        26        21        22        27     9        0.000000        0.145152         1    ;  uncertainty k = 0.171509
        26        21        22        27     9      180.000000        7.611173         2    ;  uncertainty k = 0.466835
        26        21        22        27     9        0.000000        1.342662         3    ;  uncertainty k = 0.397950
        26        21        22        27     9      180.000000        1.678106         4    ;  uncertainty k = 0.165601
        26        25        24        29     9        0.000000        0.031046         1    ;  uncertainty k = 0.152969
        26        25        24        29     9      180.000000        7.506472         2    ;  uncertainty k = 0.418556
        26        25        24        29     9        0.000000        1.374904         3    ;  uncertainty k = 0.288443
        26        25        24        29     9      180.000000        1.761261         4    ;  uncertainty k = 0.168840
        27        22        23        28     9        0.000000       -0.135399         1    ;  uncertainty k = 0.317722
        27        22        23        28     9      180.000000        7.385771         2    ;  uncertainty k = 0.283549
        27        22        23        28     9        0.000000        0.634579         3    ;  uncertainty k = 0.342471
        27        22        23        28     9      180.000000        1.002812         4    ;  uncertainty k = 0.169234
        28        23        24        29     9        0.000000       -0.100357         1    ;  uncertainty k = 0.158227
        28        23        24        29     9      180.000000        7.319807         2    ;  uncertainty k = 0.267398
        28        23        24        29     9        0.000000        0.616671         3    ;  uncertainty k = 0.363753
        28        23        24        29     9      180.000000        0.940002         4    ;  uncertainty k = 0.153943
        29        24        25        30     9        0.000000       -0.013349         1    ;  uncertainty k = 0.239713
        29        24        25        30     9      180.000000        7.520789         2    ;  uncertainty k = 0.497566
        29        24        25        30     9        0.000000       -0.405372         3    ;  uncertainty k = 0.218304
        29        24        25        30     9      180.000000        0.042110         4    ;  uncertainty k = 0.193482
        30        25        26        31     9        0.000000       -0.282129         1    ;  uncertainty k = 0.229368
        30        25        26        31     9      180.000000        9.509357         2    ;  uncertainty k = 0.252896
        30        25        26        31     9        0.000000        0.877376         3    ;  uncertainty k = 0.212614
        30        25        26        31     9      180.000000        1.025748         4    ;  uncertainty k = 0.161925
        32         8        10        33     9        0.000000       -0.016997         1    ;  uncertainty k = 0.094262
        32         8        10        33     9      180.000000        7.719595         2    ;  uncertainty k = 0.283398
        32         8        10        33     9        0.000000       -0.432066         3    ;  uncertainty k = 0.234120
        32         8        10        33     9      180.000000        0.115397         4    ;  uncertainty k = 0.122173
        33        10        11        35     9        0.000000       -0.006372         1    ;  uncertainty k = 0.088779
        33        10        11        35     9      180.000000        7.464231         2    ;  uncertainty k = 0.352345
        33        10        11        35     9        0.000000       -0.416733         3    ;  uncertainty k = 0.274619
        33        10        11        35     9      180.000000        0.051451         4    ;  uncertainty k = 0.138380
        34         9         7        36     9        0.000000       -0.016997         1    ;  uncertainty k = 0.094262
        34         9         7        36     9      180.000000        7.719595         2    ;  uncertainty k = 0.283398
        34         9         7        36     9        0.000000       -0.432066         3    ;  uncertainty k = 0.234120
        34         9         7        36     9      180.000000        0.115397         4    ;  uncertainty k = 0.122173
        34         9        11        35     9        0.000000       -0.006372         1    ;  uncertainty k = 0.088779
        34         9        11        35     9      180.000000        7.464231         2    ;  uncertainty k = 0.352345
        34         9        11        35     9        0.000000       -0.416733         3    ;  uncertainty k = 0.274619
        34         9        11        35     9      180.000000        0.051451         4    ;  uncertainty k = 0.138380
        37         1         2        40     9        0.000000        0.100610         1    ;  uncertainty k = 0.540180
        37         1         2        40     9      180.000000       -0.324825         2    ;  uncertainty k = 0.402334
        37         1         2        40     9        0.000000        0.291530         3    ;  uncertainty k = 0.018257
        37         1         2        40     9      180.000000        0.030305         4    ;  uncertainty k = 0.119402
        38         1         2        40     9        0.000000        0.100610         1    ;  uncertainty k = 0.540180
        38         1         2        40     9      180.000000       -0.324825         2    ;  uncertainty k = 0.402334
        38         1         2        40     9        0.000000        0.291530         3    ;  uncertainty k = 0.018257
        38         1         2        40     9      180.000000        0.030305         4    ;  uncertainty k = 0.119402
        39         1         2        40     9        0.000000        0.100610         1    ;  uncertainty k = 0.540180
        39         1         2        40     9      180.000000       -0.324825         2    ;  uncertainty k = 0.402334
        39         1         2        40     9        0.000000        0.291530         3    ;  uncertainty k = 0.018257
        39         1         2        40     9      180.000000        0.030305         4    ;  uncertainty k = 0.119402
        40         2         5        41     9        0.000000        0.165885         1    ;  uncertainty k = 0.305750
        40         2         5        41     9      180.000000       -0.286547         2    ;  uncertainty k = 0.184659
        40         2         5        41     9        0.000000        0.121008         3    ;  uncertainty k = 0.147363
        40         2         5        41     9      180.000000        0.029743         4    ;  uncertainty k = 0.121930
        40         2         5        42     9        0.000000        0.165885         1    ;  uncertainty k = 0.305750
        40         2         5        42     9      180.000000       -0.286547         2    ;  uncertainty k = 0.184659
        40         2         5        42     9        0.000000        0.121008         3    ;  uncertainty k = 0.147363
        40         2         5        42     9      180.000000        0.029743         4    ;  uncertainty k = 0.121930
        43        13        16        44     9        0.000000        0.509911         1    ;  uncertainty k = 0.672047
        43        13        16        44     9      180.000000       -0.642425         2    ;  uncertainty k = 0.180700
        43        13        16        44     9        0.000000        0.309200         3    ;  uncertainty k = 0.127210
        43        13        16        44     9      180.000000        0.005015         4    ;  uncertainty k = 0.037750
        43        13        16        45     9        0.000000        0.509911         1    ;  uncertainty k = 0.672047
        43        13        16        45     9      180.000000       -0.642425         2    ;  uncertainty k = 0.180700
        43        13        16        45     9        0.000000        0.309200         3    ;  uncertainty k = 0.127210
        43        13        16        45     9      180.000000        0.005015         4    ;  uncertainty k = 0.037750
        44        16        17        46     9        0.000000        1.560403         1    ;  uncertainty k = 0.401862
        44        16        17        46     9      180.000000       -0.083465         2    ;  uncertainty k = 0.173949
        44        16        17        46     9        0.000000        0.762937         3    ;  uncertainty k = 0.121219
        44        16        17        46     9      180.000000        0.017215         4    ;  uncertainty k = 0.044110
        44        16        17        47     9        0.000000        1.560403         1    ;  uncertainty k = 0.401862
        44        16        17        47     9      180.000000       -0.083465         2    ;  uncertainty k = 0.173949
        44        16        17        47     9        0.000000        0.762937         3    ;  uncertainty k = 0.121219
        44        16        17        47     9      180.000000        0.017215         4    ;  uncertainty k = 0.044110
        45        16        17        46     9        0.000000        1.560403         1    ;  uncertainty k = 0.401862
        45        16        17        46     9      180.000000       -0.083465         2    ;  uncertainty k = 0.173949
        45        16        17        46     9        0.000000        0.762937         3    ;  uncertainty k = 0.121219
        45        16        17        46     9      180.000000        0.017215         4    ;  uncertainty k = 0.044110
        45        16        17        47     9        0.000000        1.560403         1    ;  uncertainty k = 0.401862
        45        16        17        47     9      180.000000       -0.083465         2    ;  uncertainty k = 0.173949
        45        16        17        47     9        0.000000        0.762937         3    ;  uncertainty k = 0.121219
        45        16        17        47     9      180.000000        0.017215         4    ;  uncertainty k = 0.044110
        46        17        18        48     9        0.000000        0.822630         1    ;  uncertainty k = 0.312507
        46        17        18        48     9      180.000000       -0.203104         2    ;  uncertainty k = 0.173309
        46        17        18        48     9        0.000000        0.483280         3    ;  uncertainty k = 0.114155
        46        17        18        48     9      180.000000        0.011800         4    ;  uncertainty k = 0.063446
        46        17        18        49     9        0.000000        0.822630         1    ;  uncertainty k = 0.312507
        46        17        18        49     9      180.000000       -0.203104         2    ;  uncertainty k = 0.173309
        46        17        18        49     9        0.000000        0.483280         3    ;  uncertainty k = 0.114155
        46        17        18        49     9      180.000000        0.011800         4    ;  uncertainty k = 0.063446
        47        17        18        48     9        0.000000        0.822630         1    ;  uncertainty k = 0.312507
        47        17        18        48     9      180.000000       -0.203104         2    ;  uncertainty k = 0.173309
        47        17        18        48     9        0.000000        0.483280         3    ;  uncertainty k = 0.114155
        47        17        18        48     9      180.000000        0.011800         4    ;  uncertainty k = 0.063446
        47        17        18        49     9        0.000000        0.822630         1    ;  uncertainty k = 0.312508
        47        17        18        49     9      180.000000       -0.203103         2    ;  uncertainty k = 0.173310
        47        17        18        49     9        0.000000        0.483280         3    ;  uncertainty k = 0.114154
        47        17        18        49     9      180.000000        0.011800         4    ;  uncertainty k = 0.063446
        50        19        20        51     9        0.000000        0.601659         1    ;  uncertainty k = 0.470379
        50        19        20        51     9      180.000000       -0.377488         2    ;  uncertainty k = 0.139346
        50        19        20        51     9        0.000000        0.300087         3    ;  uncertainty k = 0.055954
        50        19        20        51     9      180.000000        0.145419         4    ;  uncertainty k = 0.062010
        50        19        20        52     9        0.000000        0.601659         1    ;  uncertainty k = 0.470379
        50        19        20        52     9      180.000000       -0.377488         2    ;  uncertainty k = 0.139346
        50        19        20        52     9        0.000000        0.300087         3    ;  uncertainty k = 0.055954
        50        19        20        52     9      180.000000        0.145419         4    ;  uncertainty k = 0.062010

[ dihedrals ] ; impropers
;       ai        aj        ak        al funct           phase               k        pn
         3         2         4        12     4      180.000000       49.783366         2    ;  uncertainty k = 0.027500
         3         4        12         2     4      180.000000       49.783366         2    ;  uncertainty k = 0.027500
         3        12         2         4     4      180.000000       49.783366         2    ;  uncertainty k = 0.027500
         6         5         7         8     4      180.000000       10.754127         2    ;  uncertainty k = 0.151417
         6         7         8         5     4      180.000000       10.754127         2    ;  uncertainty k = 0.151417
         6         8         5         7     4      180.000000       10.754127         2    ;  uncertainty k = 0.151417
         7         6         9        36     4      180.000000        3.855665         2    ;  uncertainty k = 0.189968
         7         9        36         6     4      180.000000        3.855665         2    ;  uncertainty k = 0.189968
         7        36         6         9     4      180.000000        3.855665         2    ;  uncertainty k = 0.189968
         8         6        10        32     4      180.000000        3.855665         2    ;  uncertainty k = 0.189968
         8        10        32         6     4      180.000000        3.855665         2    ;  uncertainty k = 0.189968
         8        32         6        10     4      180.000000        3.855665         2    ;  uncertainty k = 0.189968
         9         7        11        34     4      180.000000        4.460718         2    ;  uncertainty k = 0.059202
         9        11        34         7     4      180.000000        4.460718         2    ;  uncertainty k = 0.059202
         9        34         7        11     4      180.000000        4.460718         2    ;  uncertainty k = 0.059202
        10         8        11        33     4      180.000000        4.460718         2    ;  uncertainty k = 0.059202
        10        11        33         8     4      180.000000        4.460718         2    ;  uncertainty k = 0.059202
        10        33         8        11     4      180.000000        4.460718         2    ;  uncertainty k = 0.059202
        11         9        10        35     4      180.000000        4.333637         2    ;  uncertainty k = 0.163022
        11        10        35         9     4      180.000000        4.333637         2    ;  uncertainty k = 0.163022
        11        35         9        10     4      180.000000        4.333637         2    ;  uncertainty k = 0.163022
        14        13        15        19     4      180.000000       51.069766         2    ;  uncertainty k = 0.041750
        14        15        19        13     4      180.000000       51.069766         2    ;  uncertainty k = 0.041750
        14        19        13        15     4      180.000000       51.069766         2    ;  uncertainty k = 0.041750
        21        20        22        26     4      180.000000        9.867372         2    ;  uncertainty k = 0.149581
        21        22        26        20     4      180.000000        9.867372         2    ;  uncertainty k = 0.149581
        21        26        20        22     4      180.000000        9.867372         2    ;  uncertainty k = 0.149581
        22        21        23        27     4      180.000000        4.030657         2    ;  uncertainty k = 0.129133
        22        23        27        21     4      180.000000        4.030657         2    ;  uncertainty k = 0.129133
        22        27        21        23     4      180.000000        4.030657         2    ;  uncertainty k = 0.129133
        23        22        24        28     4      180.000000       12.414225         2    ;  uncertainty k = 0.062599
        23        24        28        22     4      180.000000       12.414225         2    ;  uncertainty k = 0.062599
        23        28        22        24     4      180.000000       12.414225         2    ;  uncertainty k = 0.062599
        24        23        25        29     4      180.000000        3.902883         2    ;  uncertainty k = 0.169254
        24        25        29        23     4      180.000000        3.902883         2    ;  uncertainty k = 0.169254
        24        29        23        25     4      180.000000        3.902883         2    ;  uncertainty k = 0.169254
        25        24        26        30     4      180.000000        2.469178         2    ;  uncertainty k = 0.116908
        25        26        30        24     4      180.000000        2.469178         2    ;  uncertainty k = 0.116908
        25        30        24        26     4      180.000000        2.469178         2    ;  uncertainty k = 0.116908
        26        21        25        31     4      180.000000       16.350531         2    ;  uncertainty k = 0.098903
        26        25        31        21     4      180.000000       16.350531         2    ;  uncertainty k = 0.098903
        26        31        21        25     4      180.000000       16.350531         2    ;  uncertainty k = 0.098903

[ pairs ]
;       ai        aj funct
         1         4     1
         1         6     1
         1        12     1
         1        41     1
         1        42     1
         2         7     1
         2         8     1
         2        13     1
         2        18     1
         3         6     1
         3        14     1
         3        16     1
         3        17     1
         3        37     1
         3        38     1
         3        39     1
         3        41     1
         3        42     1
         3        43     1
         3        48     1
         3        49     1
         4         5     1
         4        13     1
         4        18     1
         4        40     1
         5         9     1
         5        10     1
         5        12     1
         5        32     1
         5        36     1
         5        37     1
         5        38     1
         5        39     1
         6        11     1
         6        33     1
         6        34     1
         6        40     1
         7        10     1
         7        32     1
         7        35     1
         7        41     1
         7        42     1
         8         9     1
         8        35     1
         8        36     1
         8        41     1
         8        42     1
         9        33     1
        10        34     1
        11        32     1
        11        36     1
        12        15     1
        12        19     1
        12        40     1
        12        44     1
        12        45     1
        12        46     1
        12        47     1
        13        20     1
        13        46     1
        13        47     1
        13        48     1
        13        49     1
        13        50     1
        14        17     1
        14        18     1
        14        21     1
        14        44     1
        14        45     1
        14        51     1
        14        52     1
        15        16     1
        15        20     1
        15        43     1
        15        50     1
        16        19     1
        16        48     1
        16        49     1
        17        43     1
        18        43     1
        18        44     1
        18        45     1
        19        22     1
        19        26     1
        19        43     1
        20        23     1
        20        25     1
        20        27     1
        20        31     1
        21        24     1
        21        28     1
        21        30     1
        21        50     1
        22        25     1
        22        29     1
        22        31     1
        22        51     1
        22        52     1
        23        26     1
        23        30     1
        24        27     1
        24        31     1
        25        28     1
        26        27     1
        26        29     1
        26        51     1
        26        52     1
        27        28     1
        28        29     1
        29        30     1
        30        31     1
        32        33     1
        33        35     1
        34        35     1
        34        36     1
        37        40     1
        38        40     1
        39        40     1
        40        41     1
        40        42     1
        43        44     1
        43        45     1
        44        46     1
        44        47     1
        45        46     1
        45        47     1
        46        48     1
        46        49     1
        47        48     1
        47        49     1
        50        51     1
        50        52     1
