; ITP file created by ByteFF-ML, 2025-12-06 06:45:38.538244

[ atomtypes ]
;name           bonded.type        at.num        mass        charge   ptype           sigma         epsilon
 c0bf                                   6      0.0000       0.00000       A     3.39760e-01     4.50369e-01
 c1bf                                   6      0.0000       0.00000       A     3.31516e-01     4.13427e-01
 n2bf                                   7      0.0000       0.00000       A     3.38377e-01     3.90648e-01
 c3bf                                   6      0.0000       0.00000       A     3.31645e-01     4.12126e-01
 c4bf                                   6      0.0000       0.00000       A     3.31739e-01     4.15971e-01
 o5bf                                   8      0.0000       0.00000       A     3.15483e-01     3.08763e-01
 c6bf                                   6      0.0000       0.00000       A     3.31407e-01     4.14249e-01
 o7bf                                   8      0.0000       0.00000       A     3.04598e-01     6.10948e-01
 n8bf                                   7      0.0000       0.00000       A     3.27182e-01     4.89786e-01
 c9bf                                   6      0.0000       0.00000       A     3.31464e-01     4.12919e-01
 c10bf                                  6      0.0000       0.00000       A     3.31510e-01     4.12372e-01
 c11bf                                  6      0.0000       0.00000       A     3.31472e-01     4.13174e-01
 c12bf                                  6      0.0000       0.00000       A     3.31428e-01     4.11122e-01
 f13bf                                  9      0.0000       0.00000       A     3.03512e-01     3.48021e-01
 c14bf                                  6      0.0000       0.00000       A     3.31773e-01     4.12332e-01
 c15bf                                  6      0.0000       0.00000       A     3.31717e-01     4.13423e-01
 c16bf                                  6      0.0000       0.00000       A     3.39819e-01     4.49618e-01
 c17bf                                  6      0.0000       0.00000       A     3.39780e-01     4.49359e-01
 c18bf                                  6      0.0000       0.00000       A     3.39742e-01     4.47260e-01
 c19bf                                  6      0.0000       0.00000       A     3.31488e-01     4.13133e-01
 o20bf                                  8      0.0000       0.00000       A     3.04968e-01     6.14477e-01
 n21bf                                  7      0.0000       0.00000       A     3.17488e-01     6.93060e-01
 c22bf                                  6      0.0000       0.00000       A     3.39806e-01     4.54465e-01
 c23bf                                  6      0.0000       0.00000       A     3.31339e-01     4.08994e-01
 n24bf                                  7      0.0000       0.00000       A     3.36511e-01     4.76104e-01
 n25bf                                  7      0.0000       0.00000       A     3.27880e-01     6.42737e-01
 h26bf                                  1      0.0000       0.00000       A     2.60057e-01     8.77950e-02
 h27bf                                  1      0.0000       0.00000       A     2.60057e-01     8.77950e-02
 h28bf                                  1      0.0000       0.00000       A     2.60057e-01     8.77950e-02
 h29bf                                  1      0.0000       0.00000       A     2.53851e-01     6.77643e-02
 h30bf                                  1      0.0000       0.00000       A     1.10759e-01     4.02066e-02
 h31bf                                  1      0.0000       0.00000       A     2.62514e-01     6.73797e-02
 h32bf                                  1      0.0000       0.00000       A     2.62616e-01     6.73621e-02
 h33bf                                  1      0.0000       0.00000       A     2.62747e-01     6.80357e-02
 h34bf                                  1      0.0000       0.00000       A     2.59965e-01     8.80775e-02
 h35bf                                  1      0.0000       0.00000       A     2.59965e-01     8.80775e-02
 h36bf                                  1      0.0000       0.00000       A     2.59965e-01     8.80775e-02
 h37bf                                  1      0.0000       0.00000       A     2.60156e-01     8.72124e-02
 h38bf                                  1      0.0000       0.00000       A     2.60156e-01     8.72124e-02
 h39bf                                  1      0.0000       0.00000       A     2.41897e-01     8.69315e-02
 h40bf                                  1      0.0000       0.00000       A     2.41897e-01     8.69315e-02
 h41bf                                  1      0.0000       0.00000       A     2.41897e-01     8.69315e-02
 h42bf                                  1      0.0000       0.00000       A     1.10532e-01     4.19974e-02
 h43bf                                  1      0.0000       0.00000       A     1.10532e-01     4.19974e-02
 h44bf                                  1      0.0000       0.00000       A     1.10387e-01     4.22703e-02

[ moleculetype ]
;name             nrexcl
 17a                   3

[ atoms ]
;       nr            type      resi   res      atom      cgnr      charge          mass ; qtot
         1            c0bf         1   UNL        c0         1    -0.12009       12.0110 ; qtot   -0.120
         2            c1bf         1   UNL        c1         2     0.45308       12.0110 ; qtot    0.333
         3            n2bf         1   UNL        n2         3    -0.66313       14.0070 ; qtot   -0.330
         4            c3bf         1   UNL        c3         4     0.17432       12.0110 ; qtot   -0.156
         5            c4bf         1   UNL        c4         5     0.17151       12.0110 ; qtot    0.016
         6            o5bf         1   UNL        o5         6    -0.27061       15.9990 ; qtot   -0.255
         7            c6bf         1   UNL        c6         7     0.54326       12.0110 ; qtot    0.288
         8            o7bf         1   UNL        o7         8    -0.57011       15.9990 ; qtot   -0.282
         9            n8bf         1   UNL        n8         9    -0.14425       14.0070 ; qtot   -0.426
        10            c9bf         1   UNL        c9        10    -0.01176       12.0110 ; qtot   -0.438
        11           c10bf         1   UNL       c10        11    -0.12424       12.0110 ; qtot   -0.562
        12           c11bf         1   UNL       c11        12    -0.09687       12.0110 ; qtot   -0.659
        13           c12bf         1   UNL       c12        13     0.15629       12.0110 ; qtot   -0.503
        14           f13bf         1   UNL       f13        14    -0.18071       18.9980 ; qtot   -0.683
        15           c14bf         1   UNL       c14        15    -0.14051       12.0110 ; qtot   -0.824
        16           c15bf         1   UNL       c15        16    -0.09257       12.0110 ; qtot   -0.916
        17           c16bf         1   UNL       c16        17     0.19513       12.0110 ; qtot   -0.721
        18           c17bf         1   UNL       c17        18    -0.11146       12.0110 ; qtot   -0.833
        19           c18bf         1   UNL       c18        19    -0.17299       12.0110 ; qtot   -1.006
        20           c19bf         1   UNL       c19        20     0.56299       12.0110 ; qtot   -0.443
        21           o20bf         1   UNL       o20        21    -0.40580       15.9990 ; qtot   -0.849
        22           n21bf         1   UNL       n21        22    -0.74198       14.0070 ; qtot   -1.591
        23           c22bf         1   UNL       c22        23     0.05392       12.0110 ; qtot   -1.537
        24           c23bf         1   UNL       c23        24     0.98206       12.0110 ; qtot   -0.555
        25           n24bf         1   UNL       n24        25    -0.64294       14.0070 ; qtot   -1.197
        26           n25bf         1   UNL       n25        26    -0.48739       14.0070 ; qtot   -1.685
        27           h26bf         1   UNL       h26        27     0.06762        1.0080 ; qtot   -1.617
        28           h27bf         1   UNL       h27        28     0.06762        1.0080 ; qtot   -1.550
        29           h28bf         1   UNL       h28        29     0.06762        1.0080 ; qtot   -1.482
        30           h29bf         1   UNL       h29        30     0.07439        1.0080 ; qtot   -1.408
        31           h30bf         1   UNL       h30        31     0.16696        1.0080 ; qtot   -1.241
        32           h31bf         1   UNL       h31        32     0.13797        1.0080 ; qtot   -1.103
        33           h32bf         1   UNL       h32        33     0.14099        1.0080 ; qtot   -0.962
        34           h33bf         1   UNL       h33        34     0.14480        1.0080 ; qtot   -0.817
        35           h34bf         1   UNL       h34        35     0.06599        1.0080 ; qtot   -0.751
        36           h35bf         1   UNL       h35        36     0.06599        1.0080 ; qtot   -0.685
        37           h36bf         1   UNL       h36        37     0.06599        1.0080 ; qtot   -0.619
        38           h37bf         1   UNL       h37        38     0.10671        1.0080 ; qtot   -0.512
        39           h38bf         1   UNL       h38        39     0.10671        1.0080 ; qtot   -0.405
        40           h39bf         1   UNL       h39        40     0.08743        1.0080 ; qtot   -0.318
        41           h40bf         1   UNL       h40        41     0.08743        1.0080 ; qtot   -0.231
        42           h41bf         1   UNL       h41        42     0.08743        1.0080 ; qtot   -0.143
        43           h42bf         1   UNL       h42        43     0.38091        1.0080 ; qtot    0.238
        44           h43bf         1   UNL       h43        44     0.38091        1.0080 ; qtot    0.619
        45           h44bf         1   UNL       h44        45     0.38138        1.0080 ; qtot    1.000

[ bonds ]
;       ai        aj funct               r               k
         1         2     1        0.148789   229730.456934
         1        27     1        0.109289   308044.088770
         1        28     1        0.109289   308044.088770
         1        29     1        0.109289   308044.088770
         2         3     1        0.129783   429332.845117
         2         6     1        0.137363   182369.934009
         3         4     1        0.139756   222769.755957
         4         5     1        0.136275   390767.289893
         4         7     1        0.148841   196903.703076
         5         6     1        0.136707   241123.838281
         5        30     1        0.107900   349950.332031
         7         8     1        0.122953   606537.298633
         7         9     1        0.137428   271690.200439
         9        10     1        0.140758   250538.093652
         9        31     1        0.101307   414510.851465
        10        11     1        0.140467   284805.063867
        10        16     1        0.140476   283257.259668
        11        12     1        0.139426   325713.342432
        11        32     1        0.108349   327030.265625
        12        13     1        0.138798   314310.512354
        12        33     1        0.108490   324352.010205
        13        14     1        0.136530   271856.268262
        13        15     1        0.139894   278911.099023
        15        16     1        0.140096   296166.089697
        15        17     1        0.152812   166468.244141
        16        34     1        0.108236   327061.471973
        17        18     1        0.153665   173225.810181
        17        19     1        0.153567   173208.074658
        17        26     1        0.149597   141757.068726
        18        35     1        0.109224   306904.801709
        18        36     1        0.109224   306904.801709
        18        37     1        0.109224   306904.801709
        19        20     1        0.150975   184500.226904
        19        38     1        0.109235   306950.691895
        19        39     1        0.109235   306950.691895
        20        21     1        0.120853   693911.496875
        20        22     1        0.143868   140884.248633
        22        23     1        0.147696   175044.486499
        22        24     1        0.135713   303098.470020
        23        40     1        0.108963   312518.496777
        23        41     1        0.108963   312518.496777
        23        42     1        0.108963   312518.496777
        24        25     1        0.134206   388899.990918
        24        26     1        0.132907   389370.307861
        25        43     1        0.101314   426532.573389
        25        44     1        0.101314   426532.573389
        26        45     1        0.101465   415734.998340

[ angles ]
;       ai        aj        ak funct           theta             cth
         1         2         3     1      129.348236      286.267325
         1         2         6     1      117.667992      674.202862
         2         1        27     1      110.181679      511.136289
         2         1        28     1      110.181679      511.136289
         2         1        29     1      110.181679      511.136289
         2         3         4     1      105.359398      383.256915
         2         6         5     1      105.020920      473.406742
         3         2         6     1      113.168663      221.144600
         3         4         5     1      108.891212      167.360000
         3         4         7     1      122.837975      452.071860
         4         5         6     1      107.719116      167.360000
         4         5        30     1      134.919556      254.180091
         4         7         8     1      122.009109      632.501210
         4         7         9     1      112.771744      477.816331
         5         4         7     1      128.091843      432.641439
         6         5        30     1      117.458046      458.975243
         7         9        10     1      129.328339      469.618184
         7         9        31     1      114.819962      457.338282
         8         7         9     1      125.540161      608.104460
         9        10        11     1      120.467934      610.407077
         9        10        16     1      119.660194      494.161134
        10         9        31     1      115.982651      428.078660
        10        11        12     1      119.686447      726.576218
        10        11        32     1      120.052902      447.144666
        10        16        15     1      121.593430      696.789223
        10        16        34     1      118.739769      439.756685
        11        10        16     1      119.157578      566.562606
        11        12        13     1      119.369041      689.235601
        11        12        33     1      121.058151      427.476208
        12        11        32     1      120.206177      388.412124
        12        13        14     1      117.918320      539.378736
        12        13        15     1      122.595787      574.355574
        13        12        33     1      119.387718      441.378291
        13        15        16     1      116.945816      634.692613
        13        15        17     1      121.347694      572.506879
        14        13        15     1      119.443459      475.848377
        15        16        34     1      119.734886      394.665427
        15        17        18     1      112.150978      637.670687
        15        17        19     1      112.415359      569.859766
        15        17        26     1      108.144691      616.878117
        16        15        17     1      121.225464      438.879932
        17        18        35     1      110.547928      483.347764
        17        18        36     1      110.547928      483.347764
        17        18        37     1      110.547928      483.347764
        17        19        20     1      112.962242      858.197672
        17        19        38     1      110.220703      459.941024
        17        19        39     1      110.220703      459.941024
        17        26        24     1      124.150955      563.036505
        17        26        45     1      115.930809      393.822703
        18        17        19     1      111.052078      578.840273
        18        17        26     1      107.994339      619.444852
        19        17        26     1      106.247513      594.016275
        19        20        21     1      124.425797      503.203952
        19        20        22     1      115.390335      572.197305
        20        19        38     1      107.516373      561.619451
        20        19        39     1      107.516373      561.619451
        20        22        23     1      117.459496      580.627679
        20        22        24     1      121.459251      729.251932
        21        20        22     1      119.763596      657.290848
        22        23        40     1      109.269554      472.759249
        22        23        41     1      109.269554      472.759249
        22        23        42     1      109.269554      472.759249
        22        24        25     1      119.756981      585.233616
        22        24        26     1      120.408371      674.619820
        23        22        24     1      120.348282      490.741619
        24        25        43     1      121.193443      447.355507
        24        25        44     1      121.193443      447.355507
        24        26        45     1      117.963646      468.739676
        25        24        26     1      120.045181      584.318047
        27         1        28     1      108.775284      358.939810
        27         1        29     1      108.775284      358.939810
        28         1        29     1      108.775284      358.939810
        35        18        36     1      108.453712      358.661487
        35        18        37     1      108.453712      358.661487
        36        18        37     1      108.453712      358.661487
        38        19        39     1      107.501564      353.259526
        40        23        41     1      109.723488      346.581860
        40        23        42     1      109.723488      346.581860
        41        23        42     1      109.723488      346.581860
        43        25        44     1      116.920242      317.248244

[ dihedrals ] ; propers for gromacs 4.5 or higher, use funct 9
;       ai        aj        ak        al funct           phase               k        pn
         1         2         3         4     9        0.000000        0.817778         1
         1         2         3         4     9      180.000000       28.587028         2
         1         2         3         4     9        0.000000        0.966640         3
         1         2         3         4     9      180.000000       -1.065762         4
         1         2         6         5     9        0.000000        0.743781         1
         1         2         6         5     9      180.000000       15.998275         2
         1         2         6         5     9        0.000000        0.620304         3
         1         2         6         5     9      180.000000       -0.841282         4
         2         3         4         5     9        0.000000       -0.228839         1
         2         3         4         5     9      180.000000       27.383385         2
         2         3         4         5     9        0.000000       -5.658729         3
         2         3         4         5     9      180.000000        0.212299         4
         2         3         4         7     9        0.000000        1.607508         1
         2         3         4         7     9      180.000000       15.819660         2
         2         3         4         7     9        0.000000        0.582862         3
         2         3         4         7     9      180.000000       -0.590920         4
         2         6         5         4     9        0.000000       -0.003561         1
         2         6         5         4     9      180.000000       22.269403         2
         2         6         5         4     9        0.000000       -5.225452         3
         2         6         5         4     9      180.000000        0.016653         4
         2         6         5        30     9        0.000000        1.370392         1
         2         6         5        30     9      180.000000        6.644264         2
         2         6         5        30     9        0.000000        0.361767         3
         2         6         5        30     9      180.000000        0.192151         4
         3         2         1        27     9        0.000000        0.009316         1
         3         2         1        27     9      180.000000       -0.078240         2
         3         2         1        27     9        0.000000        0.080536         3
         3         2         1        27     9      180.000000        0.004240         4
         3         2         1        28     9        0.000000        0.009316         1
         3         2         1        28     9      180.000000       -0.078240         2
         3         2         1        28     9        0.000000        0.080536         3
         3         2         1        28     9      180.000000        0.004240         4
         3         2         1        29     9        0.000000        0.009316         1
         3         2         1        29     9      180.000000       -0.078240         2
         3         2         1        29     9        0.000000        0.080536         3
         3         2         1        29     9      180.000000        0.004240         4
         3         2         6         5     9        0.000000       -0.217668         1
         3         2         6         5     9      180.000000       31.571097         2
         3         2         6         5     9        0.000000       -6.793984         3
         3         2         6         5     9      180.000000       -0.039070         4
         3         4         5         6     9        0.000000       -0.559599         1
         3         4         5         6     9      180.000000       38.820432         2
         3         4         5         6     9        0.000000       -8.577190         3
         3         4         5         6     9      180.000000       -0.169318         4
         3         4         5        30     9        0.000000        0.417364         1
         3         4         5        30     9      180.000000       17.537301         2
         3         4         5        30     9        0.000000       -0.166136         3
         3         4         5        30     9      180.000000       -0.702580         4
         3         4         7         8     9        0.000000       -2.974679         1
         3         4         7         8     9      180.000000        5.108117         2
         3         4         7         8     9        0.000000        0.259098         3
         3         4         7         8     9      180.000000        0.486391         4
         3         4         7         9     9        0.000000        1.798022         1
         3         4         7         9     9      180.000000        3.510240         2
         3         4         7         9     9        0.000000        0.518360         3
         3         4         7         9     9      180.000000       -0.198658         4
         4         3         2         6     9        0.000000       -0.147262         1
         4         3         2         6     9      180.000000       42.245757         2
         4         3         2         6     9        0.000000       -5.751621         3
         4         3         2         6     9      180.000000        0.200402         4
         4         7         9        10     9        0.000000        3.488045         1
         4         7         9        10     9      180.000000        8.013941         2
         4         7         9        10     9        0.000000        0.536365         3
         4         7         9        10     9      180.000000       -0.332637         4
         4         7         9        31     9        0.000000        1.700576         1
         4         7         9        31     9      180.000000        7.229112         2
         4         7         9        31     9        0.000000        0.191670         3
         4         7         9        31     9      180.000000        0.241869         4
         5         4         7         8     9        0.000000        1.931164         1
         5         4         7         8     9      180.000000        3.634550         2
         5         4         7         8     9        0.000000       -0.528080         3
         5         4         7         8     9      180.000000        0.674517         4
         5         4         7         9     9        0.000000       -0.305386         1
         5         4         7         9     9      180.000000        2.522370         2
         5         4         7         9     9        0.000000       -0.493133         3
         5         4         7         9     9      180.000000        0.039807         4
         6         2         1        27     9        0.000000        0.013941         1
         6         2         1        27     9      180.000000       -0.038716         2
         6         2         1        27     9        0.000000        0.278174         3
         6         2         1        27     9      180.000000        0.005855         4
         6         2         1        28     9        0.000000        0.013941         1
         6         2         1        28     9      180.000000       -0.038716         2
         6         2         1        28     9        0.000000        0.278174         3
         6         2         1        28     9      180.000000        0.005855         4
         6         2         1        29     9        0.000000        0.013941         1
         6         2         1        29     9      180.000000       -0.038716         2
         6         2         1        29     9        0.000000        0.278174         3
         6         2         1        29     9      180.000000        0.005855         4
         6         5         4         7     9        0.000000        0.567255         1
         6         5         4         7     9      180.000000       17.309264         2
         6         5         4         7     9        0.000000       -0.431551         3
         6         5         4         7     9      180.000000       -1.004157         4
         7         4         5        30     9        0.000000        0.116272         1
         7         4         5        30     9      180.000000       10.683485         2
         7         4         5        30     9        0.000000        0.003191         3
         7         4         5        30     9      180.000000       -0.161422         4
         7         9        10        11     9        0.000000        0.075573         1
         7         9        10        11     9      180.000000        2.571579         2
         7         9        10        11     9        0.000000        0.039305         3
         7         9        10        11     9      180.000000        0.240093         4
         7         9        10        16     9        0.000000       -0.085475         1
         7         9        10        16     9      180.000000        2.620369         2
         7         9        10        16     9        0.000000        0.046649         3
         7         9        10        16     9      180.000000        0.220672         4
         8         7         9        10     9        0.000000       -2.539377         1
         8         7         9        10     9      180.000000        8.683468         2
         8         7         9        10     9        0.000000        0.158478         3
         8         7         9        10     9      180.000000       -0.708877         4
         8         7         9        31     9        0.000000       -0.831790         1
         8         7         9        31     9      180.000000        9.422792         2
         8         7         9        31     9        0.000000        0.608565         3
         8         7         9        31     9      180.000000        0.323522         4
         9        10        11        12     9        0.000000        0.300900         1
         9        10        11        12     9      180.000000       17.772148         2
         9        10        11        12     9        0.000000       -0.005092         3
         9        10        11        12     9      180.000000       -0.291108         4
         9        10        11        32     9        0.000000        0.017568         1
         9        10        11        32     9      180.000000       13.757256         2
         9        10        11        32     9        0.000000       -0.216731         3
         9        10        11        32     9      180.000000        0.235343         4
         9        10        16        15     9        0.000000        0.243376         1
         9        10        16        15     9      180.000000       17.005558         2
         9        10        16        15     9        0.000000       -0.190008         3
         9        10        16        15     9      180.000000       -0.315547         4
         9        10        16        34     9        0.000000       -0.083782         1
         9        10        16        34     9      180.000000       13.802590         2
         9        10        16        34     9        0.000000       -0.269852         3
         9        10        16        34     9      180.000000        0.243000         4
        10        11        12        13     9        0.000000       -0.047319         1
        10        11        12        13     9      180.000000       18.418199         2
        10        11        12        13     9        0.000000       -1.797989         3
        10        11        12        13     9      180.000000       -0.369033         4
        10        11        12        33     9        0.000000        0.114381         1
        10        11        12        33     9      180.000000       14.115029         2
        10        11        12        33     9        0.000000       -0.495095         3
        10        11        12        33     9      180.000000        0.091536         4
        10        16        15        13     9        0.000000       -0.227583         1
        10        16        15        13     9      180.000000       18.298614         2
        10        16        15        13     9        0.000000       -1.911939         3
        10        16        15        13     9      180.000000       -0.344186         4
        10        16        15        17     9        0.000000        0.444014         1
        10        16        15        17     9      180.000000       15.330220         2
        10        16        15        17     9        0.000000        0.018653         3
        10        16        15        17     9      180.000000       -0.322929         4
        11        10         9        31     9        0.000000       -0.057959         1
        11        10         9        31     9      180.000000        2.544282         2
        11        10         9        31     9        0.000000        0.108928         3
        11        10         9        31     9      180.000000        0.273381         4
        11        10        16        15     9        0.000000        0.137173         1
        11        10        16        15     9      180.000000       16.203482         2
        11        10        16        15     9        0.000000       -1.239703         3
        11        10        16        15     9      180.000000       -0.293544         4
        11        10        16        34     9        0.000000        0.112362         1
        11        10        16        34     9      180.000000       12.486842         2
        11        10        16        34     9        0.000000       -0.599929         3
        11        10        16        34     9      180.000000        0.139562         4
        11        12        13        14     9        0.000000        0.444828         1
        11        12        13        14     9      180.000000       23.189645         2
        11        12        13        14     9        0.000000        0.513680         3
        11        12        13        14     9      180.000000       -0.515255         4
        11        12        13        15     9        0.000000       -0.077381         1
        11        12        13        15     9      180.000000       16.953498         2
        11        12        13        15     9        0.000000       -1.325983         3
        11        12        13        15     9      180.000000       -0.327456         4
        12        11        10        16     9        0.000000        0.066354         1
        12        11        10        16     9      180.000000       16.657106         2
        12        11        10        16     9        0.000000       -0.983526         3
        12        11        10        16     9      180.000000       -0.158070         4
        12        13        15        16     9        0.000000       -0.173127         1
        12        13        15        16     9      180.000000       16.932787         2
        12        13        15        16     9        0.000000       -1.165233         3
        12        13        15        16     9      180.000000       -0.277431         4
        12        13        15        17     9        0.000000        0.023727         1
        12        13        15        17     9      180.000000       12.550529         2
        12        13        15        17     9        0.000000       -0.139606         3
        12        13        15        17     9      180.000000       -0.177480         4
        13        12        11        32     9        0.000000        0.208759         1
        13        12        11        32     9      180.000000       14.799556         2
        13        12        11        32     9        0.000000       -0.478514         3
        13        12        11        32     9      180.000000        0.139719         4
        13        15        16        34     9        0.000000        0.105758         1
        13        15        16        34     9      180.000000       14.426011         2
        13        15        16        34     9        0.000000       -0.521235         3
        13        15        16        34     9      180.000000        0.131842         4
        13        15        17        18     9        0.000000        0.050323         1
        13        15        17        18     9      180.000000        0.683087         2
        13        15        17        18     9        0.000000        0.270333         3
        13        15        17        18     9      180.000000        0.129840         4
        13        15        17        19     9        0.000000       -1.151622         1
        13        15        17        19     9      180.000000        0.074564         2
        13        15        17        19     9        0.000000        0.240904         3
        13        15        17        19     9      180.000000        0.139898         4
        13        15        17        26     9        0.000000        1.147519         1
        13        15        17        26     9      180.000000       -1.013076         2
        13        15        17        26     9        0.000000        0.245266         3
        13        15        17        26     9      180.000000        0.285130         4
        14        13        12        33     9        0.000000        0.048293         1
        14        13        12        33     9      180.000000       16.567410         2
        14        13        12        33     9        0.000000        0.241252         3
        14        13        12        33     9      180.000000        0.180196         4
        14        13        15        16     9        0.000000        0.383257         1
        14        13        15        16     9      180.000000       23.004024         2
        14        13        15        16     9        0.000000        0.258126         3
        14        13        15        16     9      180.000000       -0.703025         4
        14        13        15        17     9        0.000000        0.573605         1
        14        13        15        17     9      180.000000       17.105299         2
        14        13        15        17     9        0.000000        0.623469         3
        14        13        15        17     9      180.000000       -0.487029         4
        15        13        12        33     9        0.000000       -0.059143         1
        15        13        12        33     9      180.000000       12.772129         2
        15        13        12        33     9        0.000000       -0.499396         3
        15        13        12        33     9      180.000000        0.127549         4
        15        17        18        35     9        0.000000       -0.057721         1
        15        17        18        35     9      180.000000        0.029405         2
        15        17        18        35     9        0.000000        0.573940         3
        15        17        18        35     9      180.000000        0.018894         4
        15        17        18        36     9        0.000000       -0.057721         1
        15        17        18        36     9      180.000000        0.029405         2
        15        17        18        36     9        0.000000        0.573940         3
        15        17        18        36     9      180.000000        0.018894         4
        15        17        18        37     9        0.000000       -0.057721         1
        15        17        18        37     9      180.000000        0.029405         2
        15        17        18        37     9        0.000000        0.573940         3
        15        17        18        37     9      180.000000        0.018894         4
        15        17        19        20     9        0.000000       -0.292597         1
        15        17        19        20     9      180.000000       -0.047787         2
        15        17        19        20     9        0.000000        0.018665         3
        15        17        19        20     9      180.000000        0.033765         4
        15        17        19        38     9        0.000000       -0.050643         1
        15        17        19        38     9      180.000000        0.004825         2
        15        17        19        38     9        0.000000        0.330829         3
        15        17        19        38     9      180.000000       -0.010929         4
        15        17        19        39     9        0.000000       -0.050643         1
        15        17        19        39     9      180.000000        0.004825         2
        15        17        19        39     9        0.000000        0.330829         3
        15        17        19        39     9      180.000000       -0.010929         4
        15        17        26        24     9        0.000000       -1.495913         1
        15        17        26        24     9      180.000000       -1.009502         2
        15        17        26        24     9        0.000000        0.315799         3
        15        17        26        24     9      180.000000       -0.149507         4
        15        17        26        45     9        0.000000        0.930451         1
        15        17        26        45     9      180.000000       -1.070787         2
        15        17        26        45     9        0.000000       -0.245671         3
        15        17        26        45     9      180.000000       -0.136747         4
        16        10         9        31     9        0.000000        0.319669         1
        16        10         9        31     9      180.000000        2.802317         2
        16        10         9        31     9        0.000000        0.128088         3
        16        10         9        31     9      180.000000        0.234463         4
        16        10        11        32     9        0.000000        0.067829         1
        16        10        11        32     9      180.000000       13.172917         2
        16        10        11        32     9        0.000000       -0.398356         3
        16        10        11        32     9      180.000000        0.104241         4
        16        15        17        18     9        0.000000       -0.573485         1
        16        15        17        18     9      180.000000        0.912056         2
        16        15        17        18     9        0.000000       -0.346947         3
        16        15        17        18     9      180.000000        0.215614         4
        16        15        17        19     9        0.000000       -0.358857         1
        16        15        17        19     9      180.000000        0.361928         2
        16        15        17        19     9        0.000000       -0.367154         3
        16        15        17        19     9      180.000000        0.226542         4
        16        15        17        26     9        0.000000        0.026227         1
        16        15        17        26     9      180.000000        0.671712         2
        16        15        17        26     9        0.000000       -0.368736         3
        16        15        17        26     9      180.000000        0.208494         4
        17        15        16        34     9        0.000000        0.037520         1
        17        15        16        34     9      180.000000       13.318903         2
        17        15        16        34     9        0.000000       -0.193709         3
        17        15        16        34     9      180.000000        0.051860         4
        17        19        20        21     9        0.000000        0.939504         1
        17        19        20        21     9      180.000000        0.137828         2
        17        19        20        21     9        0.000000       -0.656966         3
        17        19        20        21     9      180.000000        0.193308         4
        17        19        20        22     9        0.000000        1.623944         1
        17        19        20        22     9      180.000000        0.402904         2
        17        19        20        22     9        0.000000       -0.788274         3
        17        19        20        22     9      180.000000        0.567613         4
        17        26        24        22     9        0.000000        4.222561         1
        17        26        24        22     9      180.000000        8.750602         2
        17        26        24        22     9        0.000000        0.189491         3
        17        26        24        22     9      180.000000       -0.371883         4
        17        26        24        25     9        0.000000        2.951568         1
        17        26        24        25     9      180.000000       12.517307         2
        17        26        24        25     9        0.000000       -0.263636         3
        17        26        24        25     9      180.000000       -1.310143         4
        18        17        19        20     9        0.000000       -1.119995         1
        18        17        19        20     9      180.000000        0.623613         2
        18        17        19        20     9        0.000000        0.163513         3
        18        17        19        20     9      180.000000       -0.093574         4
        18        17        19        38     9        0.000000       -0.087307         1
        18        17        19        38     9      180.000000       -0.024332         2
        18        17        19        38     9        0.000000        0.270822         3
        18        17        19        38     9      180.000000        0.017468         4
        18        17        19        39     9        0.000000       -0.087307         1
        18        17        19        39     9      180.000000       -0.024332         2
        18        17        19        39     9        0.000000        0.270822         3
        18        17        19        39     9      180.000000        0.017468         4
        18        17        26        24     9        0.000000       -1.367712         1
        18        17        26        24     9      180.000000        0.737240         2
        18        17        26        24     9        0.000000        0.156477         3
        18        17        26        24     9      180.000000       -0.062075         4
        18        17        26        45     9        0.000000       -0.715271         1
        18        17        26        45     9      180.000000        0.566347         2
        18        17        26        45     9        0.000000       -0.071706         3
        18        17        26        45     9      180.000000       -0.078810         4
        19        17        18        35     9        0.000000       -0.017362         1
        19        17        18        35     9      180.000000       -0.049527         2
        19        17        18        35     9        0.000000        0.402468         3
        19        17        18        35     9      180.000000        0.035150         4
        19        17        18        36     9        0.000000       -0.017362         1
        19        17        18        36     9      180.000000       -0.049527         2
        19        17        18        36     9        0.000000        0.402468         3
        19        17        18        36     9      180.000000        0.035150         4
        19        17        18        37     9        0.000000       -0.017362         1
        19        17        18        37     9      180.000000       -0.049527         2
        19        17        18        37     9        0.000000        0.402468         3
        19        17        18        37     9      180.000000        0.035150         4
        19        17        26        24     9        0.000000        1.318740         1
        19        17        26        24     9      180.000000       -1.551336         2
        19        17        26        24     9        0.000000       -0.031507         3
        19        17        26        24     9      180.000000        0.400981         4
        19        17        26        45     9        0.000000       -1.240823         1
        19        17        26        45     9      180.000000       -0.902119         2
        19        17        26        45     9        0.000000       -0.043946         3
        19        17        26        45     9      180.000000        0.166287         4
        19        20        22        23     9        0.000000       -0.718789         1
        19        20        22        23     9      180.000000        8.647621         2
        19        20        22        23     9        0.000000       -0.138830         3
        19        20        22        23     9      180.000000       -0.075158         4
        19        20        22        24     9        0.000000        0.214317         1
        19        20        22        24     9      180.000000        1.458511         2
        19        20        22        24     9        0.000000       -0.011229         3
        19        20        22        24     9      180.000000        0.498029         4
        20        19        17        26     9        0.000000       12.142134         1
        20        19        17        26     9      180.000000       -5.361813         2
        20        19        17        26     9        0.000000       -1.789326         3
        20        19        17        26     9      180.000000        1.494454         4
        20        22        23        40     9        0.000000       -0.069014         1
        20        22        23        40     9      180.000000       -0.038564         2
        20        22        23        40     9        0.000000       -0.189883         3
        20        22        23        40     9      180.000000        0.040032         4
        20        22        23        41     9        0.000000       -0.069014         1
        20        22        23        41     9      180.000000       -0.038564         2
        20        22        23        41     9        0.000000       -0.189883         3
        20        22        23        41     9      180.000000        0.040032         4
        20        22        23        42     9        0.000000       -0.069014         1
        20        22        23        42     9      180.000000       -0.038564         2
        20        22        23        42     9        0.000000       -0.189883         3
        20        22        23        42     9      180.000000        0.040032         4
        20        22        24        25     9        0.000000        2.476372         1
        20        22        24        25     9      180.000000        9.542962         2
        20        22        24        25     9        0.000000       -0.747467         3
        20        22        24        25     9      180.000000       -0.726154         4
        20        22        24        26     9        0.000000        5.406490         1
        20        22        24        26     9      180.000000        4.726422         2
        20        22        24        26     9        0.000000       -0.579634         3
        20        22        24        26     9      180.000000        0.189765         4
        21        20        19        38     9        0.000000       -0.044386         1
        21        20        19        38     9      180.000000        0.208352         2
        21        20        19        38     9        0.000000       -0.553062         3
        21        20        19        38     9      180.000000        0.035848         4
        21        20        19        39     9        0.000000       -0.044386         1
        21        20        19        39     9      180.000000        0.208352         2
        21        20        19        39     9        0.000000       -0.553062         3
        21        20        19        39     9      180.000000        0.035848         4
        21        20        22        23     9        0.000000       -0.892079         1
        21        20        22        23     9      180.000000       11.074073         2
        21        20        22        23     9        0.000000       -1.195750         3
        21        20        22        23     9      180.000000        0.340280         4
        21        20        22        24     9        0.000000        4.378006         1
        21        20        22        24     9      180.000000        8.435320         2
        21        20        22        24     9        0.000000       -0.775495         3
        21        20        22        24     9      180.000000       -0.116887         4
        22        20        19        38     9        0.000000       -0.308409         1
        22        20        19        38     9      180.000000        0.103869         2
        22        20        19        38     9        0.000000       -0.315281         3
        22        20        19        38     9      180.000000        0.040184         4
        22        20        19        39     9        0.000000       -0.308409         1
        22        20        19        39     9      180.000000        0.103869         2
        22        20        19        39     9        0.000000       -0.315281         3
        22        20        19        39     9      180.000000        0.040184         4
        22        24        25        43     9        0.000000       -0.105425         1
        22        24        25        43     9      180.000000        6.030113         2
        22        24        25        43     9        0.000000        0.167347         3
        22        24        25        43     9      180.000000       -0.592536         4
        22        24        25        44     9        0.000000       -0.105425         1
        22        24        25        44     9      180.000000        6.030113         2
        22        24        25        44     9        0.000000        0.167347         3
        22        24        25        44     9      180.000000       -0.592536         4
        22        24        26        45     9        0.000000        0.655961         1
        22        24        26        45     9      180.000000        9.003275         2
        22        24        26        45     9        0.000000       -0.132610         3
        22        24        26        45     9      180.000000       -0.471553         4
        23        22        24        25     9        0.000000       -0.597900         1
        23        22        24        25     9      180.000000       13.268813         2
        23        22        24        25     9        0.000000       -1.132363         3
        23        22        24        25     9      180.000000       -0.736178         4
        23        22        24        26     9        0.000000       -1.365398         1
        23        22        24        26     9      180.000000       10.441499         2
        23        22        24        26     9        0.000000       -0.939980         3
        23        22        24        26     9      180.000000       -0.119939         4
        24        22        23        40     9        0.000000       -0.043187         1
        24        22        23        40     9      180.000000       -0.006039         2
        24        22        23        40     9        0.000000       -0.004684         3
        24        22        23        40     9      180.000000       -0.005182         4
        24        22        23        41     9        0.000000       -0.043187         1
        24        22        23        41     9      180.000000       -0.006039         2
        24        22        23        41     9        0.000000       -0.004684         3
        24        22        23        41     9      180.000000       -0.005182         4
        24        22        23        42     9        0.000000       -0.043187         1
        24        22        23        42     9      180.000000       -0.006039         2
        24        22        23        42     9        0.000000       -0.004684         3
        24        22        23        42     9      180.000000       -0.005182         4
        25        24        26        45     9        0.000000       -0.768782         1
        25        24        26        45     9      180.000000       11.203242         2
        25        24        26        45     9        0.000000       -0.014662         3
        25        24        26        45     9      180.000000       -1.174783         4
        26        17        18        35     9        0.000000       -0.174476         1
        26        17        18        35     9      180.000000       -0.124307         2
        26        17        18        35     9        0.000000        0.501379         3
        26        17        18        35     9      180.000000       -0.000654         4
        26        17        18        36     9        0.000000       -0.174476         1
        26        17        18        36     9      180.000000       -0.124307         2
        26        17        18        36     9        0.000000        0.501379         3
        26        17        18        36     9      180.000000       -0.000654         4
        26        17        18        37     9        0.000000       -0.174476         1
        26        17        18        37     9      180.000000       -0.124307         2
        26        17        18        37     9        0.000000        0.501379         3
        26        17        18        37     9      180.000000       -0.000654         4
        26        17        19        38     9        0.000000       -0.468423         1
        26        17        19        38     9      180.000000        0.052690         2
        26        17        19        38     9        0.000000        0.104503         3
        26        17        19        38     9      180.000000        0.067016         4
        26        17        19        39     9        0.000000       -0.468423         1
        26        17        19        39     9      180.000000        0.052690         2
        26        17        19        39     9        0.000000        0.104503         3
        26        17        19        39     9      180.000000        0.067016         4
        26        24        25        43     9        0.000000       -3.337029         1
        26        24        25        43     9      180.000000        6.634851         2
        26        24        25        43     9        0.000000       -0.259994         3
        26        24        25        43     9      180.000000       -0.636966         4
        26        24        25        44     9        0.000000       -3.337029         1
        26        24        25        44     9      180.000000        6.634851         2
        26        24        25        44     9        0.000000       -0.259994         3
        26        24        25        44     9      180.000000       -0.636966         4
        32        11        12        33     9        0.000000       -0.101198         1
        32        11        12        33     9      180.000000       11.929744         2
        32        11        12        33     9        0.000000       -0.735604         3
        32        11        12        33     9      180.000000        0.258038         4

[ dihedrals ] ; impropers
;       ai        aj        ak        al funct           phase               k        pn
         2         1         3         6     4      180.000000        5.477756         2
         2         3         6         1     4      180.000000        5.477756         2
         2         6         1         3     4      180.000000        5.477756         2
         7         4         8         9     4      180.000000       27.893333         2
         7         8         9         4     4      180.000000       27.893333         2
         7         9         4         8     4      180.000000       27.893333         2
        20        19        21        22     4      180.000000       23.226975         2
        20        21        22        19     4      180.000000       23.226975         2
        20        22        19        21     4      180.000000       23.226975         2
        24        22        25        26     4      180.000000       12.892487         2
        24        25        26        22     4      180.000000       12.892487         2
        24        26        22        25     4      180.000000       12.892487         2

[ pairs ]
;       ai        aj funct
         1         4     1
         1         5     1
         2         7     1
         2        30     1
         3         8     1
         3         9     1
         3        27     1
         3        28     1
         3        29     1
         3        30     1
         4        10     1
         4        31     1
         5         8     1
         5         9     1
         6         7     1
         6        27     1
         6        28     1
         6        29     1
         7        11     1
         7        16     1
         7        30     1
         8        10     1
         8        31     1
         9        12     1
         9        15     1
         9        32     1
         9        34     1
        10        13     1
        10        17     1
        10        33     1
        11        14     1
        11        15     1
        11        31     1
        11        34     1
        12        16     1
        12        17     1
        13        18     1
        13        19     1
        13        26     1
        13        32     1
        13        34     1
        14        16     1
        14        17     1
        14        33     1
        15        20     1
        15        24     1
        15        33     1
        15        35     1
        15        36     1
        15        37     1
        15        38     1
        15        39     1
        15        45     1
        16        18     1
        16        19     1
        16        26     1
        16        31     1
        16        32     1
        17        21     1
        17        22     1
        17        25     1
        17        34     1
        18        20     1
        18        24     1
        18        38     1
        18        39     1
        18        45     1
        19        23     1
        19        24     1
        19        35     1
        19        36     1
        19        37     1
        19        45     1
        20        25     1
        20        26     1
        20        40     1
        20        41     1
        20        42     1
        21        23     1
        21        24     1
        21        38     1
        21        39     1
        22        38     1
        22        39     1
        22        43     1
        22        44     1
        22        45     1
        23        25     1
        23        26     1
        24        40     1
        24        41     1
        24        42     1
        25        45     1
        26        35     1
        26        36     1
        26        37     1
        26        38     1
        26        39     1
        26        43     1
        26        44     1
        32        33     1
