; ITP file created by ByteFF-ML, 2025-12-06 06:46:01.844808

[ atomtypes ]
;name           bonded.type        at.num        mass        charge   ptype           sigma         epsilon
 c0bf                                   6      0.0000       0.00000       A     3.39806e-01     4.54466e-01
 n1bf                                   7      0.0000       0.00000       A     3.17488e-01     6.93060e-01
 c2bf                                   6      0.0000       0.00000       A     3.31339e-01     4.08994e-01
 n3bf                                   7      0.0000       0.00000       A     3.36511e-01     4.76104e-01
 n4bf                                   7      0.0000       0.00000       A     3.27880e-01     6.42737e-01
 c5bf                                   6      0.0000       0.00000       A     3.39819e-01     4.49619e-01
 c6bf                                   6      0.0000       0.00000       A     3.39780e-01     4.49359e-01
 c7bf                                   6      0.0000       0.00000       A     3.39742e-01     4.47260e-01
 c8bf                                   6      0.0000       0.00000       A     3.31488e-01     4.13133e-01
 o9bf                                   8      0.0000       0.00000       A     3.04968e-01     6.14477e-01
 c10bf                                  6      0.0000       0.00000       A     3.31773e-01     4.12332e-01
 c11bf                                  6      0.0000       0.00000       A     3.31721e-01     4.13494e-01
 c12bf                                  6      0.0000       0.00000       A     3.31493e-01     4.13652e-01
 c13bf                                  6      0.0000       0.00000       A     3.31509e-01     4.12384e-01
 c14bf                                  6      0.0000       0.00000       A     3.31472e-01     4.13174e-01
 c15bf                                  6      0.0000       0.00000       A     3.31428e-01     4.11122e-01
 f16bf                                  9      0.0000       0.00000       A     3.03512e-01     3.48021e-01
 n17bf                                  7      0.0000       0.00000       A     3.26842e-01     4.86800e-01
 c18bf                                  6      0.0000       0.00000       A     3.31068e-01     4.05858e-01
 o19bf                                  8      0.0000       0.00000       A     3.04750e-01     6.08999e-01
 c20bf                                  6      0.0000       0.00000       A     3.31536e-01     4.10697e-01
 c21bf                                  6      0.0000       0.00000       A     3.31497e-01     4.13200e-01
 c22bf                                  6      0.0000       0.00000       A     3.31503e-01     4.14193e-01
 c23bf                                  6      0.0000       0.00000       A     3.31456e-01     4.13074e-01
 c24bf                                  6      0.0000       0.00000       A     3.48297e-01     6.69666e-01
 n25bf                                  7      0.0000       0.00000       A     3.27395e-01     4.58168e-01
 c26bf                                  6      0.0000       0.00000       A     3.31482e-01     4.13376e-01
 n27bf                                  7      0.0000       0.00000       A     3.38298e-01     3.91632e-01
 h28bf                                  1      0.0000       0.00000       A     2.41897e-01     8.69315e-02
 h29bf                                  1      0.0000       0.00000       A     2.41897e-01     8.69315e-02
 h30bf                                  1      0.0000       0.00000       A     2.41897e-01     8.69315e-02
 h31bf                                  1      0.0000       0.00000       A     1.10532e-01     4.19974e-02
 h32bf                                  1      0.0000       0.00000       A     1.10532e-01     4.19974e-02
 h33bf                                  1      0.0000       0.00000       A     2.59965e-01     8.80775e-02
 h34bf                                  1      0.0000       0.00000       A     2.59965e-01     8.80775e-02
 h35bf                                  1      0.0000       0.00000       A     2.59965e-01     8.80775e-02
 h36bf                                  1      0.0000       0.00000       A     2.60156e-01     8.72124e-02
 h37bf                                  1      0.0000       0.00000       A     2.60156e-01     8.72124e-02
 h38bf                                  1      0.0000       0.00000       A     2.62747e-01     6.80357e-02
 h39bf                                  1      0.0000       0.00000       A     2.62514e-01     6.73797e-02
 h40bf                                  1      0.0000       0.00000       A     2.62616e-01     6.73621e-02
 h41bf                                  1      0.0000       0.00000       A     1.10735e-01     3.92473e-02
 h42bf                                  1      0.0000       0.00000       A     2.62347e-01     6.67827e-02
 h43bf                                  1      0.0000       0.00000       A     2.62457e-01     6.75696e-02
 h44bf                                  1      0.0000       0.00000       A     2.53506e-01     6.73398e-02
 h45bf                                  1      0.0000       0.00000       A     1.10387e-01     4.22703e-02

[ moleculetype ]
;name             nrexcl
 17c                   3

[ atoms ]
;       nr            type      resi   res      atom      cgnr      charge          mass ; qtot
         1            c0bf         1   UNL        c0         1     0.05392       12.0110 ; qtot    0.054
         2            n1bf         1   UNL        n1         2    -0.74198       14.0070 ; qtot   -0.688
         3            c2bf         1   UNL        c2         3     0.98206       12.0110 ; qtot    0.294
         4            n3bf         1   UNL        n3         4    -0.64294       14.0070 ; qtot   -0.349
         5            n4bf         1   UNL        n4         5    -0.48739       14.0070 ; qtot   -0.836
         6            c5bf         1   UNL        c5         6     0.19513       12.0110 ; qtot   -0.641
         7            c6bf         1   UNL        c6         7    -0.11146       12.0110 ; qtot   -0.753
         8            c7bf         1   UNL        c7         8    -0.17299       12.0110 ; qtot   -0.926
         9            c8bf         1   UNL        c8         9     0.56299       12.0110 ; qtot   -0.363
        10            o9bf         1   UNL        o9        10    -0.40580       15.9990 ; qtot   -0.768
        11           c10bf         1   UNL       c10        11    -0.14053       12.0110 ; qtot   -0.909
        12           c11bf         1   UNL       c11        12    -0.09160       12.0110 ; qtot   -1.001
        13           c12bf         1   UNL       c12        13    -0.01591       12.0110 ; qtot   -1.016
        14           c13bf         1   UNL       c13        14    -0.12355       12.0110 ; qtot   -1.140
        15           c14bf         1   UNL       c14        15    -0.09680       12.0110 ; qtot   -1.237
        16           c15bf         1   UNL       c15        16     0.15629       12.0110 ; qtot   -1.081
        17           f16bf         1   UNL       f16        17    -0.18071       18.9980 ; qtot   -1.261
        18           n17bf         1   UNL       n17        18    -0.13237       14.0070 ; qtot   -1.394
        19           c18bf         1   UNL       c18        19     0.51117       12.0110 ; qtot   -0.882
        20           o19bf         1   UNL       o19        20    -0.58389       15.9990 ; qtot   -1.466
        21           c20bf         1   UNL       c20        21     0.29898       12.0110 ; qtot   -1.167
        22           c21bf         1   UNL       c21        22    -0.10766       12.0110 ; qtot   -1.275
        23           c22bf         1   UNL       c22        23    -0.04533       12.0110 ; qtot   -1.320
        24           c23bf         1   UNL       c23        24    -0.04913       12.0110 ; qtot   -1.369
        25           c24bf         1   UNL       c24        25     0.31781       12.0110 ; qtot   -1.052
        26           n25bf         1   UNL       n25        26    -0.43585       14.0070 ; qtot   -1.488
        27           c26bf         1   UNL       c26        27     0.37182       12.0110 ; qtot   -1.116
        28           n27bf         1   UNL       n27        28    -0.65611       14.0070 ; qtot   -1.772
        29           h28bf         1   UNL       h28        29     0.08743        1.0080 ; qtot   -1.684
        30           h29bf         1   UNL       h29        30     0.08743        1.0080 ; qtot   -1.597
        31           h30bf         1   UNL       h30        31     0.08743        1.0080 ; qtot   -1.510
        32           h31bf         1   UNL       h31        32     0.38091        1.0080 ; qtot   -1.129
        33           h32bf         1   UNL       h32        33     0.38091        1.0080 ; qtot   -0.748
        34           h33bf         1   UNL       h33        34     0.06599        1.0080 ; qtot   -0.682
        35           h34bf         1   UNL       h34        35     0.06599        1.0080 ; qtot   -0.616
        36           h35bf         1   UNL       h35        36     0.06599        1.0080 ; qtot   -0.550
        37           h36bf         1   UNL       h36        37     0.10671        1.0080 ; qtot   -0.443
        38           h37bf         1   UNL       h37        38     0.10671        1.0080 ; qtot   -0.336
        39           h38bf         1   UNL       h38        39     0.14505        1.0080 ; qtot   -0.191
        40           h39bf         1   UNL       h39        40     0.13815        1.0080 ; qtot   -0.053
        41           h40bf         1   UNL       h40        41     0.14099        1.0080 ; qtot    0.088
        42           h41bf         1   UNL       h41        42     0.18474        1.0080 ; qtot    0.273
        43           h42bf         1   UNL       h42        43     0.16003        1.0080 ; qtot    0.433
        44           h43bf         1   UNL       h43        44     0.14257        1.0080 ; qtot    0.575
        45           h44bf         1   UNL       h44        45     0.04346        1.0080 ; qtot    0.619
        46           h45bf         1   UNL       h45        46     0.38134        1.0080 ; qtot    1.000

[ bonds ]
;       ai        aj funct               r               k
         1         2     1        0.147696   175044.486499
         1        29     1        0.108963   312518.496777
         1        30     1        0.108963   312518.496777
         1        31     1        0.108963   312518.496777
         2         3     1        0.135713   303098.495557
         2         9     1        0.143868   140884.248633
         3         4     1        0.134206   388900.016455
         3         5     1        0.132907   389370.282324
         4        32     1        0.101314   426532.573389
         4        33     1        0.101314   426532.573389
         5         6     1        0.149597   141757.068726
         5        46     1        0.101465   415734.998340
         6         7     1        0.153665   173225.810181
         6         8     1        0.153567   173208.074658
         6        11     1        0.152812   166468.256909
         7        34     1        0.109224   306904.801709
         7        35     1        0.109224   306904.801709
         7        36     1        0.109224   306904.801709
         8         9     1        0.150975   184500.226904
         8        37     1        0.109235   306950.691895
         8        38     1        0.109235   306950.691895
         9        10     1        0.120853   693911.394727
        11        12     1        0.140096   296162.565576
        11        16     1        0.139894   278911.099023
        12        13     1        0.140456   283684.623193
        12        39     1        0.108237   327055.726123
        13        14     1        0.140444   285309.243018
        13        18     1        0.140629   251325.428271
        14        15     1        0.139425   325766.204248
        14        40     1        0.108347   327064.817334
        15        16     1        0.138798   314310.512354
        15        41     1        0.108490   324352.010205
        16        17     1        0.136530   271856.268262
        18        19     1        0.136605   285640.229492
        18        42     1        0.101737   401157.828955
        19        20     1        0.123259   595726.929492
        19        21     1        0.151449   167636.643506
        21        22     1        0.139962   283713.531201
        21        28     1        0.134387   296345.411279
        22        23     1        0.139053   329663.856641
        22        43     1        0.108339   329792.870117
        23        24     1        0.140439   295905.151514
        23        44     1        0.108508   326417.451611
        24        25     1        0.143326   275094.807861
        24        27     1        0.140829   273225.797900
        25        26     1        0.116520  1106811.825000
        27        28     1        0.133090   336966.193066
        27        45     1        0.108689   321894.599707

[ angles ]
;       ai        aj        ak funct           theta             cth
         1         2         3     1      120.348282      490.741619
         1         2         9     1      117.459496      580.627679
         2         1        29     1      109.269554      472.759249
         2         1        30     1      109.269554      472.759249
         2         1        31     1      109.269554      472.759249
         2         3         4     1      119.756981      585.233616
         2         3         5     1      120.408371      674.619947
         2         9         8     1      115.390335      572.197241
         2         9        10     1      119.763596      657.290848
         3         2         9     1      121.459251      729.251868
         3         4        32     1      121.193443      447.355603
         3         4        33     1      121.193443      447.355603
         3         5         6     1      124.150955      563.036505
         3         5        46     1      117.963646      468.739676
         4         3         5     1      120.045181      584.318047
         5         6         7     1      107.994339      619.444788
         5         6         8     1      106.247513      594.016275
         5         6        11     1      108.144691      616.878181
         6         5        46     1      115.930809      393.822735
         6         7        34     1      110.547928      483.347764
         6         7        35     1      110.547928      483.347764
         6         7        36     1      110.547928      483.347764
         6         8         9     1      112.962242      858.197672
         6         8        37     1      110.220703      459.940960
         6         8        38     1      110.220703      459.940960
         6        11        12     1      121.224815      438.628966
         6        11        16     1      121.347679      572.506879
         7         6         8     1      111.052078      578.840337
         7         6        11     1      112.150978      637.670878
         8         6        11     1      112.415359      569.859830
         8         9        10     1      124.425797      503.203952
         9         8        37     1      107.516373      561.619515
         9         8        38     1      107.516373      561.619515
        11        12        13     1      121.567215      694.507227
        11        12        39     1      119.730515      394.673057
        11        16        15     1      122.595802      574.355574
        11        16        17     1      119.443459      475.848377
        12        11        16     1      116.942322      634.608660
        12        13        14     1      119.198586      568.248374
        12        13        18     1      119.827225      492.022305
        13        12        39     1      118.759315      439.299921
        13        14        15     1      119.653320      723.681650
        13        14        40     1      120.063293      447.376096
        13        18        19     1      129.275894      473.807036
        13        18        42     1      117.322166      392.897940
        14        13        18     1      120.507950      591.527684
        14        15        16     1      119.369705      688.999766
        14        15        41     1      121.054733      427.595115
        15        14        40     1      120.214211      388.138717
        15        16        17     1      117.918320      539.378672
        16        15        41     1      119.387718      441.378291
        18        19        20     1      126.035362      590.584598
        18        19        21     1      112.878159      480.438672
        19        18        42     1      113.540955      466.201319
        19        21        22     1      118.896469      506.814931
        19        21        28     1      117.622047      503.100208
        20        19        21     1      120.897263      673.006385
        21        22        23     1      118.483475      761.993954
        21        22        43     1      119.396988      395.488169
        21        28        27     1      118.254089      685.530230
        22        21        28     1      123.123314      660.183819
        22        23        24     1      118.474915      748.490441
        22        23        44     1      121.302048      417.515937
        23        22        43     1      122.156151      400.450125
        23        24        25     1      121.180702      486.721727
        23        24        27     1      118.378624      704.320691
        24        23        44     1      120.235817      424.557572
        24        25        26     1      179.665939      167.360000
        24        27        28     1      122.832031      679.513240
        24        27        45     1      120.077354      403.117093
        25        24        27     1      120.304604      506.701610
        28        27        45     1      117.119186      379.445789
        29         1        30     1      109.723488      346.581892
        29         1        31     1      109.723488      346.581892
        30         1        31     1      109.723488      346.581892
        32         4        33     1      116.920242      317.248244
        34         7        35     1      108.453712      358.661455
        34         7        36     1      108.453712      358.661487
        35         7        36     1      108.453712      358.661487
        37         8        38     1      107.501564      353.259526

[ dihedrals ] ; propers for gromacs 4.5 or higher, use funct 9
;       ai        aj        ak        al funct           phase               k        pn
         1         2         3         4     9        0.000000       -0.597900         1
         1         2         3         4     9      180.000000       13.268816         2
         1         2         3         4     9        0.000000       -1.132363         3
         1         2         3         4     9      180.000000       -0.736178         4
         1         2         3         5     9        0.000000       -1.365400         1
         1         2         3         5     9      180.000000       10.441500         2
         1         2         3         5     9        0.000000       -0.939980         3
         1         2         3         5     9      180.000000       -0.119938         4
         1         2         9         8     9        0.000000       -0.718791         1
         1         2         9         8     9      180.000000        8.647623         2
         1         2         9         8     9        0.000000       -0.138830         3
         1         2         9         8     9      180.000000       -0.075158         4
         1         2         9        10     9        0.000000       -0.892079         1
         1         2         9        10     9      180.000000       11.074073         2
         1         2         9        10     9        0.000000       -1.195750         3
         1         2         9        10     9      180.000000        0.340279         4
         2         3         4        32     9        0.000000       -0.105422         1
         2         3         4        32     9      180.000000        6.030111         2
         2         3         4        32     9        0.000000        0.167348         3
         2         3         4        32     9      180.000000       -0.592536         4
         2         3         4        33     9        0.000000       -0.105422         1
         2         3         4        33     9      180.000000        6.030111         2
         2         3         4        33     9        0.000000        0.167348         3
         2         3         4        33     9      180.000000       -0.592536         4
         2         3         5         6     9        0.000000        4.222563         1
         2         3         5         6     9      180.000000        8.750601         2
         2         3         5         6     9        0.000000        0.189490         3
         2         3         5         6     9      180.000000       -0.371883         4
         2         3         5        46     9        0.000000        0.655962         1
         2         3         5        46     9      180.000000        9.003274         2
         2         3         5        46     9        0.000000       -0.132610         3
         2         3         5        46     9      180.000000       -0.471552         4
         2         9         8         6     9        0.000000        1.623944         1
         2         9         8         6     9      180.000000        0.402903         2
         2         9         8         6     9        0.000000       -0.788274         3
         2         9         8         6     9      180.000000        0.567613         4
         2         9         8        37     9        0.000000       -0.308409         1
         2         9         8        37     9      180.000000        0.103869         2
         2         9         8        37     9        0.000000       -0.315280         3
         2         9         8        37     9      180.000000        0.040183         4
         2         9         8        38     9        0.000000       -0.308409         1
         2         9         8        38     9      180.000000        0.103869         2
         2         9         8        38     9        0.000000       -0.315280         3
         2         9         8        38     9      180.000000        0.040183         4
         3         2         1        29     9        0.000000       -0.043187         1
         3         2         1        29     9      180.000000       -0.006039         2
         3         2         1        29     9        0.000000       -0.004683         3
         3         2         1        29     9      180.000000       -0.005183         4
         3         2         1        30     9        0.000000       -0.043187         1
         3         2         1        30     9      180.000000       -0.006039         2
         3         2         1        30     9        0.000000       -0.004683         3
         3         2         1        30     9      180.000000       -0.005183         4
         3         2         1        31     9        0.000000       -0.043187         1
         3         2         1        31     9      180.000000       -0.006039         2
         3         2         1        31     9        0.000000       -0.004683         3
         3         2         1        31     9      180.000000       -0.005183         4
         3         2         9         8     9        0.000000        0.214319         1
         3         2         9         8     9      180.000000        1.458510         2
         3         2         9         8     9        0.000000       -0.011229         3
         3         2         9         8     9      180.000000        0.498030         4
         3         2         9        10     9        0.000000        4.378008         1
         3         2         9        10     9      180.000000        8.435320         2
         3         2         9        10     9        0.000000       -0.775495         3
         3         2         9        10     9      180.000000       -0.116887         4
         3         5         6         7     9        0.000000       -1.367713         1
         3         5         6         7     9      180.000000        0.737240         2
         3         5         6         7     9        0.000000        0.156478         3
         3         5         6         7     9      180.000000       -0.062075         4
         3         5         6         8     9        0.000000        1.318741         1
         3         5         6         8     9      180.000000       -1.551335         2
         3         5         6         8     9        0.000000       -0.031508         3
         3         5         6         8     9      180.000000        0.400981         4
         3         5         6        11     9        0.000000       -1.495914         1
         3         5         6        11     9      180.000000       -1.009502         2
         3         5         6        11     9        0.000000        0.315799         3
         3         5         6        11     9      180.000000       -0.149506         4
         4         3         2         9     9        0.000000        2.476372         1
         4         3         2         9     9      180.000000        9.542964         2
         4         3         2         9     9        0.000000       -0.747468         3
         4         3         2         9     9      180.000000       -0.726154         4
         4         3         5         6     9        0.000000        2.951567         1
         4         3         5         6     9      180.000000       12.517308         2
         4         3         5         6     9        0.000000       -0.263636         3
         4         3         5         6     9      180.000000       -1.310143         4
         4         3         5        46     9        0.000000       -0.768785         1
         4         3         5        46     9      180.000000       11.203243         2
         4         3         5        46     9        0.000000       -0.014662         3
         4         3         5        46     9      180.000000       -1.174783         4
         5         3         2         9     9        0.000000        5.406484         1
         5         3         2         9     9      180.000000        4.726423         2
         5         3         2         9     9        0.000000       -0.579634         3
         5         3         2         9     9      180.000000        0.189765         4
         5         3         4        32     9        0.000000       -3.337029         1
         5         3         4        32     9      180.000000        6.634849         2
         5         3         4        32     9        0.000000       -0.259993         3
         5         3         4        32     9      180.000000       -0.636966         4
         5         3         4        33     9        0.000000       -3.337029         1
         5         3         4        33     9      180.000000        6.634849         2
         5         3         4        33     9        0.000000       -0.259993         3
         5         3         4        33     9      180.000000       -0.636966         4
         5         6         7        34     9        0.000000       -0.174476         1
         5         6         7        34     9      180.000000       -0.124307         2
         5         6         7        34     9        0.000000        0.501379         3
         5         6         7        34     9      180.000000       -0.000654         4
         5         6         7        35     9        0.000000       -0.174476         1
         5         6         7        35     9      180.000000       -0.124307         2
         5         6         7        35     9        0.000000        0.501379         3
         5         6         7        35     9      180.000000       -0.000654         4
         5         6         7        36     9        0.000000       -0.174476         1
         5         6         7        36     9      180.000000       -0.124307         2
         5         6         7        36     9        0.000000        0.501379         3
         5         6         7        36     9      180.000000       -0.000654         4
         5         6         8         9     9        0.000000       12.142131         1
         5         6         8         9     9      180.000000       -5.361812         2
         5         6         8         9     9        0.000000       -1.789326         3
         5         6         8         9     9      180.000000        1.494455         4
         5         6         8        37     9        0.000000       -0.468423         1
         5         6         8        37     9      180.000000        0.052690         2
         5         6         8        37     9        0.000000        0.104503         3
         5         6         8        37     9      180.000000        0.067016         4
         5         6         8        38     9        0.000000       -0.468423         1
         5         6         8        38     9      180.000000        0.052690         2
         5         6         8        38     9        0.000000        0.104503         3
         5         6         8        38     9      180.000000        0.067016         4
         5         6        11        12     9        0.000000        0.007093         1
         5         6        11        12     9      180.000000        0.674770         2
         5         6        11        12     9        0.000000       -0.370788         3
         5         6        11        12     9      180.000000        0.208763         4
         5         6        11        16     9        0.000000        1.147518         1
         5         6        11        16     9      180.000000       -1.013075         2
         5         6        11        16     9        0.000000        0.245266         3
         5         6        11        16     9      180.000000        0.285130         4
         6         8         9        10     9        0.000000        0.939507         1
         6         8         9        10     9      180.000000        0.137828         2
         6         8         9        10     9        0.000000       -0.656965         3
         6         8         9        10     9      180.000000        0.193307         4
         6        11        12        13     9        0.000000        0.449831         1
         6        11        12        13     9      180.000000       15.362193         2
         6        11        12        13     9        0.000000        0.018152         3
         6        11        12        13     9      180.000000       -0.328546         4
         6        11        12        39     9        0.000000        0.036453         1
         6        11        12        39     9      180.000000       13.316310         2
         6        11        12        39     9        0.000000       -0.196418         3
         6        11        12        39     9      180.000000        0.052473         4
         6        11        16        15     9        0.000000        0.023727         1
         6        11        16        15     9      180.000000       12.550530         2
         6        11        16        15     9        0.000000       -0.139606         3
         6        11        16        15     9      180.000000       -0.177480         4
         6        11        16        17     9        0.000000        0.573606         1
         6        11        16        17     9      180.000000       17.105297         2
         6        11        16        17     9        0.000000        0.623469         3
         6        11        16        17     9      180.000000       -0.487029         4
         7         6         5        46     9        0.000000       -0.715274         1
         7         6         5        46     9      180.000000        0.566346         2
         7         6         5        46     9        0.000000       -0.071706         3
         7         6         5        46     9      180.000000       -0.078810         4
         7         6         8         9     9        0.000000       -1.119996         1
         7         6         8         9     9      180.000000        0.623613         2
         7         6         8         9     9        0.000000        0.163513         3
         7         6         8         9     9      180.000000       -0.093574         4
         7         6         8        37     9        0.000000       -0.087307         1
         7         6         8        37     9      180.000000       -0.024331         2
         7         6         8        37     9        0.000000        0.270822         3
         7         6         8        37     9      180.000000        0.017467         4
         7         6         8        38     9        0.000000       -0.087307         1
         7         6         8        38     9      180.000000       -0.024331         2
         7         6         8        38     9        0.000000        0.270822         3
         7         6         8        38     9      180.000000        0.017467         4
         7         6        11        12     9        0.000000       -0.581559         1
         7         6        11        12     9      180.000000        0.907605         2
         7         6        11        12     9        0.000000       -0.347961         3
         7         6        11        12     9      180.000000        0.217001         4
         7         6        11        16     9        0.000000        0.050324         1
         7         6        11        16     9      180.000000        0.683086         2
         7         6        11        16     9        0.000000        0.270333         3
         7         6        11        16     9      180.000000        0.129840         4
         8         6         5        46     9        0.000000       -1.240825         1
         8         6         5        46     9      180.000000       -0.902120         2
         8         6         5        46     9        0.000000       -0.043946         3
         8         6         5        46     9      180.000000        0.166287         4
         8         6         7        34     9        0.000000       -0.017362         1
         8         6         7        34     9      180.000000       -0.049527         2
         8         6         7        34     9        0.000000        0.402468         3
         8         6         7        34     9      180.000000        0.035149         4
         8         6         7        35     9        0.000000       -0.017362         1
         8         6         7        35     9      180.000000       -0.049527         2
         8         6         7        35     9        0.000000        0.402468         3
         8         6         7        35     9      180.000000        0.035149         4
         8         6         7        36     9        0.000000       -0.017362         1
         8         6         7        36     9      180.000000       -0.049527         2
         8         6         7        36     9        0.000000        0.402468         3
         8         6         7        36     9      180.000000        0.035149         4
         8         6        11        12     9        0.000000       -0.362607         1
         8         6        11        12     9      180.000000        0.362235         2
         8         6        11        12     9        0.000000       -0.367988         3
         8         6        11        12     9      180.000000        0.227409         4
         8         6        11        16     9        0.000000       -1.151623         1
         8         6        11        16     9      180.000000        0.074564         2
         8         6        11        16     9        0.000000        0.240904         3
         8         6        11        16     9      180.000000        0.139898         4
         9         2         1        29     9        0.000000       -0.069014         1
         9         2         1        29     9      180.000000       -0.038564         2
         9         2         1        29     9        0.000000       -0.189883         3
         9         2         1        29     9      180.000000        0.040032         4
         9         2         1        30     9        0.000000       -0.069014         1
         9         2         1        30     9      180.000000       -0.038564         2
         9         2         1        30     9        0.000000       -0.189883         3
         9         2         1        30     9      180.000000        0.040032         4
         9         2         1        31     9        0.000000       -0.069014         1
         9         2         1        31     9      180.000000       -0.038564         2
         9         2         1        31     9        0.000000       -0.189883         3
         9         2         1        31     9      180.000000        0.040032         4
         9         8         6        11     9        0.000000       -0.292597         1
         9         8         6        11     9      180.000000       -0.047787         2
         9         8         6        11     9        0.000000        0.018665         3
         9         8         6        11     9      180.000000        0.033764         4
        10         9         8        37     9        0.000000       -0.044386         1
        10         9         8        37     9      180.000000        0.208352         2
        10         9         8        37     9        0.000000       -0.553062         3
        10         9         8        37     9      180.000000        0.035849         4
        10         9         8        38     9        0.000000       -0.044386         1
        10         9         8        38     9      180.000000        0.208352         2
        10         9         8        38     9        0.000000       -0.553062         3
        10         9         8        38     9      180.000000        0.035849         4
        11         6         5        46     9        0.000000        0.930451         1
        11         6         5        46     9      180.000000       -1.070789         2
        11         6         5        46     9        0.000000       -0.245671         3
        11         6         5        46     9      180.000000       -0.136747         4
        11         6         7        34     9        0.000000       -0.057720         1
        11         6         7        34     9      180.000000        0.029406         2
        11         6         7        34     9        0.000000        0.573941         3
        11         6         7        34     9      180.000000        0.018894         4
        11         6         7        35     9        0.000000       -0.057720         1
        11         6         7        35     9      180.000000        0.029406         2
        11         6         7        35     9        0.000000        0.573941         3
        11         6         7        35     9      180.000000        0.018894         4
        11         6         7        36     9        0.000000       -0.057721         1
        11         6         7        36     9      180.000000        0.029405         2
        11         6         7        36     9        0.000000        0.573941         3
        11         6         7        36     9      180.000000        0.018894         4
        11         6         8        37     9        0.000000       -0.050642         1
        11         6         8        37     9      180.000000        0.004826         2
        11         6         8        37     9        0.000000        0.330829         3
        11         6         8        37     9      180.000000       -0.010929         4
        11         6         8        38     9        0.000000       -0.050642         1
        11         6         8        38     9      180.000000        0.004826         2
        11         6         8        38     9        0.000000        0.330829         3
        11         6         8        38     9      180.000000       -0.010929         4
        11        12        13        14     9        0.000000        0.135011         1
        11        12        13        14     9      180.000000       16.298134         2
        11        12        13        14     9        0.000000       -1.261244         3
        11        12        13        14     9      180.000000       -0.311375         4
        11        12        13        18     9        0.000000        0.144216         1
        11        12        13        18     9      180.000000       17.409737         2
        11        12        13        18     9        0.000000       -0.174011         3
        11        12        13        18     9      180.000000       -0.368623         4
        11        16        15        14     9        0.000000       -0.080024         1
        11        16        15        14     9      180.000000       16.953732         2
        11        16        15        14     9        0.000000       -1.323432         3
        11        16        15        14     9      180.000000       -0.328901         4
        11        16        15        41     9        0.000000       -0.059143         1
        11        16        15        41     9      180.000000       12.772128         2
        11        16        15        41     9        0.000000       -0.499396         3
        11        16        15        41     9      180.000000        0.127549         4
        12        11        16        15     9        0.000000       -0.173736         1
        12        11        16        15     9      180.000000       16.914658         2
        12        11        16        15     9        0.000000       -1.161207         3
        12        11        16        15     9      180.000000       -0.276189         4
        12        11        16        17     9        0.000000        0.384428         1
        12        11        16        17     9      180.000000       22.976124         2
        12        11        16        17     9        0.000000        0.257360         3
        12        11        16        17     9      180.000000       -0.699186         4
        12        13        14        15     9        0.000000        0.064485         1
        12        13        14        15     9      180.000000       16.735763         2
        12        13        14        15     9        0.000000       -1.016786         3
        12        13        14        15     9      180.000000       -0.170392         4
        12        13        14        40     9        0.000000        0.074224         1
        12        13        14        40     9      180.000000       13.213976         2
        12        13        14        40     9        0.000000       -0.391585         3
        12        13        14        40     9      180.000000        0.103785         4
        12        13        18        19     9        0.000000        0.025655         1
        12        13        18        19     9      180.000000        2.587159         2
        12        13        18        19     9        0.000000        0.065341         3
        12        13        18        19     9      180.000000        0.030263         4
        12        13        18        42     9        0.000000        0.319442         1
        12        13        18        42     9      180.000000        2.863785         2
        12        13        18        42     9        0.000000        0.118628         3
        12        13        18        42     9      180.000000        0.324983         4
        13        12        11        16     9        0.000000       -0.218846         1
        13        12        11        16     9      180.000000       18.323536         2
        13        12        11        16     9        0.000000       -1.882635         3
        13        12        11        16     9      180.000000       -0.340787         4
        13        14        15        16     9        0.000000       -0.034299         1
        13        14        15        16     9      180.000000       18.471294         2
        13        14        15        16     9        0.000000       -1.777578         3
        13        14        15        16     9      180.000000       -0.370269         4
        13        14        15        41     9        0.000000        0.114541         1
        13        14        15        41     9      180.000000       14.127530         2
        13        14        15        41     9        0.000000       -0.492522         3
        13        14        15        41     9      180.000000        0.094779         4
        13        18        19        20     9        0.000000       -0.963491         1
        13        18        19        20     9      180.000000       11.070467         2
        13        18        19        20     9        0.000000        0.363226         3
        13        18        19        20     9      180.000000       -0.854147         4
        13        18        19        21     9        0.000000        2.457204         1
        13        18        19        21     9      180.000000        9.098407         2
        13        18        19        21     9        0.000000        0.494283         3
        13        18        19        21     9      180.000000       -0.791838         4
        14        13        12        39     9        0.000000        0.115535         1
        14        13        12        39     9      180.000000       12.513166         2
        14        13        12        39     9        0.000000       -0.593681         3
        14        13        12        39     9      180.000000        0.136256         4
        14        13        18        19     9        0.000000        0.177368         1
        14        13        18        19     9      180.000000        2.504939         2
        14        13        18        19     9        0.000000        0.098992         3
        14        13        18        19     9      180.000000        0.050409         4
        14        13        18        42     9        0.000000       -0.008990         1
        14        13        18        42     9      180.000000        2.637071         2
        14        13        18        42     9        0.000000        0.107575         3
        14        13        18        42     9      180.000000        0.337530         4
        14        15        16        17     9        0.000000        0.442217         1
        14        15        16        17     9      180.000000       23.154583         2
        14        15        16        17     9        0.000000        0.511221         3
        14        15        16        17     9      180.000000       -0.509391         4
        15        14        13        18     9        0.000000        0.259462         1
        15        14        13        18     9      180.000000       18.329583         2
        15        14        13        18     9        0.000000        0.066298         3
        15        14        13        18     9      180.000000       -0.312736         4
        16        11        12        39     9        0.000000        0.105588         1
        16        11        12        39     9      180.000000       14.428505         2
        16        11        12        39     9        0.000000       -0.521458         3
        16        11        12        39     9      180.000000        0.130729         4
        16        15        14        40     9        0.000000        0.210606         1
        16        15        14        40     9      180.000000       14.804357         2
        16        15        14        40     9        0.000000       -0.476365         3
        16        15        14        40     9      180.000000        0.141663         4
        17        16        15        41     9        0.000000        0.048292         1
        17        16        15        41     9      180.000000       16.567412         2
        17        16        15        41     9        0.000000        0.241253         3
        17        16        15        41     9      180.000000        0.180196         4
        18        13        12        39     9        0.000000       -0.101766         1
        18        13        12        39     9      180.000000       14.119686         2
        18        13        12        39     9        0.000000       -0.204451         3
        18        13        12        39     9      180.000000        0.251424         4
        18        13        14        40     9        0.000000        0.003761         1
        18        13        14        40     9      180.000000       14.112930         2
        18        13        14        40     9        0.000000       -0.146156         3
        18        13        14        40     9      180.000000        0.222840         4
        18        19        21        22     9        0.000000       -0.201976         1
        18        19        21        22     9      180.000000        3.092884         2
        18        19        21        22     9        0.000000       -0.034305         3
        18        19        21        22     9      180.000000       -0.001874         4
        18        19        21        28     9        0.000000        2.332240         1
        18        19        21        28     9      180.000000        3.196987         2
        18        19        21        28     9        0.000000        0.457700         3
        18        19        21        28     9      180.000000       -0.198698         4
        19        21        22        23     9        0.000000        0.140408         1
        19        21        22        23     9      180.000000       13.229086         2
        19        21        22        23     9        0.000000        0.041659         3
        19        21        22        23     9      180.000000       -0.465410         4
        19        21        22        43     9        0.000000        0.144569         1
        19        21        22        43     9      180.000000       11.199797         2
        19        21        22        43     9        0.000000       -0.355488         3
        19        21        22        43     9      180.000000        0.007616         4
        19        21        28        27     9        0.000000        1.360479         1
        19        21        28        27     9      180.000000       19.688692         2
        19        21        28        27     9        0.000000        1.164482         3
        19        21        28        27     9      180.000000       -0.930724         4
        20        19        18        42     9        0.000000       -0.149434         1
        20        19        18        42     9      180.000000       11.010603         2
        20        19        18        42     9        0.000000        0.291139         3
        20        19        18        42     9      180.000000        0.782957         4
        20        19        21        22     9        0.000000        1.464050         1
        20        19        21        22     9      180.000000        3.663103         2
        20        19        21        22     9        0.000000       -0.509159         3
        20        19        21        22     9      180.000000        0.289044         4
        20        19        21        28     9        0.000000       -4.063314         1
        20        19        21        28     9      180.000000        4.026250         2
        20        19        21        28     9        0.000000        0.538275         3
        20        19        21        28     9      180.000000        0.091187         4
        21        19        18        42     9        0.000000        0.365799         1
        21        19        18        42     9      180.000000        7.925501         2
        21        19        18        42     9        0.000000        0.065234         3
        21        19        18        42     9      180.000000        0.397713         4
        21        22        23        24     9        0.000000       -0.150418         1
        21        22        23        24     9      180.000000       18.722570         2
        21        22        23        24     9        0.000000       -1.685045         3
        21        22        23        24     9      180.000000       -0.507584         4
        21        22        23        44     9        0.000000        0.188323         1
        21        22        23        44     9      180.000000       14.059852         2
        21        22        23        44     9        0.000000       -0.400013         3
        21        22        23        44     9      180.000000        0.165519         4
        21        28        27        24     9        0.000000       -0.178113         1
        21        28        27        24     9      180.000000       24.715942         2
        21        28        27        24     9        0.000000       -0.413933         3
        21        28        27        24     9      180.000000       -0.405181         4
        21        28        27        45     9        0.000000        1.153584         1
        21        28        27        45     9      180.000000       22.289320         2
        21        28        27        45     9        0.000000        0.324326         3
        21        28        27        45     9      180.000000       -0.702377         4
        22        21        28        27     9        0.000000       -0.314197         1
        22        21        28        27     9      180.000000       21.007858         2
        22        21        28        27     9        0.000000       -0.567202         3
        22        21        28        27     9      180.000000       -0.082949         4
        22        23        24        25     9        0.000000        0.089191         1
        22        23        24        25     9      180.000000       16.713642         2
        22        23        24        25     9        0.000000       -0.248768         3
        22        23        24        25     9      180.000000       -0.281099         4
        22        23        24        27     9        0.000000       -0.060003         1
        22        23        24        27     9      180.000000       17.472829         2
        22        23        24        27     9        0.000000       -1.700870         3
        22        23        24        27     9      180.000000       -0.406140         4
        23        22        21        28     9        0.000000       -0.184679         1
        23        22        21        28     9      180.000000       16.471624         2
        23        22        21        28     9        0.000000       -0.728924         3
        23        22        21        28     9      180.000000       -0.367800         4
        23        24        25        26     9        0.000000        0.000000         1
        23        24        25        26     9      180.000000        0.000000         2
        23        24        25        26     9        0.000000        0.000000         3
        23        24        25        26     9      180.000000        0.000000         4
        23        24        27        28     9        0.000000       -0.049966         1
        23        24        27        28     9      180.000000       16.586134         2
        23        24        27        28     9        0.000000       -0.915810         3
        23        24        27        28     9      180.000000       -0.372501         4
        23        24        27        45     9        0.000000       -0.019153         1
        23        24        27        45     9      180.000000       12.980069         2
        23        24        27        45     9        0.000000       -0.559698         3
        23        24        27        45     9      180.000000        0.044912         4
        24        23        22        43     9        0.000000       -0.041359         1
        24        23        22        43     9      180.000000       14.631226         2
        24        23        22        43     9        0.000000       -0.380130         3
        24        23        22        43     9      180.000000        0.024568         4
        25        24        23        44     9        0.000000        0.170623         1
        25        24        23        44     9      180.000000       12.690377         2
        25        24        23        44     9        0.000000       -0.207423         3
        25        24        23        44     9      180.000000        0.078608         4
        25        24        27        28     9        0.000000       -0.370061         1
        25        24        27        28     9      180.000000       15.079221         2
        25        24        27        28     9        0.000000       -0.157706         3
        25        24        27        28     9      180.000000       -0.513768         4
        25        24        27        45     9        0.000000        0.253831         1
        25        24        27        45     9      180.000000       12.498322         2
        25        24        27        45     9        0.000000       -0.153843         3
        25        24        27        45     9      180.000000        0.008586         4
        26        25        24        27     9        0.000000        0.000000         1
        26        25        24        27     9      180.000000        0.000000         2
        26        25        24        27     9        0.000000        0.000000         3
        26        25        24        27     9      180.000000        0.000000         4
        27        24        23        44     9        0.000000        0.053545         1
        27        24        23        44     9      180.000000       13.523605         2
        27        24        23        44     9        0.000000       -0.661342         3
        27        24        23        44     9      180.000000        0.090764         4
        28        21        22        43     9        0.000000       -0.046073         1
        28        21        22        43     9      180.000000       12.354145         2
        28        21        22        43     9        0.000000       -0.247063         3
        28        21        22        43     9      180.000000       -0.140129         4
        40        14        15        41     9        0.000000       -0.097817         1
        40        14        15        41     9      180.000000       11.939894         2
        40        14        15        41     9        0.000000       -0.735367         3
        40        14        15        41     9      180.000000        0.258202         4
        43        22        23        44     9        0.000000       -0.441275         1
        43        22        23        44     9      180.000000       11.910340         2
        43        22        23        44     9        0.000000       -0.799467         3
        43        22        23        44     9      180.000000        0.340893         4

[ dihedrals ] ; impropers
;       ai        aj        ak        al funct           phase               k        pn
         3         2         4         5     4      180.000000       12.892481         2
         3         4         5         2     4      180.000000       12.892481         2
         3         5         2         4     4      180.000000       12.892481         2
         9         2         8        10     4      180.000000       23.226921         2
         9         8        10         2     4      180.000000       23.226921         2
         9        10         2         8     4      180.000000       23.226921         2
        19        18        20        21     4      180.000000       27.893333         2
        19        20        21        18     4      180.000000       27.893333         2
        19        21        18        20     4      180.000000       27.893333         2
        21        19        22        28     4      180.000000        0.303112         2
        21        22        28        19     4      180.000000        0.303112         2
        21        28        19        22     4      180.000000        0.303112         2
        27        24        28        45     4      180.000000        7.020643         2
        27        28        45        24     4      180.000000        7.020643         2
        27        45        24        28     4      180.000000        7.020643         2

[ pairs ]
;       ai        aj funct
         1         4     1
         1         5     1
         1         8     1
         1        10     1
         2         6     1
         2        32     1
         2        33     1
         2        37     1
         2        38     1
         2        46     1
         3         7     1
         3         8     1
         3        10     1
         3        11     1
         3        29     1
         3        30     1
         3        31     1
         4         6     1
         4         9     1
         4        46     1
         5         9     1
         5        12     1
         5        16     1
         5        32     1
         5        33     1
         5        34     1
         5        35     1
         5        36     1
         5        37     1
         5        38     1
         6        10     1
         6        13     1
         6        15     1
         6        17     1
         6        39     1
         7         9     1
         7        12     1
         7        16     1
         7        37     1
         7        38     1
         7        46     1
         8        12     1
         8        16     1
         8        34     1
         8        35     1
         8        36     1
         8        46     1
         9        11     1
         9        29     1
         9        30     1
         9        31     1
        10        37     1
        10        38     1
        11        14     1
        11        18     1
        11        34     1
        11        35     1
        11        36     1
        11        37     1
        11        38     1
        11        41     1
        11        46     1
        12        15     1
        12        17     1
        12        19     1
        12        40     1
        12        42     1
        13        16     1
        13        20     1
        13        21     1
        13        41     1
        14        17     1
        14        19     1
        14        39     1
        14        42     1
        15        18     1
        16        39     1
        16        40     1
        17        41     1
        18        22     1
        18        28     1
        18        39     1
        18        40     1
        19        23     1
        19        27     1
        19        43     1
        20        22     1
        20        28     1
        20        42     1
        21        24     1
        21        42     1
        21        44     1
        21        45     1
        22        25     1
        22        27     1
        23        26     1
        23        28     1
        23        45     1
        24        43     1
        25        28     1
        25        44     1
        25        45     1
        26        27     1
        27        44     1
        28        43     1
        40        41     1
        43        44     1
