; ITP file created by ByteFF-ML, 2025-12-06 06:46:39.339457

[ atomtypes ]
;name           bonded.type        at.num        mass        charge   ptype           sigma         epsilon
 c0bf                                   6      0.0000       0.00000       A     3.39737e-01     4.50077e-01
 o1bf                                   8      0.0000       0.00000       A     3.15714e-01     3.03959e-01
 c2bf                                   6      0.0000       0.00000       A     3.31417e-01     4.11803e-01
 c3bf                                   6      0.0000       0.00000       A     3.31631e-01     4.14528e-01
 n4bf                                   7      0.0000       0.00000       A     3.38496e-01     3.92572e-01
 c5bf                                   6      0.0000       0.00000       A     3.31452e-01     4.10539e-01
 c6bf                                   6      0.0000       0.00000       A     3.31330e-01     4.13851e-01
 n7bf                                   7      0.0000       0.00000       A     3.38358e-01     3.96036e-01
 c8bf                                   6      0.0000       0.00000       A     3.31148e-01     4.05346e-01
 o9bf                                   8      0.0000       0.00000       A     3.04717e-01     6.06795e-01
 n10bf                                  7      0.0000       0.00000       A     3.27014e-01     4.86886e-01
 c11bf                                  6      0.0000       0.00000       A     3.31493e-01     4.13652e-01
 c12bf                                  6      0.0000       0.00000       A     3.31509e-01     4.12384e-01
 c13bf                                  6      0.0000       0.00000       A     3.31472e-01     4.13174e-01
 c14bf                                  6      0.0000       0.00000       A     3.31428e-01     4.11122e-01
 f15bf                                  9      0.0000       0.00000       A     3.03512e-01     3.48021e-01
 c16bf                                  6      0.0000       0.00000       A     3.31773e-01     4.12332e-01
 c17bf                                  6      0.0000       0.00000       A     3.31721e-01     4.13494e-01
 c18bf                                  6      0.0000       0.00000       A     3.39819e-01     4.49618e-01
 c19bf                                  6      0.0000       0.00000       A     3.39780e-01     4.49359e-01
 c20bf                                  6      0.0000       0.00000       A     3.39742e-01     4.47260e-01
 c21bf                                  6      0.0000       0.00000       A     3.31488e-01     4.13133e-01
 o22bf                                  8      0.0000       0.00000       A     3.04968e-01     6.14477e-01
 n23bf                                  7      0.0000       0.00000       A     3.17488e-01     6.93060e-01
 c24bf                                  6      0.0000       0.00000       A     3.39806e-01     4.54466e-01
 c25bf                                  6      0.0000       0.00000       A     3.31339e-01     4.08994e-01
 n26bf                                  7      0.0000       0.00000       A     3.36511e-01     4.76104e-01
 n27bf                                  7      0.0000       0.00000       A     3.27880e-01     6.42737e-01
 h28bf                                  1      0.0000       0.00000       A     2.42098e-01     8.72826e-02
 h29bf                                  1      0.0000       0.00000       A     2.42098e-01     8.72826e-02
 h30bf                                  1      0.0000       0.00000       A     2.42098e-01     8.72826e-02
 h31bf                                  1      0.0000       0.00000       A     2.53458e-01     6.72408e-02
 h32bf                                  1      0.0000       0.00000       A     2.53990e-01     6.69471e-02
 h33bf                                  1      0.0000       0.00000       A     1.10735e-01     3.92473e-02
 h34bf                                  1      0.0000       0.00000       A     2.62514e-01     6.73797e-02
 h35bf                                  1      0.0000       0.00000       A     2.62616e-01     6.73621e-02
 h36bf                                  1      0.0000       0.00000       A     2.62747e-01     6.80357e-02
 h37bf                                  1      0.0000       0.00000       A     2.59965e-01     8.80775e-02
 h38bf                                  1      0.0000       0.00000       A     2.59965e-01     8.80775e-02
 h39bf                                  1      0.0000       0.00000       A     2.59965e-01     8.80775e-02
 h40bf                                  1      0.0000       0.00000       A     2.60156e-01     8.72124e-02
 h41bf                                  1      0.0000       0.00000       A     2.60156e-01     8.72124e-02
 h42bf                                  1      0.0000       0.00000       A     2.41897e-01     8.69315e-02
 h43bf                                  1      0.0000       0.00000       A     2.41897e-01     8.69315e-02
 h44bf                                  1      0.0000       0.00000       A     2.41897e-01     8.69315e-02
 h45bf                                  1      0.0000       0.00000       A     1.10532e-01     4.19974e-02
 h46bf                                  1      0.0000       0.00000       A     1.10532e-01     4.19974e-02
 h47bf                                  1      0.0000       0.00000       A     1.10387e-01     4.22703e-02

[ moleculetype ]
;name             nrexcl
 17d                   3

[ atoms ]
;       nr            type      resi   res      atom      cgnr      charge          mass ; qtot
         1            c0bf         1   UNL        c0         1     0.15204       12.0110 ; qtot    0.152
         2            o1bf         1   UNL        o1         2    -0.46193       15.9990 ; qtot   -0.310
         3            c2bf         1   UNL        c2         3     0.55806       12.0110 ; qtot    0.248
         4            c3bf         1   UNL        c3         4     0.25606       12.0110 ; qtot    0.504
         5            n4bf         1   UNL        n4         5    -0.59708       14.0070 ; qtot   -0.093
         6            c5bf         1   UNL        c5         6     0.18226       12.0110 ; qtot    0.089
         7            c6bf         1   UNL        c6         7     0.39660       12.0110 ; qtot    0.486
         8            n7bf         1   UNL        n7         8    -0.72673       14.0070 ; qtot   -0.241
         9            c8bf         1   UNL        c8         9     0.52266       12.0110 ; qtot    0.282
        10            o9bf         1   UNL        o9        10    -0.57505       15.9990 ; qtot   -0.293
        11           n10bf         1   UNL       n10        11    -0.13088       14.0070 ; qtot   -0.424
        12           c11bf         1   UNL       c11        12    -0.01560       12.0110 ; qtot   -0.440
        13           c12bf         1   UNL       c12        13    -0.12355       12.0110 ; qtot   -0.563
        14           c13bf         1   UNL       c13        14    -0.09680       12.0110 ; qtot   -0.660
        15           c14bf         1   UNL       c14        15     0.15629       12.0110 ; qtot   -0.504
        16           f15bf         1   UNL       f15        16    -0.18071       18.9980 ; qtot   -0.684
        17           c16bf         1   UNL       c16        17    -0.14053       12.0110 ; qtot   -0.825
        18           c17bf         1   UNL       c17        18    -0.09160       12.0110 ; qtot   -0.916
        19           c18bf         1   UNL       c18        19     0.19513       12.0110 ; qtot   -0.721
        20           c19bf         1   UNL       c19        20    -0.11146       12.0110 ; qtot   -0.833
        21           c20bf         1   UNL       c20        21    -0.17299       12.0110 ; qtot   -1.006
        22           c21bf         1   UNL       c21        22     0.56299       12.0110 ; qtot   -0.443
        23           o22bf         1   UNL       o22        23    -0.40580       15.9990 ; qtot   -0.849
        24           n23bf         1   UNL       n23        24    -0.74198       14.0070 ; qtot   -1.591
        25           c24bf         1   UNL       c24        25     0.05392       12.0110 ; qtot   -1.537
        26           c25bf         1   UNL       c25        26     0.98206       12.0110 ; qtot   -0.555
        27           n26bf         1   UNL       n26        27    -0.64294       14.0070 ; qtot   -1.198
        28           n27bf         1   UNL       n27        28    -0.48739       14.0070 ; qtot   -1.685
        29           h28bf         1   UNL       h28        29     0.05257        1.0080 ; qtot   -1.632
        30           h29bf         1   UNL       h29        30     0.05257        1.0080 ; qtot   -1.580
        31           h30bf         1   UNL       h30        31     0.05257        1.0080 ; qtot   -1.527
        32           h31bf         1   UNL       h31        32     0.04897        1.0080 ; qtot   -1.478
        33           h32bf         1   UNL       h32        33     0.05518        1.0080 ; qtot   -1.423
        34           h33bf         1   UNL       h33        34     0.18205        1.0080 ; qtot   -1.241
        35           h34bf         1   UNL       h34        35     0.13815        1.0080 ; qtot   -1.103
        36           h35bf         1   UNL       h35        36     0.14099        1.0080 ; qtot   -0.962
        37           h36bf         1   UNL       h36        37     0.14505        1.0080 ; qtot   -0.817
        38           h37bf         1   UNL       h37        38     0.06599        1.0080 ; qtot   -0.751
        39           h38bf         1   UNL       h38        39     0.06599        1.0080 ; qtot   -0.685
        40           h39bf         1   UNL       h39        40     0.06599        1.0080 ; qtot   -0.619
        41           h40bf         1   UNL       h40        41     0.10671        1.0080 ; qtot   -0.512
        42           h41bf         1   UNL       h41        42     0.10671        1.0080 ; qtot   -0.405
        43           h42bf         1   UNL       h42        43     0.08743        1.0080 ; qtot   -0.318
        44           h43bf         1   UNL       h43        44     0.08743        1.0080 ; qtot   -0.231
        45           h44bf         1   UNL       h44        45     0.08743        1.0080 ; qtot   -0.143
        46           h45bf         1   UNL       h45        46     0.38091        1.0080 ; qtot    0.238
        47           h46bf         1   UNL       h46        47     0.38091        1.0080 ; qtot    0.619
        48           h47bf         1   UNL       h47        48     0.38135        1.0080 ; qtot    1.000

[ bonds ]
;       ai        aj funct               r               k
         1         2     1        0.143829   190599.050439
         1        29     1        0.109174   306276.512207
         1        30     1        0.109174   306276.512207
         1        31     1        0.109174   306276.512207
         2         3     1        0.134790   292220.810596
         3         4     1        0.141598   238879.841406
         3         8     1        0.133033   306530.504297
         4         5     1        0.132480   360853.119971
         4        32     1        0.108608   321657.385498
         5         6     1        0.134577   291943.017920
         6         7     1        0.139738   275366.471631
         6         9     1        0.150636   172131.085376
         7         8     1        0.134108   333598.639990
         7        33     1        0.108576   323728.062012
         9        10     1        0.123138   599485.379102
         9        11     1        0.136552   288468.489893
        11        12     1        0.140714   250002.171875
        11        34     1        0.101674   403685.262207
        12        13     1        0.140444   285309.243018
        12        18     1        0.140456   283684.623193
        13        14     1        0.139425   325766.204248
        13        35     1        0.108347   327064.817334
        14        15     1        0.138798   314310.512354
        14        36     1        0.108490   324352.010205
        15        16     1        0.136530   271856.268262
        15        17     1        0.139894   278911.099023
        17        18     1        0.140096   296162.565576
        17        19     1        0.152812   166468.244141
        18        37     1        0.108237   327055.726123
        19        20     1        0.153665   173225.810181
        19        21     1        0.153567   173208.074658
        19        28     1        0.149597   141757.068726
        20        38     1        0.109224   306904.801709
        20        39     1        0.109224   306904.801709
        20        40     1        0.109224   306904.801709
        21        22     1        0.150975   184500.226904
        21        41     1        0.109235   306950.691895
        21        42     1        0.109235   306950.691895
        22        23     1        0.120853   693911.496875
        22        24     1        0.143868   140884.248633
        24        25     1        0.147696   175044.486499
        24        26     1        0.135713   303098.470020
        25        43     1        0.108963   312518.496777
        25        44     1        0.108963   312518.496777
        25        45     1        0.108963   312518.496777
        26        27     1        0.134206   388899.990918
        26        28     1        0.132907   389370.307861
        27        46     1        0.101314   426532.573389
        27        47     1        0.101314   426532.573389
        28        48     1        0.101465   415734.998340

[ angles ]
;       ai        aj        ak funct           theta             cth
         1         2         3     1      116.867775      549.837842
         2         1        29     1      108.868874      455.294898
         2         1        30     1      108.868874      455.294898
         2         1        31     1      108.868874      455.294898
         2         3         4     1      117.650696      557.172419
         2         3         8     1      120.038963      621.868834
         3         4         5     1      120.909645      781.251871
         3         4        32     1      120.696083      403.574974
         3         8         7     1      116.464073      930.433535
         4         3         8     1      121.845398      581.344315
         4         5         6     1      117.605148      735.313612
         5         4        32     1      118.279030      384.833353
         5         6         7     1      120.819031      564.260627
         5         6         9     1      118.528160      492.369578
         6         7         8     1      122.067993      662.205209
         6         7        33     1      120.284828      371.133173
         6         9        10     1      121.038818      683.784067
         6         9        11     1      112.910446      483.463000
         7         6         9     1      120.185524      556.533864
         8         7        33     1      117.127953      373.416190
         9        11        12     1      129.149261      471.305166
         9        11        34     1      113.902466      463.826623
        10         9        11     1      126.175697      588.225736
        11        12        13     1      120.512413      594.242342
        11        12        18     1      119.792679      492.755476
        12        11        34     1      117.136841      396.253389
        12        13        14     1      119.653320      723.681650
        12        13        35     1      120.063293      447.376128
        12        18        17     1      121.567215      694.507290
        12        18        37     1      118.759315      439.299921
        13        12        18     1      119.198586      568.248310
        13        14        15     1      119.369705      688.999766
        13        14        36     1      121.054733      427.595147
        14        13        35     1      120.214211      388.138685
        14        15        16     1      117.918320      539.378736
        14        15        17     1      122.595787      574.355574
        15        14        36     1      119.387718      441.378291
        15        17        18     1      116.942322      634.608660
        15        17        19     1      121.347694      572.506879
        16        15        17     1      119.443459      475.848377
        17        18        37     1      119.730515      394.673089
        17        19        20     1      112.150978      637.670687
        17        19        21     1      112.415359      569.859766
        17        19        28     1      108.144691      616.878117
        18        17        19     1      121.224815      438.628966
        19        20        38     1      110.547928      483.347764
        19        20        39     1      110.547928      483.347764
        19        20        40     1      110.547928      483.347764
        19        21        22     1      112.962242      858.197672
        19        21        41     1      110.220703      459.941024
        19        21        42     1      110.220703      459.941024
        19        28        26     1      124.150955      563.036505
        19        28        48     1      115.930809      393.822703
        20        19        21     1      111.052078      578.840273
        20        19        28     1      107.994339      619.444852
        21        19        28     1      106.247513      594.016275
        21        22        23     1      124.425797      503.203952
        21        22        24     1      115.390335      572.197305
        22        21        41     1      107.516373      561.619451
        22        21        42     1      107.516373      561.619451
        22        24        25     1      117.459496      580.627679
        22        24        26     1      121.459251      729.251932
        23        22        24     1      119.763596      657.290848
        24        25        43     1      109.269554      472.759217
        24        25        44     1      109.269569      472.759217
        24        25        45     1      109.269569      472.759217
        24        26        27     1      119.756996      585.233616
        24        26        28     1      120.408363      674.619820
        25        24        26     1      120.348282      490.741619
        26        27        46     1      121.193443      447.355507
        26        27        47     1      121.193443      447.355507
        26        28        48     1      117.963646      468.739676
        27        26        28     1      120.045181      584.318047
        29         1        30     1      110.143593      339.904033
        29         1        31     1      110.143593      339.904033
        30         1        31     1      110.143593      339.904033
        38        20        39     1      108.453712      358.661487
        38        20        40     1      108.453712      358.661487
        39        20        40     1      108.453712      358.661487
        41        21        42     1      107.501564      353.259526
        43        25        44     1      109.723488      346.581828
        43        25        45     1      109.723488      346.581828
        44        25        45     1      109.723488      346.581828
        46        27        47     1      116.920242      317.248308

[ dihedrals ] ; propers for gromacs 4.5 or higher, use funct 9
;       ai        aj        ak        al funct           phase               k        pn
         1         2         3         4     9        0.000000        0.120294         1
         1         2         3         4     9      180.000000        7.276128         2
         1         2         3         4     9        0.000000       -0.315670         3
         1         2         3         4     9      180.000000        0.588332         4
         1         2         3         8     9        0.000000        1.517425         1
         1         2         3         8     9      180.000000        7.893262         2
         1         2         3         8     9        0.000000        0.029471         3
         1         2         3         8     9      180.000000        0.331559         4
         2         3         4         5     9        0.000000       -0.232090         1
         2         3         4         5     9      180.000000       11.896707         2
         2         3         4         5     9        0.000000        0.347852         3
         2         3         4         5     9      180.000000       -0.709428         4
         2         3         4        32     9        0.000000        0.091565         1
         2         3         4        32     9      180.000000        9.973377         2
         2         3         4        32     9        0.000000       -0.173099         3
         2         3         4        32     9      180.000000       -0.011798         4
         2         3         8         7     9        0.000000        1.670118         1
         2         3         8         7     9      180.000000       24.361630         2
         2         3         8         7     9        0.000000        1.224280         3
         2         3         8         7     9      180.000000       -0.891544         4
         3         2         1        29     9        0.000000        0.044977         1
         3         2         1        29     9      180.000000        0.058490         2
         3         2         1        29     9        0.000000        0.383112         3
         3         2         1        29     9      180.000000        0.007462         4
         3         2         1        30     9        0.000000        0.044977         1
         3         2         1        30     9      180.000000        0.058490         2
         3         2         1        30     9        0.000000        0.383112         3
         3         2         1        30     9      180.000000        0.007462         4
         3         2         1        31     9        0.000000        0.044977         1
         3         2         1        31     9      180.000000        0.058490         2
         3         2         1        31     9        0.000000        0.383112         3
         3         2         1        31     9      180.000000        0.007462         4
         3         4         5         6     9        0.000000       -0.299553         1
         3         4         5         6     9      180.000000       24.256537         2
         3         4         5         6     9        0.000000       -0.730394         3
         3         4         5         6     9      180.000000       -0.499212         4
         3         8         7         6     9        0.000000       -0.031564         1
         3         8         7         6     9      180.000000       21.726426         2
         3         8         7         6     9        0.000000       -1.127649         3
         3         8         7         6     9      180.000000       -0.467351         4
         3         8         7        33     9        0.000000        0.731562         1
         3         8         7        33     9      180.000000       18.040882         2
         3         8         7        33     9        0.000000        0.289880         3
         3         8         7        33     9      180.000000       -0.172640         4
         4         3         8         7     9        0.000000        0.259567         1
         4         3         8         7     9      180.000000       17.579870         2
         4         3         8         7     9        0.000000        0.381331         3
         4         3         8         7     9      180.000000       -0.279751         4
         4         5         6         7     9        0.000000       -0.636350         1
         4         5         6         7     9      180.000000       20.664717         2
         4         5         6         7     9        0.000000       -0.689192         3
         4         5         6         7     9      180.000000       -0.087628         4
         4         5         6         9     9        0.000000        0.597159         1
         4         5         6         9     9      180.000000       20.045815         2
         4         5         6         9     9        0.000000        0.861271         3
         4         5         6         9     9      180.000000       -0.860932         4
         5         4         3         8     9        0.000000       -1.504947         1
         5         4         3         8     9      180.000000        8.896728         2
         5         4         3         8     9        0.000000        0.092626         3
         5         4         3         8     9      180.000000       -0.673032         4
         5         6         7         8     9        0.000000       -0.360791         1
         5         6         7         8     9      180.000000       16.262593         2
         5         6         7         8     9        0.000000       -0.061077         3
         5         6         7         8     9      180.000000       -0.692198         4
         5         6         7        33     9        0.000000        0.137933         1
         5         6         7        33     9      180.000000       12.095593         2
         5         6         7        33     9        0.000000       -0.103619         3
         5         6         7        33     9      180.000000       -0.287737         4
         5         6         9        10     9        0.000000       -4.067852         1
         5         6         9        10     9      180.000000        4.651405         2
         5         6         9        10     9        0.000000        0.557911         3
         5         6         9        10     9      180.000000        0.106111         4
         5         6         9        11     9        0.000000        1.593204         1
         5         6         9        11     9      180.000000        3.802579         2
         5         6         9        11     9        0.000000        0.517314         3
         5         6         9        11     9      180.000000       -0.201175         4
         6         5         4        32     9        0.000000        0.655481         1
         6         5         4        32     9      180.000000       21.368507         2
         6         5         4        32     9        0.000000        0.183031         3
         6         5         4        32     9      180.000000       -0.498734         4
         6         9        11        12     9        0.000000        2.428504         1
         6         9        11        12     9      180.000000        8.511330         2
         6         9        11        12     9        0.000000        0.448090         3
         6         9        11        12     9      180.000000       -0.751352         4
         6         9        11        34     9        0.000000        0.685994         1
         6         9        11        34     9      180.000000        7.653141         2
         6         9        11        34     9        0.000000       -0.023114         3
         6         9        11        34     9      180.000000        0.353790         4
         7         6         9        10     9        0.000000        1.442798         1
         7         6         9        10     9      180.000000        4.344900         2
         7         6         9        10     9        0.000000       -0.634888         3
         7         6         9        10     9      180.000000        0.322917         4
         7         6         9        11     9        0.000000       -0.400895         1
         7         6         9        11     9      180.000000        3.553927         2
         7         6         9        11     9        0.000000       -0.256306         3
         7         6         9        11     9      180.000000       -0.047324         4
         8         3         4        32     9        0.000000       -0.352725         1
         8         3         4        32     9      180.000000        7.959583         2
         8         3         4        32     9        0.000000       -0.263160         3
         8         3         4        32     9      180.000000       -0.178512         4
         8         7         6         9     9        0.000000       -0.175661         1
         8         7         6         9     9      180.000000       12.857960         2
         8         7         6         9     9        0.000000        0.106399         3
         8         7         6         9     9      180.000000       -0.607118         4
         9         6         7        33     9        0.000000        0.171151         1
         9         6         7        33     9      180.000000       11.100510         2
         9         6         7        33     9        0.000000       -0.370178         3
         9         6         7        33     9      180.000000        0.036745         4
         9        11        12        13     9        0.000000        0.172085         1
         9        11        12        13     9      180.000000        2.538576         2
         9        11        12        13     9        0.000000        0.101426         3
         9        11        12        13     9      180.000000        0.054833         4
         9        11        12        18     9        0.000000        0.047904         1
         9        11        12        18     9      180.000000        2.576024         2
         9        11        12        18     9        0.000000        0.059111         3
         9        11        12        18     9      180.000000        0.042700         4
        10         9        11        12     9        0.000000       -0.958378         1
        10         9        11        12     9      180.000000       10.970498         2
        10         9        11        12     9        0.000000        0.350209         3
        10         9        11        12     9      180.000000       -0.845689         4
        10         9        11        34     9        0.000000       -0.172959         1
        10         9        11        34     9      180.000000       11.055031         2
        10         9        11        34     9        0.000000        0.302245         3
        10         9        11        34     9      180.000000        0.824520         4
        11        12        13        14     9        0.000000        0.256610         1
        11        12        13        14     9      180.000000       18.255592         2
        11        12        13        14     9        0.000000        0.054571         3
        11        12        13        14     9      180.000000       -0.303507         4
        11        12        13        35     9        0.000000        0.007064         1
        11        12        13        35     9      180.000000       14.085998         2
        11        12        13        35     9        0.000000       -0.138723         3
        11        12        13        35     9      180.000000        0.220680         4
        11        12        18        17     9        0.000000        0.153484         1
        11        12        18        17     9      180.000000       17.388619         2
        11        12        18        17     9        0.000000       -0.174926         3
        11        12        18        17     9      180.000000       -0.356562         4
        11        12        18        37     9        0.000000       -0.097150         1
        11        12        18        37     9      180.000000       14.089012         2
        11        12        18        37     9        0.000000       -0.202977         3
        11        12        18        37     9      180.000000        0.251003         4
        12        13        14        15     9        0.000000       -0.034299         1
        12        13        14        15     9      180.000000       18.471290         2
        12        13        14        15     9        0.000000       -1.777576         3
        12        13        14        15     9      180.000000       -0.370270         4
        12        13        14        36     9        0.000000        0.114541         1
        12        13        14        36     9      180.000000       14.127530         2
        12        13        14        36     9        0.000000       -0.492522         3
        12        13        14        36     9      180.000000        0.094779         4
        12        18        17        15     9        0.000000       -0.218846         1
        12        18        17        15     9      180.000000       18.323534         2
        12        18        17        15     9        0.000000       -1.882635         3
        12        18        17        15     9      180.000000       -0.340787         4
        12        18        17        19     9        0.000000        0.449831         1
        12        18        17        19     9      180.000000       15.362191         2
        12        18        17        19     9        0.000000        0.018152         3
        12        18        17        19     9      180.000000       -0.328546         4
        13        12        11        34     9        0.000000        0.034551         1
        13        12        11        34     9      180.000000        2.596570         2
        13        12        11        34     9        0.000000        0.119423         3
        13        12        11        34     9      180.000000        0.331364         4
        13        12        18        17     9        0.000000        0.135012         1
        13        12        18        17     9      180.000000       16.298134         2
        13        12        18        17     9        0.000000       -1.261245         3
        13        12        18        17     9      180.000000       -0.311375         4
        13        12        18        37     9        0.000000        0.115535         1
        13        12        18        37     9      180.000000       12.513165         2
        13        12        18        37     9        0.000000       -0.593681         3
        13        12        18        37     9      180.000000        0.136256         4
        13        14        15        16     9        0.000000        0.442217         1
        13        14        15        16     9      180.000000       23.154581         2
        13        14        15        16     9        0.000000        0.511221         3
        13        14        15        16     9      180.000000       -0.509391         4
        13        14        15        17     9        0.000000       -0.080024         1
        13        14        15        17     9      180.000000       16.953732         2
        13        14        15        17     9        0.000000       -1.323432         3
        13        14        15        17     9      180.000000       -0.328901         4
        14        13        12        18     9        0.000000        0.064485         1
        14        13        12        18     9      180.000000       16.735759         2
        14        13        12        18     9        0.000000       -1.016786         3
        14        13        12        18     9      180.000000       -0.170393         4
        14        15        17        18     9        0.000000       -0.173736         1
        14        15        17        18     9      180.000000       16.914658         2
        14        15        17        18     9        0.000000       -1.161205         3
        14        15        17        18     9      180.000000       -0.276189         4
        14        15        17        19     9        0.000000        0.023727         1
        14        15        17        19     9      180.000000       12.550529         2
        14        15        17        19     9        0.000000       -0.139606         3
        14        15        17        19     9      180.000000       -0.177480         4
        15        14        13        35     9        0.000000        0.210606         1
        15        14        13        35     9      180.000000       14.804355         2
        15        14        13        35     9        0.000000       -0.476366         3
        15        14        13        35     9      180.000000        0.141663         4
        15        17        18        37     9        0.000000        0.105587         1
        15        17        18        37     9      180.000000       14.428507         2
        15        17        18        37     9        0.000000       -0.521458         3
        15        17        18        37     9      180.000000        0.130729         4
        15        17        19        20     9        0.000000        0.050323         1
        15        17        19        20     9      180.000000        0.683087         2
        15        17        19        20     9        0.000000        0.270333         3
        15        17        19        20     9      180.000000        0.129840         4
        15        17        19        21     9        0.000000       -1.151622         1
        15        17        19        21     9      180.000000        0.074564         2
        15        17        19        21     9        0.000000        0.240904         3
        15        17        19        21     9      180.000000        0.139898         4
        15        17        19        28     9        0.000000        1.147519         1
        15        17        19        28     9      180.000000       -1.013076         2
        15        17        19        28     9        0.000000        0.245266         3
        15        17        19        28     9      180.000000        0.285130         4
        16        15        14        36     9        0.000000        0.048293         1
        16        15        14        36     9      180.000000       16.567410         2
        16        15        14        36     9        0.000000        0.241252         3
        16        15        14        36     9      180.000000        0.180196         4
        16        15        17        18     9        0.000000        0.384428         1
        16        15        17        18     9      180.000000       22.976122         2
        16        15        17        18     9        0.000000        0.257360         3
        16        15        17        18     9      180.000000       -0.699187         4
        16        15        17        19     9        0.000000        0.573605         1
        16        15        17        19     9      180.000000       17.105299         2
        16        15        17        19     9        0.000000        0.623469         3
        16        15        17        19     9      180.000000       -0.487029         4
        17        15        14        36     9        0.000000       -0.059143         1
        17        15        14        36     9      180.000000       12.772129         2
        17        15        14        36     9        0.000000       -0.499396         3
        17        15        14        36     9      180.000000        0.127549         4
        17        19        20        38     9        0.000000       -0.057721         1
        17        19        20        38     9      180.000000        0.029405         2
        17        19        20        38     9        0.000000        0.573940         3
        17        19        20        38     9      180.000000        0.018894         4
        17        19        20        39     9        0.000000       -0.057721         1
        17        19        20        39     9      180.000000        0.029405         2
        17        19        20        39     9        0.000000        0.573940         3
        17        19        20        39     9      180.000000        0.018894         4
        17        19        20        40     9        0.000000       -0.057721         1
        17        19        20        40     9      180.000000        0.029405         2
        17        19        20        40     9        0.000000        0.573940         3
        17        19        20        40     9      180.000000        0.018894         4
        17        19        21        22     9        0.000000       -0.292597         1
        17        19        21        22     9      180.000000       -0.047787         2
        17        19        21        22     9        0.000000        0.018665         3
        17        19        21        22     9      180.000000        0.033765         4
        17        19        21        41     9        0.000000       -0.050643         1
        17        19        21        41     9      180.000000        0.004825         2
        17        19        21        41     9        0.000000        0.330829         3
        17        19        21        41     9      180.000000       -0.010929         4
        17        19        21        42     9        0.000000       -0.050643         1
        17        19        21        42     9      180.000000        0.004825         2
        17        19        21        42     9        0.000000        0.330829         3
        17        19        21        42     9      180.000000       -0.010929         4
        17        19        28        26     9        0.000000       -1.495913         1
        17        19        28        26     9      180.000000       -1.009502         2
        17        19        28        26     9        0.000000        0.315799         3
        17        19        28        26     9      180.000000       -0.149507         4
        17        19        28        48     9        0.000000        0.930451         1
        17        19        28        48     9      180.000000       -1.070787         2
        17        19        28        48     9        0.000000       -0.245671         3
        17        19        28        48     9      180.000000       -0.136747         4
        18        12        11        34     9        0.000000        0.358484         1
        18        12        11        34     9      180.000000        2.809827         2
        18        12        11        34     9        0.000000        0.130545         3
        18        12        11        34     9      180.000000        0.315286         4
        18        12        13        35     9        0.000000        0.074224         1
        18        12        13        35     9      180.000000       13.213976         2
        18        12        13        35     9        0.000000       -0.391585         3
        18        12        13        35     9      180.000000        0.103786         4
        18        17        19        20     9        0.000000       -0.581558         1
        18        17        19        20     9      180.000000        0.907606         2
        18        17        19        20     9        0.000000       -0.347961         3
        18        17        19        20     9      180.000000        0.217001         4
        18        17        19        21     9        0.000000       -0.362605         1
        18        17        19        21     9      180.000000        0.362235         2
        18        17        19        21     9        0.000000       -0.367988         3
        18        17        19        21     9      180.000000        0.227409         4
        18        17        19        28     9        0.000000        0.007093         1
        18        17        19        28     9      180.000000        0.674770         2
        18        17        19        28     9        0.000000       -0.370788         3
        18        17        19        28     9      180.000000        0.208763         4
        19        17        18        37     9        0.000000        0.036454         1
        19        17        18        37     9      180.000000       13.316311         2
        19        17        18        37     9        0.000000       -0.196418         3
        19        17        18        37     9      180.000000        0.052473         4
        19        21        22        23     9        0.000000        0.939504         1
        19        21        22        23     9      180.000000        0.137828         2
        19        21        22        23     9        0.000000       -0.656966         3
        19        21        22        23     9      180.000000        0.193308         4
        19        21        22        24     9        0.000000        1.623944         1
        19        21        22        24     9      180.000000        0.402904         2
        19        21        22        24     9        0.000000       -0.788274         3
        19        21        22        24     9      180.000000        0.567613         4
        19        28        26        24     9        0.000000        4.222561         1
        19        28        26        24     9      180.000000        8.750602         2
        19        28        26        24     9        0.000000        0.189491         3
        19        28        26        24     9      180.000000       -0.371883         4
        19        28        26        27     9        0.000000        2.951568         1
        19        28        26        27     9      180.000000       12.517307         2
        19        28        26        27     9        0.000000       -0.263636         3
        19        28        26        27     9      180.000000       -1.310143         4
        20        19        21        22     9        0.000000       -1.119995         1
        20        19        21        22     9      180.000000        0.623613         2
        20        19        21        22     9        0.000000        0.163513         3
        20        19        21        22     9      180.000000       -0.093574         4
        20        19        21        41     9        0.000000       -0.087307         1
        20        19        21        41     9      180.000000       -0.024332         2
        20        19        21        41     9        0.000000        0.270822         3
        20        19        21        41     9      180.000000        0.017468         4
        20        19        21        42     9        0.000000       -0.087307         1
        20        19        21        42     9      180.000000       -0.024332         2
        20        19        21        42     9        0.000000        0.270822         3
        20        19        21        42     9      180.000000        0.017468         4
        20        19        28        26     9        0.000000       -1.367712         1
        20        19        28        26     9      180.000000        0.737240         2
        20        19        28        26     9        0.000000        0.156477         3
        20        19        28        26     9      180.000000       -0.062075         4
        20        19        28        48     9        0.000000       -0.715271         1
        20        19        28        48     9      180.000000        0.566347         2
        20        19        28        48     9        0.000000       -0.071706         3
        20        19        28        48     9      180.000000       -0.078810         4
        21        19        20        38     9        0.000000       -0.017362         1
        21        19        20        38     9      180.000000       -0.049527         2
        21        19        20        38     9        0.000000        0.402468         3
        21        19        20        38     9      180.000000        0.035150         4
        21        19        20        39     9        0.000000       -0.017362         1
        21        19        20        39     9      180.000000       -0.049527         2
        21        19        20        39     9        0.000000        0.402468         3
        21        19        20        39     9      180.000000        0.035150         4
        21        19        20        40     9        0.000000       -0.017362         1
        21        19        20        40     9      180.000000       -0.049527         2
        21        19        20        40     9        0.000000        0.402468         3
        21        19        20        40     9      180.000000        0.035150         4
        21        19        28        26     9        0.000000        1.318740         1
        21        19        28        26     9      180.000000       -1.551336         2
        21        19        28        26     9        0.000000       -0.031507         3
        21        19        28        26     9      180.000000        0.400981         4
        21        19        28        48     9        0.000000       -1.240823         1
        21        19        28        48     9      180.000000       -0.902119         2
        21        19        28        48     9        0.000000       -0.043946         3
        21        19        28        48     9      180.000000        0.166287         4
        21        22        24        25     9        0.000000       -0.718790         1
        21        22        24        25     9      180.000000        8.647621         2
        21        22        24        25     9        0.000000       -0.138830         3
        21        22        24        25     9      180.000000       -0.075159         4
        21        22        24        26     9        0.000000        0.214317         1
        21        22        24        26     9      180.000000        1.458511         2
        21        22        24        26     9        0.000000       -0.011229         3
        21        22        24        26     9      180.000000        0.498029         4
        22        21        19        28     9        0.000000       12.142134         1
        22        21        19        28     9      180.000000       -5.361813         2
        22        21        19        28     9        0.000000       -1.789326         3
        22        21        19        28     9      180.000000        1.494454         4
        22        24        25        43     9        0.000000       -0.069013         1
        22        24        25        43     9      180.000000       -0.038564         2
        22        24        25        43     9        0.000000       -0.189883         3
        22        24        25        43     9      180.000000        0.040032         4
        22        24        25        44     9        0.000000       -0.069013         1
        22        24        25        44     9      180.000000       -0.038564         2
        22        24        25        44     9        0.000000       -0.189883         3
        22        24        25        44     9      180.000000        0.040032         4
        22        24        25        45     9        0.000000       -0.069013         1
        22        24        25        45     9      180.000000       -0.038564         2
        22        24        25        45     9        0.000000       -0.189883         3
        22        24        25        45     9      180.000000        0.040032         4
        22        24        26        27     9        0.000000        2.476372         1
        22        24        26        27     9      180.000000        9.542962         2
        22        24        26        27     9        0.000000       -0.747467         3
        22        24        26        27     9      180.000000       -0.726154         4
        22        24        26        28     9        0.000000        5.406490         1
        22        24        26        28     9      180.000000        4.726422         2
        22        24        26        28     9        0.000000       -0.579634         3
        22        24        26        28     9      180.000000        0.189765         4
        23        22        21        41     9        0.000000       -0.044386         1
        23        22        21        41     9      180.000000        0.208352         2
        23        22        21        41     9        0.000000       -0.553062         3
        23        22        21        41     9      180.000000        0.035848         4
        23        22        21        42     9        0.000000       -0.044386         1
        23        22        21        42     9      180.000000        0.208352         2
        23        22        21        42     9        0.000000       -0.553062         3
        23        22        21        42     9      180.000000        0.035848         4
        23        22        24        25     9        0.000000       -0.892079         1
        23        22        24        25     9      180.000000       11.074072         2
        23        22        24        25     9        0.000000       -1.195749         3
        23        22        24        25     9      180.000000        0.340279         4
        23        22        24        26     9        0.000000        4.378006         1
        23        22        24        26     9      180.000000        8.435320         2
        23        22        24        26     9        0.000000       -0.775495         3
        23        22        24        26     9      180.000000       -0.116887         4
        24        22        21        41     9        0.000000       -0.308409         1
        24        22        21        41     9      180.000000        0.103869         2
        24        22        21        41     9        0.000000       -0.315281         3
        24        22        21        41     9      180.000000        0.040184         4
        24        22        21        42     9        0.000000       -0.308409         1
        24        22        21        42     9      180.000000        0.103869         2
        24        22        21        42     9        0.000000       -0.315281         3
        24        22        21        42     9      180.000000        0.040184         4
        24        26        27        46     9        0.000000       -0.105425         1
        24        26        27        46     9      180.000000        6.030113         2
        24        26        27        46     9        0.000000        0.167347         3
        24        26        27        46     9      180.000000       -0.592536         4
        24        26        27        47     9        0.000000       -0.105425         1
        24        26        27        47     9      180.000000        6.030113         2
        24        26        27        47     9        0.000000        0.167347         3
        24        26        27        47     9      180.000000       -0.592536         4
        24        26        28        48     9        0.000000        0.655961         1
        24        26        28        48     9      180.000000        9.003275         2
        24        26        28        48     9        0.000000       -0.132610         3
        24        26        28        48     9      180.000000       -0.471553         4
        25        24        26        27     9        0.000000       -0.597900         1
        25        24        26        27     9      180.000000       13.268813         2
        25        24        26        27     9        0.000000       -1.132363         3
        25        24        26        27     9      180.000000       -0.736178         4
        25        24        26        28     9        0.000000       -1.365398         1
        25        24        26        28     9      180.000000       10.441499         2
        25        24        26        28     9        0.000000       -0.939979         3
        25        24        26        28     9      180.000000       -0.119939         4
        26        24        25        43     9        0.000000       -0.043185         1
        26        24        25        43     9      180.000000       -0.006038         2
        26        24        25        43     9        0.000000       -0.004683         3
        26        24        25        43     9      180.000000       -0.005183         4
        26        24        25        44     9        0.000000       -0.043185         1
        26        24        25        44     9      180.000000       -0.006038         2
        26        24        25        44     9        0.000000       -0.004683         3
        26        24        25        44     9      180.000000       -0.005183         4
        26        24        25        45     9        0.000000       -0.043185         1
        26        24        25        45     9      180.000000       -0.006038         2
        26        24        25        45     9        0.000000       -0.004683         3
        26        24        25        45     9      180.000000       -0.005183         4
        27        26        28        48     9        0.000000       -0.768782         1
        27        26        28        48     9      180.000000       11.203242         2
        27        26        28        48     9        0.000000       -0.014662         3
        27        26        28        48     9      180.000000       -1.174783         4
        28        19        20        38     9        0.000000       -0.174476         1
        28        19        20        38     9      180.000000       -0.124307         2
        28        19        20        38     9        0.000000        0.501379         3
        28        19        20        38     9      180.000000       -0.000654         4
        28        19        20        39     9        0.000000       -0.174476         1
        28        19        20        39     9      180.000000       -0.124307         2
        28        19        20        39     9        0.000000        0.501379         3
        28        19        20        39     9      180.000000       -0.000654         4
        28        19        20        40     9        0.000000       -0.174476         1
        28        19        20        40     9      180.000000       -0.124307         2
        28        19        20        40     9        0.000000        0.501379         3
        28        19        20        40     9      180.000000       -0.000654         4
        28        19        21        41     9        0.000000       -0.468423         1
        28        19        21        41     9      180.000000        0.052690         2
        28        19        21        41     9        0.000000        0.104503         3
        28        19        21        41     9      180.000000        0.067016         4
        28        19        21        42     9        0.000000       -0.468423         1
        28        19        21        42     9      180.000000        0.052690         2
        28        19        21        42     9        0.000000        0.104503         3
        28        19        21        42     9      180.000000        0.067016         4
        28        26        27        46     9        0.000000       -3.337029         1
        28        26        27        46     9      180.000000        6.634851         2
        28        26        27        46     9        0.000000       -0.259994         3
        28        26        27        46     9      180.000000       -0.636966         4
        28        26        27        47     9        0.000000       -3.337029         1
        28        26        27        47     9      180.000000        6.634851         2
        28        26        27        47     9        0.000000       -0.259994         3
        28        26        27        47     9      180.000000       -0.636966         4
        35        13        14        36     9        0.000000       -0.097816         1
        35        13        14        36     9      180.000000       11.939893         2
        35        13        14        36     9        0.000000       -0.735366         3
        35        13        14        36     9      180.000000        0.258202         4

[ dihedrals ] ; impropers
;       ai        aj        ak        al funct           phase               k        pn
         3         2         4         8     4      180.000000       20.727993         2
         3         4         8         2     4      180.000000       20.727993         2
         3         8         2         4     4      180.000000       20.727993         2
         4         3         5        32     4      180.000000        2.168601         2
         4         5        32         3     4      180.000000        2.168601         2
         4        32         3         5     4      180.000000        2.168601         2
         7         6         8        33     4      180.000000        7.323858         2
         7         8        33         6     4      180.000000        7.323858         2
         7        33         6         8     4      180.000000        7.323858         2
         9         6        10        11     4      180.000000       27.893333         2
         9        10        11         6     4      180.000000       27.893333         2
         9        11         6        10     4      180.000000       27.893333         2
        22        21        23        24     4      180.000000       23.226975         2
        22        23        24        21     4      180.000000       23.226975         2
        22        24        21        23     4      180.000000       23.226975         2
        26        24        27        28     4      180.000000       12.892487         2
        26        27        28        24     4      180.000000       12.892487         2
        26        28        24        27     4      180.000000       12.892487         2

[ pairs ]
;       ai        aj funct
         1         4     1
         1         8     1
         2         5     1
         2         7     1
         2        32     1
         3         6     1
         3        29     1
         3        30     1
         3        31     1
         3        33     1
         4         7     1
         4         9     1
         5         8     1
         5        10     1
         5        11     1
         5        33     1
         6        12     1
         6        32     1
         6        34     1
         7        10     1
         7        11     1
         8         9     1
         8        32     1
         9        13     1
         9        18     1
         9        33     1
        10        12     1
        10        34     1
        11        14     1
        11        17     1
        11        35     1
        11        37     1
        12        15     1
        12        19     1
        12        36     1
        13        16     1
        13        17     1
        13        34     1
        13        37     1
        14        18     1
        14        19     1
        15        20     1
        15        21     1
        15        28     1
        15        35     1
        15        37     1
        16        18     1
        16        19     1
        16        36     1
        17        22     1
        17        26     1
        17        36     1
        17        38     1
        17        39     1
        17        40     1
        17        41     1
        17        42     1
        17        48     1
        18        20     1
        18        21     1
        18        28     1
        18        34     1
        18        35     1
        19        23     1
        19        24     1
        19        27     1
        19        37     1
        20        22     1
        20        26     1
        20        41     1
        20        42     1
        20        48     1
        21        25     1
        21        26     1
        21        38     1
        21        39     1
        21        40     1
        21        48     1
        22        27     1
        22        28     1
        22        43     1
        22        44     1
        22        45     1
        23        25     1
        23        26     1
        23        41     1
        23        42     1
        24        41     1
        24        42     1
        24        46     1
        24        47     1
        24        48     1
        25        27     1
        25        28     1
        26        43     1
        26        44     1
        26        45     1
        27        48     1
        28        38     1
        28        39     1
        28        40     1
        28        41     1
        28        42     1
        28        46     1
        28        47     1
        35        36     1
