; ITP file created by ByteFF-ML, 2025-12-06 06:45:21.437252

[ atomtypes ]
;name           bonded.type        at.num        mass        charge   ptype           sigma         epsilon
 c0bf                                   6      0.0000       0.00000       A     3.39806e-01     4.54466e-01
 n1bf                                   7      0.0000       0.00000       A     3.17488e-01     6.93060e-01
 c2bf                                   6      0.0000       0.00000       A     3.31339e-01     4.08994e-01
 n3bf                                   7      0.0000       0.00000       A     3.36511e-01     4.76104e-01
 n4bf                                   7      0.0000       0.00000       A     3.27880e-01     6.42737e-01
 c5bf                                   6      0.0000       0.00000       A     3.39819e-01     4.49619e-01
 c6bf                                   6      0.0000       0.00000       A     3.39780e-01     4.49359e-01
 c7bf                                   6      0.0000       0.00000       A     3.39742e-01     4.47260e-01
 c8bf                                   6      0.0000       0.00000       A     3.31488e-01     4.13133e-01
 o9bf                                   8      0.0000       0.00000       A     3.04968e-01     6.14477e-01
 c10bf                                  6      0.0000       0.00000       A     3.31773e-01     4.12332e-01
 c11bf                                  6      0.0000       0.00000       A     3.31721e-01     4.13494e-01
 c12bf                                  6      0.0000       0.00000       A     3.31493e-01     4.13652e-01
 c13bf                                  6      0.0000       0.00000       A     3.31509e-01     4.12384e-01
 c14bf                                  6      0.0000       0.00000       A     3.31472e-01     4.13174e-01
 c15bf                                  6      0.0000       0.00000       A     3.31428e-01     4.11122e-01
 f16bf                                  9      0.0000       0.00000       A     3.03512e-01     3.48021e-01
 n17bf                                  7      0.0000       0.00000       A     3.27014e-01     4.86886e-01
 c18bf                                  6      0.0000       0.00000       A     3.31148e-01     4.05346e-01
 o19bf                                  8      0.0000       0.00000       A     3.04717e-01     6.06795e-01
 c20bf                                  6      0.0000       0.00000       A     3.31452e-01     4.10539e-01
 c21bf                                  6      0.0000       0.00000       A     3.31330e-01     4.13850e-01
 n22bf                                  7      0.0000       0.00000       A     3.38343e-01     3.96108e-01
 c23bf                                  6      0.0000       0.00000       A     3.31516e-01     4.11985e-01
 c24bf                                  6      0.0000       0.00000       A     3.31630e-01     4.14648e-01
 n25bf                                  7      0.0000       0.00000       A     3.38496e-01     3.92572e-01
 o26bf                                  8      0.0000       0.00000       A     3.15975e-01     3.03577e-01
 c27bf                                  6      0.0000       0.00000       A     3.39600e-01     4.53344e-01
 c28bf                                  6      0.0000       0.00000       A     3.40147e-01     4.51858e-01
 f29bf                                  9      0.0000       0.00000       A     3.03571e-01     3.48476e-01
 f30bf                                  9      0.0000       0.00000       A     3.03571e-01     3.48476e-01
 f31bf                                  9      0.0000       0.00000       A     3.03571e-01     3.48476e-01
 h32bf                                  1      0.0000       0.00000       A     2.41897e-01     8.69315e-02
 h33bf                                  1      0.0000       0.00000       A     2.41897e-01     8.69315e-02
 h34bf                                  1      0.0000       0.00000       A     2.41897e-01     8.69315e-02
 h35bf                                  1      0.0000       0.00000       A     1.10532e-01     4.19974e-02
 h36bf                                  1      0.0000       0.00000       A     1.10532e-01     4.19974e-02
 h37bf                                  1      0.0000       0.00000       A     2.59965e-01     8.80775e-02
 h38bf                                  1      0.0000       0.00000       A     2.59965e-01     8.80775e-02
 h39bf                                  1      0.0000       0.00000       A     2.59965e-01     8.80775e-02
 h40bf                                  1      0.0000       0.00000       A     2.60156e-01     8.72124e-02
 h41bf                                  1      0.0000       0.00000       A     2.60156e-01     8.72124e-02
 h42bf                                  1      0.0000       0.00000       A     2.62747e-01     6.80357e-02
 h43bf                                  1      0.0000       0.00000       A     2.62514e-01     6.73797e-02
 h44bf                                  1      0.0000       0.00000       A     2.62616e-01     6.73621e-02
 h45bf                                  1      0.0000       0.00000       A     1.10735e-01     3.92473e-02
 h46bf                                  1      0.0000       0.00000       A     2.53990e-01     6.69471e-02
 h47bf                                  1      0.0000       0.00000       A     2.53458e-01     6.72408e-02
 h48bf                                  1      0.0000       0.00000       A     2.41860e-01     8.80631e-02
 h49bf                                  1      0.0000       0.00000       A     2.41860e-01     8.80631e-02
 h50bf                                  1      0.0000       0.00000       A     1.10387e-01     4.22703e-02

[ moleculetype ]
;name             nrexcl
 17e                   3

[ atoms ]
;       nr            type      resi   res      atom      cgnr      charge          mass ; qtot
         1            c0bf         1   UNL        c0         1     0.05392       12.0110 ; qtot    0.054
         2            n1bf         1   UNL        n1         2    -0.74198       14.0070 ; qtot   -0.688
         3            c2bf         1   UNL        c2         3     0.98206       12.0110 ; qtot    0.294
         4            n3bf         1   UNL        n3         4    -0.64294       14.0070 ; qtot   -0.349
         5            n4bf         1   UNL        n4         5    -0.48739       14.0070 ; qtot   -0.836
         6            c5bf         1   UNL        c5         6     0.19513       12.0110 ; qtot   -0.641
         7            c6bf         1   UNL        c6         7    -0.11146       12.0110 ; qtot   -0.753
         8            c7bf         1   UNL        c7         8    -0.17299       12.0110 ; qtot   -0.926
         9            c8bf         1   UNL        c8         9     0.56299       12.0110 ; qtot   -0.363
        10            o9bf         1   UNL        o9        10    -0.40580       15.9990 ; qtot   -0.768
        11           c10bf         1   UNL       c10        11    -0.14053       12.0110 ; qtot   -0.909
        12           c11bf         1   UNL       c11        12    -0.09160       12.0110 ; qtot   -1.001
        13           c12bf         1   UNL       c12        13    -0.01560       12.0110 ; qtot   -1.016
        14           c13bf         1   UNL       c13        14    -0.12355       12.0110 ; qtot   -1.140
        15           c14bf         1   UNL       c14        15    -0.09680       12.0110 ; qtot   -1.237
        16           c15bf         1   UNL       c15        16     0.15629       12.0110 ; qtot   -1.080
        17           f16bf         1   UNL       f16        17    -0.18071       18.9980 ; qtot   -1.261
        18           n17bf         1   UNL       n17        18    -0.13088       14.0070 ; qtot   -1.392
        19           c18bf         1   UNL       c18        19     0.52266       12.0110 ; qtot   -0.869
        20           o19bf         1   UNL       o19        20    -0.57505       15.9990 ; qtot   -1.444
        21           c20bf         1   UNL       c20        21     0.18226       12.0110 ; qtot   -1.262
        22           c21bf         1   UNL       c21        22     0.39640       12.0110 ; qtot   -0.866
        23           n22bf         1   UNL       n22        23    -0.71669       14.0070 ; qtot   -1.582
        24           c23bf         1   UNL       c23        24     0.55607       12.0110 ; qtot   -1.026
        25           c24bf         1   UNL       c24        25     0.26634       12.0110 ; qtot   -0.760
        26           n25bf         1   UNL       n25        26    -0.59739       14.0070 ; qtot   -1.357
        27           o26bf         1   UNL       o26        27    -0.43490       15.9990 ; qtot   -1.792
        28           c27bf         1   UNL       c27        28     0.10130       12.0110 ; qtot   -1.691
        29           c28bf         1   UNL       c28        29     0.27282       12.0110 ; qtot   -1.418
        30           f29bf         1   UNL       f29        30    -0.09827       18.9980 ; qtot   -1.516
        31           f30bf         1   UNL       f30        31    -0.09827       18.9980 ; qtot   -1.615
        32           f31bf         1   UNL       f31        32    -0.09827       18.9980 ; qtot   -1.713
        33           h32bf         1   UNL       h32        33     0.08743        1.0080 ; qtot   -1.625
        34           h33bf         1   UNL       h33        34     0.08743        1.0080 ; qtot   -1.538
        35           h34bf         1   UNL       h34        35     0.08743        1.0080 ; qtot   -1.451
        36           h35bf         1   UNL       h35        36     0.38091        1.0080 ; qtot   -1.070
        37           h36bf         1   UNL       h36        37     0.38091        1.0080 ; qtot   -0.689
        38           h37bf         1   UNL       h37        38     0.06599        1.0080 ; qtot   -0.623
        39           h38bf         1   UNL       h38        39     0.06599        1.0080 ; qtot   -0.557
        40           h39bf         1   UNL       h39        40     0.06599        1.0080 ; qtot   -0.491
        41           h40bf         1   UNL       h40        41     0.10671        1.0080 ; qtot   -0.384
        42           h41bf         1   UNL       h41        42     0.10671        1.0080 ; qtot   -0.277
        43           h42bf         1   UNL       h42        43     0.14505        1.0080 ; qtot   -0.132
        44           h43bf         1   UNL       h43        44     0.13815        1.0080 ; qtot    0.006
        45           h44bf         1   UNL       h44        45     0.14099        1.0080 ; qtot    0.147
        46           h45bf         1   UNL       h45        46     0.18205        1.0080 ; qtot    0.329
        47           h46bf         1   UNL       h46        47     0.05518        1.0080 ; qtot    0.384
        48           h47bf         1   UNL       h47        48     0.05009        1.0080 ; qtot    0.434
        49           h48bf         1   UNL       h48        49     0.09224        1.0080 ; qtot    0.526
        50           h49bf         1   UNL       h49        50     0.09224        1.0080 ; qtot    0.619
        51           h50bf         1   UNL       h50        51     0.38134        1.0080 ; qtot    1.000

[ bonds ]
;       ai        aj funct               r               k
         1         2     1        0.147696   175044.486499
         1        33     1        0.108963   312518.496777
         1        34     1        0.108963   312518.496777
         1        35     1        0.108963   312518.496777
         2         3     1        0.135713   303098.495557
         2         9     1        0.143868   140884.248633
         3         4     1        0.134206   388900.016455
         3         5     1        0.132907   389370.282324
         4        36     1        0.101314   426532.573389
         4        37     1        0.101314   426532.573389
         5         6     1        0.149597   141757.068726
         5        51     1        0.101465   415734.998340
         6         7     1        0.153665   173225.810181
         6         8     1        0.153567   173208.074658
         6        11     1        0.152812   166468.256909
         7        38     1        0.109224   306904.801709
         7        39     1        0.109224   306904.801709
         7        40     1        0.109224   306904.801709
         8         9     1        0.150975   184500.226904
         8        41     1        0.109235   306950.691895
         8        42     1        0.109235   306950.691895
         9        10     1        0.120853   693911.394727
        11        12     1        0.140096   296162.565576
        11        16     1        0.139894   278911.099023
        12        13     1        0.140456   283684.623193
        12        43     1        0.108237   327055.751660
        13        14     1        0.140444   285309.243018
        13        18     1        0.140714   250002.171875
        14        15     1        0.139425   325766.204248
        14        44     1        0.108347   327064.817334
        15        16     1        0.138798   314310.512354
        15        45     1        0.108490   324352.010205
        16        17     1        0.136530   271856.268262
        18        19     1        0.136552   288468.515430
        18        46     1        0.101674   403685.313281
        19        20     1        0.123138   599485.379102
        19        21     1        0.150636   172131.085376
        21        22     1        0.139738   275366.446094
        21        26     1        0.134577   291942.992383
        22        23     1        0.134104   333491.818262
        22        47     1        0.108576   323728.062012
        23        24     1        0.132907   308219.784082
        24        25     1        0.141357   242602.590137
        24        27     1        0.135697   273422.305957
        25        26     1        0.132499   360539.039062
        25        48     1        0.108600   321907.930078
        27        28     1        0.142398   199130.998682
        28        29     1        0.152358   198531.859790
        28        49     1        0.109140   309198.417187
        28        50     1        0.109140   309198.417187
        29        30     1        0.135220   238241.464746
        29        31     1        0.135220   238241.464746
        29        32     1        0.135220   238241.490283

[ angles ]
;       ai        aj        ak funct           theta             cth
         1         2         3     1      120.348282      490.741619
         1         2         9     1      117.459496      580.627679
         2         1        33     1      109.269554      472.759249
         2         1        34     1      109.269554      472.759249
         2         1        35     1      109.269554      472.759249
         2         3         4     1      119.756981      585.233616
         2         3         5     1      120.408371      674.619947
         2         9         8     1      115.390335      572.197241
         2         9        10     1      119.763596      657.290848
         3         2         9     1      121.459251      729.251868
         3         4        36     1      121.193443      447.355603
         3         4        37     1      121.193443      447.355603
         3         5         6     1      124.150955      563.036505
         3         5        51     1      117.963646      468.739676
         4         3         5     1      120.045181      584.318047
         5         6         7     1      107.994339      619.444788
         5         6         8     1      106.247513      594.016275
         5         6        11     1      108.144691      616.878181
         6         5        51     1      115.930809      393.822735
         6         7        38     1      110.547928      483.347764
         6         7        39     1      110.547928      483.347764
         6         7        40     1      110.547928      483.347764
         6         8         9     1      112.962242      858.197672
         6         8        41     1      110.220703      459.940960
         6         8        42     1      110.220703      459.940960
         6        11        12     1      121.224815      438.628966
         6        11        16     1      121.347679      572.506943
         7         6         8     1      111.052078      578.840337
         7         6        11     1      112.150978      637.670878
         8         6        11     1      112.415359      569.859830
         8         9        10     1      124.425797      503.203952
         9         8        41     1      107.516373      561.619515
         9         8        42     1      107.516373      561.619515
        11        12        13     1      121.567215      694.507227
        11        12        43     1      119.730515      394.673057
        11        16        15     1      122.595802      574.355574
        11        16        17     1      119.443459      475.848377
        12        11        16     1      116.942322      634.608660
        12        13        14     1      119.198586      568.248438
        12        13        18     1      119.792679      492.755476
        13        12        43     1      118.759315      439.299921
        13        14        15     1      119.653320      723.681650
        13        14        44     1      120.063293      447.376096
        13        18        19     1      129.149261      471.305134
        13        18        46     1      117.136841      396.253389
        14        13        18     1      120.512413      594.242279
        14        15        16     1      119.369705      688.999766
        14        15        45     1      121.054733      427.595115
        15        14        44     1      120.214211      388.138717
        15        16        17     1      117.918320      539.378672
        16        15        45     1      119.387718      441.378291
        18        19        20     1      126.175682      588.225736
        18        19        21     1      112.910446      483.463032
        19        18        46     1      113.902466      463.826623
        19        21        22     1      120.185524      556.533927
        19        21        26     1      118.528160      492.369578
        20        19        21     1      121.038818      683.784067
        21        22        23     1      122.028564      662.836423
        21        22        47     1      120.284828      371.133205
        21        26        25     1      117.592323      739.894459
        22        21        26     1      120.819031      564.260627
        22        23        24     1      116.457870      910.071457
        23        22        47     1      117.149452      373.310722
        23        24        25     1      122.026184      580.588863
        23        24        27     1      119.689011      627.066402
        24        25        26     1      120.835876      764.180186
        24        25        48     1      120.677170      405.171586
        24        27        28     1      117.433838      539.805078
        25        24        27     1      118.125900      550.473908
        26        25        48     1      118.297363      383.922955
        27        28        29     1      108.920326      528.976769
        27        28        49     1      110.153969      456.857099
        27        28        50     1      110.153969      456.857099
        28        29        30     1      111.178238      539.054861
        28        29        31     1      111.178238      539.054861
        28        29        32     1      111.178238      539.054861
        29        28        49     1      108.466049      500.091489
        29        28        50     1      108.466049      500.091489
        30        29        31     1      107.584755      715.218461
        30        29        32     1      107.584755      715.218461
        31        29        32     1      107.584755      715.218461
        33         1        34     1      109.723488      346.581892
        33         1        35     1      109.723488      346.581892
        34         1        35     1      109.723488      346.581892
        36         4        37     1      116.920242      317.248244
        38         7        39     1      108.453712      358.661455
        38         7        40     1      108.453712      358.661487
        39         7        40     1      108.453712      358.661487
        41         8        42     1      107.501564      353.259526
        49        28        50     1      109.812119      337.888964

[ dihedrals ] ; propers for gromacs 4.5 or higher, use funct 9
;       ai        aj        ak        al funct           phase               k        pn
         1         2         3         4     9        0.000000       -0.597900         1
         1         2         3         4     9      180.000000       13.268816         2
         1         2         3         4     9        0.000000       -1.132363         3
         1         2         3         4     9      180.000000       -0.736178         4
         1         2         3         5     9        0.000000       -1.365400         1
         1         2         3         5     9      180.000000       10.441500         2
         1         2         3         5     9        0.000000       -0.939980         3
         1         2         3         5     9      180.000000       -0.119938         4
         1         2         9         8     9        0.000000       -0.718791         1
         1         2         9         8     9      180.000000        8.647623         2
         1         2         9         8     9        0.000000       -0.138830         3
         1         2         9         8     9      180.000000       -0.075158         4
         1         2         9        10     9        0.000000       -0.892079         1
         1         2         9        10     9      180.000000       11.074073         2
         1         2         9        10     9        0.000000       -1.195750         3
         1         2         9        10     9      180.000000        0.340279         4
         2         3         4        36     9        0.000000       -0.105422         1
         2         3         4        36     9      180.000000        6.030111         2
         2         3         4        36     9        0.000000        0.167348         3
         2         3         4        36     9      180.000000       -0.592536         4
         2         3         4        37     9        0.000000       -0.105422         1
         2         3         4        37     9      180.000000        6.030111         2
         2         3         4        37     9        0.000000        0.167348         3
         2         3         4        37     9      180.000000       -0.592536         4
         2         3         5         6     9        0.000000        4.222563         1
         2         3         5         6     9      180.000000        8.750601         2
         2         3         5         6     9        0.000000        0.189490         3
         2         3         5         6     9      180.000000       -0.371883         4
         2         3         5        51     9        0.000000        0.655962         1
         2         3         5        51     9      180.000000        9.003274         2
         2         3         5        51     9        0.000000       -0.132610         3
         2         3         5        51     9      180.000000       -0.471552         4
         2         9         8         6     9        0.000000        1.623944         1
         2         9         8         6     9      180.000000        0.402903         2
         2         9         8         6     9        0.000000       -0.788274         3
         2         9         8         6     9      180.000000        0.567613         4
         2         9         8        41     9        0.000000       -0.308409         1
         2         9         8        41     9      180.000000        0.103869         2
         2         9         8        41     9        0.000000       -0.315280         3
         2         9         8        41     9      180.000000        0.040183         4
         2         9         8        42     9        0.000000       -0.308409         1
         2         9         8        42     9      180.000000        0.103869         2
         2         9         8        42     9        0.000000       -0.315280         3
         2         9         8        42     9      180.000000        0.040183         4
         3         2         1        33     9        0.000000       -0.043187         1
         3         2         1        33     9      180.000000       -0.006039         2
         3         2         1        33     9        0.000000       -0.004683         3
         3         2         1        33     9      180.000000       -0.005183         4
         3         2         1        34     9        0.000000       -0.043187         1
         3         2         1        34     9      180.000000       -0.006039         2
         3         2         1        34     9        0.000000       -0.004683         3
         3         2         1        34     9      180.000000       -0.005183         4
         3         2         1        35     9        0.000000       -0.043187         1
         3         2         1        35     9      180.000000       -0.006039         2
         3         2         1        35     9        0.000000       -0.004683         3
         3         2         1        35     9      180.000000       -0.005183         4
         3         2         9         8     9        0.000000        0.214319         1
         3         2         9         8     9      180.000000        1.458510         2
         3         2         9         8     9        0.000000       -0.011229         3
         3         2         9         8     9      180.000000        0.498030         4
         3         2         9        10     9        0.000000        4.378008         1
         3         2         9        10     9      180.000000        8.435320         2
         3         2         9        10     9        0.000000       -0.775495         3
         3         2         9        10     9      180.000000       -0.116887         4
         3         5         6         7     9        0.000000       -1.367713         1
         3         5         6         7     9      180.000000        0.737240         2
         3         5         6         7     9        0.000000        0.156478         3
         3         5         6         7     9      180.000000       -0.062075         4
         3         5         6         8     9        0.000000        1.318741         1
         3         5         6         8     9      180.000000       -1.551335         2
         3         5         6         8     9        0.000000       -0.031508         3
         3         5         6         8     9      180.000000        0.400981         4
         3         5         6        11     9        0.000000       -1.495914         1
         3         5         6        11     9      180.000000       -1.009502         2
         3         5         6        11     9        0.000000        0.315799         3
         3         5         6        11     9      180.000000       -0.149506         4
         4         3         2         9     9        0.000000        2.476372         1
         4         3         2         9     9      180.000000        9.542964         2
         4         3         2         9     9        0.000000       -0.747468         3
         4         3         2         9     9      180.000000       -0.726154         4
         4         3         5         6     9        0.000000        2.951567         1
         4         3         5         6     9      180.000000       12.517308         2
         4         3         5         6     9        0.000000       -0.263636         3
         4         3         5         6     9      180.000000       -1.310143         4
         4         3         5        51     9        0.000000       -0.768785         1
         4         3         5        51     9      180.000000       11.203243         2
         4         3         5        51     9        0.000000       -0.014662         3
         4         3         5        51     9      180.000000       -1.174783         4
         5         3         2         9     9        0.000000        5.406484         1
         5         3         2         9     9      180.000000        4.726423         2
         5         3         2         9     9        0.000000       -0.579634         3
         5         3         2         9     9      180.000000        0.189765         4
         5         3         4        36     9        0.000000       -3.337029         1
         5         3         4        36     9      180.000000        6.634849         2
         5         3         4        36     9        0.000000       -0.259993         3
         5         3         4        36     9      180.000000       -0.636966         4
         5         3         4        37     9        0.000000       -3.337029         1
         5         3         4        37     9      180.000000        6.634849         2
         5         3         4        37     9        0.000000       -0.259993         3
         5         3         4        37     9      180.000000       -0.636966         4
         5         6         7        38     9        0.000000       -0.174476         1
         5         6         7        38     9      180.000000       -0.124307         2
         5         6         7        38     9        0.000000        0.501379         3
         5         6         7        38     9      180.000000       -0.000654         4
         5         6         7        39     9        0.000000       -0.174476         1
         5         6         7        39     9      180.000000       -0.124307         2
         5         6         7        39     9        0.000000        0.501379         3
         5         6         7        39     9      180.000000       -0.000654         4
         5         6         7        40     9        0.000000       -0.174476         1
         5         6         7        40     9      180.000000       -0.124307         2
         5         6         7        40     9        0.000000        0.501379         3
         5         6         7        40     9      180.000000       -0.000654         4
         5         6         8         9     9        0.000000       12.142131         1
         5         6         8         9     9      180.000000       -5.361812         2
         5         6         8         9     9        0.000000       -1.789326         3
         5         6         8         9     9      180.000000        1.494455         4
         5         6         8        41     9        0.000000       -0.468423         1
         5         6         8        41     9      180.000000        0.052690         2
         5         6         8        41     9        0.000000        0.104503         3
         5         6         8        41     9      180.000000        0.067016         4
         5         6         8        42     9        0.000000       -0.468423         1
         5         6         8        42     9      180.000000        0.052690         2
         5         6         8        42     9        0.000000        0.104503         3
         5         6         8        42     9      180.000000        0.067016         4
         5         6        11        12     9        0.000000        0.007093         1
         5         6        11        12     9      180.000000        0.674770         2
         5         6        11        12     9        0.000000       -0.370788         3
         5         6        11        12     9      180.000000        0.208763         4
         5         6        11        16     9        0.000000        1.147518         1
         5         6        11        16     9      180.000000       -1.013075         2
         5         6        11        16     9        0.000000        0.245266         3
         5         6        11        16     9      180.000000        0.285130         4
         6         8         9        10     9        0.000000        0.939507         1
         6         8         9        10     9      180.000000        0.137828         2
         6         8         9        10     9        0.000000       -0.656965         3
         6         8         9        10     9      180.000000        0.193307         4
         6        11        12        13     9        0.000000        0.449831         1
         6        11        12        13     9      180.000000       15.362193         2
         6        11        12        13     9        0.000000        0.018152         3
         6        11        12        13     9      180.000000       -0.328546         4
         6        11        12        43     9        0.000000        0.036453         1
         6        11        12        43     9      180.000000       13.316310         2
         6        11        12        43     9        0.000000       -0.196418         3
         6        11        12        43     9      180.000000        0.052473         4
         6        11        16        15     9        0.000000        0.023727         1
         6        11        16        15     9      180.000000       12.550530         2
         6        11        16        15     9        0.000000       -0.139606         3
         6        11        16        15     9      180.000000       -0.177480         4
         6        11        16        17     9        0.000000        0.573606         1
         6        11        16        17     9      180.000000       17.105297         2
         6        11        16        17     9        0.000000        0.623469         3
         6        11        16        17     9      180.000000       -0.487029         4
         7         6         5        51     9        0.000000       -0.715274         1
         7         6         5        51     9      180.000000        0.566346         2
         7         6         5        51     9        0.000000       -0.071706         3
         7         6         5        51     9      180.000000       -0.078810         4
         7         6         8         9     9        0.000000       -1.119996         1
         7         6         8         9     9      180.000000        0.623613         2
         7         6         8         9     9        0.000000        0.163513         3
         7         6         8         9     9      180.000000       -0.093574         4
         7         6         8        41     9        0.000000       -0.087307         1
         7         6         8        41     9      180.000000       -0.024331         2
         7         6         8        41     9        0.000000        0.270822         3
         7         6         8        41     9      180.000000        0.017467         4
         7         6         8        42     9        0.000000       -0.087307         1
         7         6         8        42     9      180.000000       -0.024331         2
         7         6         8        42     9        0.000000        0.270822         3
         7         6         8        42     9      180.000000        0.017467         4
         7         6        11        12     9        0.000000       -0.581559         1
         7         6        11        12     9      180.000000        0.907605         2
         7         6        11        12     9        0.000000       -0.347961         3
         7         6        11        12     9      180.000000        0.217001         4
         7         6        11        16     9        0.000000        0.050324         1
         7         6        11        16     9      180.000000        0.683086         2
         7         6        11        16     9        0.000000        0.270333         3
         7         6        11        16     9      180.000000        0.129840         4
         8         6         5        51     9        0.000000       -1.240825         1
         8         6         5        51     9      180.000000       -0.902120         2
         8         6         5        51     9        0.000000       -0.043946         3
         8         6         5        51     9      180.000000        0.166287         4
         8         6         7        38     9        0.000000       -0.017362         1
         8         6         7        38     9      180.000000       -0.049527         2
         8         6         7        38     9        0.000000        0.402468         3
         8         6         7        38     9      180.000000        0.035149         4
         8         6         7        39     9        0.000000       -0.017362         1
         8         6         7        39     9      180.000000       -0.049527         2
         8         6         7        39     9        0.000000        0.402468         3
         8         6         7        39     9      180.000000        0.035149         4
         8         6         7        40     9        0.000000       -0.017362         1
         8         6         7        40     9      180.000000       -0.049527         2
         8         6         7        40     9        0.000000        0.402468         3
         8         6         7        40     9      180.000000        0.035149         4
         8         6        11        12     9        0.000000       -0.362607         1
         8         6        11        12     9      180.000000        0.362235         2
         8         6        11        12     9        0.000000       -0.367988         3
         8         6        11        12     9      180.000000        0.227409         4
         8         6        11        16     9        0.000000       -1.151623         1
         8         6        11        16     9      180.000000        0.074564         2
         8         6        11        16     9        0.000000        0.240904         3
         8         6        11        16     9      180.000000        0.139898         4
         9         2         1        33     9        0.000000       -0.069014         1
         9         2         1        33     9      180.000000       -0.038564         2
         9         2         1        33     9        0.000000       -0.189883         3
         9         2         1        33     9      180.000000        0.040032         4
         9         2         1        34     9        0.000000       -0.069014         1
         9         2         1        34     9      180.000000       -0.038564         2
         9         2         1        34     9        0.000000       -0.189883         3
         9         2         1        34     9      180.000000        0.040032         4
         9         2         1        35     9        0.000000       -0.069014         1
         9         2         1        35     9      180.000000       -0.038564         2
         9         2         1        35     9        0.000000       -0.189883         3
         9         2         1        35     9      180.000000        0.040032         4
         9         8         6        11     9        0.000000       -0.292597         1
         9         8         6        11     9      180.000000       -0.047787         2
         9         8         6        11     9        0.000000        0.018665         3
         9         8         6        11     9      180.000000        0.033764         4
        10         9         8        41     9        0.000000       -0.044386         1
        10         9         8        41     9      180.000000        0.208352         2
        10         9         8        41     9        0.000000       -0.553062         3
        10         9         8        41     9      180.000000        0.035849         4
        10         9         8        42     9        0.000000       -0.044386         1
        10         9         8        42     9      180.000000        0.208352         2
        10         9         8        42     9        0.000000       -0.553062         3
        10         9         8        42     9      180.000000        0.035849         4
        11         6         5        51     9        0.000000        0.930451         1
        11         6         5        51     9      180.000000       -1.070789         2
        11         6         5        51     9        0.000000       -0.245671         3
        11         6         5        51     9      180.000000       -0.136747         4
        11         6         7        38     9        0.000000       -0.057720         1
        11         6         7        38     9      180.000000        0.029406         2
        11         6         7        38     9        0.000000        0.573941         3
        11         6         7        38     9      180.000000        0.018894         4
        11         6         7        39     9        0.000000       -0.057720         1
        11         6         7        39     9      180.000000        0.029406         2
        11         6         7        39     9        0.000000        0.573941         3
        11         6         7        39     9      180.000000        0.018894         4
        11         6         7        40     9        0.000000       -0.057721         1
        11         6         7        40     9      180.000000        0.029405         2
        11         6         7        40     9        0.000000        0.573941         3
        11         6         7        40     9      180.000000        0.018894         4
        11         6         8        41     9        0.000000       -0.050642         1
        11         6         8        41     9      180.000000        0.004826         2
        11         6         8        41     9        0.000000        0.330829         3
        11         6         8        41     9      180.000000       -0.010929         4
        11         6         8        42     9        0.000000       -0.050642         1
        11         6         8        42     9      180.000000        0.004826         2
        11         6         8        42     9        0.000000        0.330829         3
        11         6         8        42     9      180.000000       -0.010929         4
        11        12        13        14     9        0.000000        0.135011         1
        11        12        13        14     9      180.000000       16.298134         2
        11        12        13        14     9        0.000000       -1.261244         3
        11        12        13        14     9      180.000000       -0.311375         4
        11        12        13        18     9        0.000000        0.153484         1
        11        12        13        18     9      180.000000       17.388615         2
        11        12        13        18     9        0.000000       -0.174926         3
        11        12        13        18     9      180.000000       -0.356562         4
        11        16        15        14     9        0.000000       -0.080024         1
        11        16        15        14     9      180.000000       16.953732         2
        11        16        15        14     9        0.000000       -1.323432         3
        11        16        15        14     9      180.000000       -0.328901         4
        11        16        15        45     9        0.000000       -0.059143         1
        11        16        15        45     9      180.000000       12.772128         2
        11        16        15        45     9        0.000000       -0.499396         3
        11        16        15        45     9      180.000000        0.127549         4
        12        11        16        15     9        0.000000       -0.173736         1
        12        11        16        15     9      180.000000       16.914658         2
        12        11        16        15     9        0.000000       -1.161207         3
        12        11        16        15     9      180.000000       -0.276189         4
        12        11        16        17     9        0.000000        0.384428         1
        12        11        16        17     9      180.000000       22.976124         2
        12        11        16        17     9        0.000000        0.257360         3
        12        11        16        17     9      180.000000       -0.699186         4
        12        13        14        15     9        0.000000        0.064485         1
        12        13        14        15     9      180.000000       16.735763         2
        12        13        14        15     9        0.000000       -1.016786         3
        12        13        14        15     9      180.000000       -0.170392         4
        12        13        14        44     9        0.000000        0.074224         1
        12        13        14        44     9      180.000000       13.213976         2
        12        13        14        44     9        0.000000       -0.391585         3
        12        13        14        44     9      180.000000        0.103785         4
        12        13        18        19     9        0.000000        0.047906         1
        12        13        18        19     9      180.000000        2.576025         2
        12        13        18        19     9        0.000000        0.059111         3
        12        13        18        19     9      180.000000        0.042700         4
        12        13        18        46     9        0.000000        0.358484         1
        12        13        18        46     9      180.000000        2.809827         2
        12        13        18        46     9        0.000000        0.130545         3
        12        13        18        46     9      180.000000        0.315286         4
        13        12        11        16     9        0.000000       -0.218846         1
        13        12        11        16     9      180.000000       18.323536         2
        13        12        11        16     9        0.000000       -1.882635         3
        13        12        11        16     9      180.000000       -0.340787         4
        13        14        15        16     9        0.000000       -0.034299         1
        13        14        15        16     9      180.000000       18.471294         2
        13        14        15        16     9        0.000000       -1.777578         3
        13        14        15        16     9      180.000000       -0.370269         4
        13        14        15        45     9        0.000000        0.114541         1
        13        14        15        45     9      180.000000       14.127530         2
        13        14        15        45     9        0.000000       -0.492522         3
        13        14        15        45     9      180.000000        0.094779         4
        13        18        19        20     9        0.000000       -0.958377         1
        13        18        19        20     9      180.000000       10.970497         2
        13        18        19        20     9        0.000000        0.350209         3
        13        18        19        20     9      180.000000       -0.845690         4
        13        18        19        21     9        0.000000        2.428504         1
        13        18        19        21     9      180.000000        8.511330         2
        13        18        19        21     9        0.000000        0.448090         3
        13        18        19        21     9      180.000000       -0.751352         4
        14        13        12        43     9        0.000000        0.115535         1
        14        13        12        43     9      180.000000       12.513166         2
        14        13        12        43     9        0.000000       -0.593681         3
        14        13        12        43     9      180.000000        0.136256         4
        14        13        18        19     9        0.000000        0.172086         1
        14        13        18        19     9      180.000000        2.538578         2
        14        13        18        19     9        0.000000        0.101426         3
        14        13        18        19     9      180.000000        0.054833         4
        14        13        18        46     9        0.000000        0.034552         1
        14        13        18        46     9      180.000000        2.596571         2
        14        13        18        46     9        0.000000        0.119423         3
        14        13        18        46     9      180.000000        0.331364         4
        14        15        16        17     9        0.000000        0.442217         1
        14        15        16        17     9      180.000000       23.154583         2
        14        15        16        17     9        0.000000        0.511221         3
        14        15        16        17     9      180.000000       -0.509391         4
        15        14        13        18     9        0.000000        0.256610         1
        15        14        13        18     9      180.000000       18.255596         2
        15        14        13        18     9        0.000000        0.054571         3
        15        14        13        18     9      180.000000       -0.303507         4
        16        11        12        43     9        0.000000        0.105588         1
        16        11        12        43     9      180.000000       14.428505         2
        16        11        12        43     9        0.000000       -0.521458         3
        16        11        12        43     9      180.000000        0.130729         4
        16        15        14        44     9        0.000000        0.210606         1
        16        15        14        44     9      180.000000       14.804357         2
        16        15        14        44     9        0.000000       -0.476365         3
        16        15        14        44     9      180.000000        0.141663         4
        17        16        15        45     9        0.000000        0.048292         1
        17        16        15        45     9      180.000000       16.567412         2
        17        16        15        45     9        0.000000        0.241253         3
        17        16        15        45     9      180.000000        0.180196         4
        18        13        12        43     9        0.000000       -0.097151         1
        18        13        12        43     9      180.000000       14.089013         2
        18        13        12        43     9        0.000000       -0.202977         3
        18        13        12        43     9      180.000000        0.251003         4
        18        13        14        44     9        0.000000        0.007064         1
        18        13        14        44     9      180.000000       14.086000         2
        18        13        14        44     9        0.000000       -0.138723         3
        18        13        14        44     9      180.000000        0.220679         4
        18        19        21        22     9        0.000000       -0.400893         1
        18        19        21        22     9      180.000000        3.553927         2
        18        19        21        22     9        0.000000       -0.256306         3
        18        19        21        22     9      180.000000       -0.047325         4
        18        19        21        26     9        0.000000        1.593200         1
        18        19        21        26     9      180.000000        3.802579         2
        18        19        21        26     9        0.000000        0.517314         3
        18        19        21        26     9      180.000000       -0.201175         4
        19        21        22        23     9        0.000000       -0.160520         1
        19        21        22        23     9      180.000000       12.886722         2
        19        21        22        23     9        0.000000        0.109801         3
        19        21        22        23     9      180.000000       -0.613506         4
        19        21        22        47     9        0.000000        0.171151         1
        19        21        22        47     9      180.000000       11.100508         2
        19        21        22        47     9        0.000000       -0.370177         3
        19        21        22        47     9      180.000000        0.036745         4
        19        21        26        25     9        0.000000        0.634218         1
        19        21        26        25     9      180.000000       20.017523         2
        19        21        26        25     9        0.000000        0.872430         3
        19        21        26        25     9      180.000000       -0.865466         4
        20        19        18        46     9        0.000000       -0.172960         1
        20        19        18        46     9      180.000000       11.055030         2
        20        19        18        46     9        0.000000        0.302246         3
        20        19        18        46     9      180.000000        0.824520         4
        20        19        21        22     9        0.000000        1.442797         1
        20        19        21        22     9      180.000000        4.344900         2
        20        19        21        22     9        0.000000       -0.634888         3
        20        19        21        22     9      180.000000        0.322917         4
        20        19        21        26     9        0.000000       -4.067854         1
        20        19        21        26     9      180.000000        4.651406         2
        20        19        21        26     9        0.000000        0.557911         3
        20        19        21        26     9      180.000000        0.106112         4
        21        19        18        46     9        0.000000        0.685996         1
        21        19        18        46     9      180.000000        7.653139         2
        21        19        18        46     9        0.000000       -0.023114         3
        21        19        18        46     9      180.000000        0.353790         4
        21        22        23        24     9        0.000000       -0.002350         1
        21        22        23        24     9      180.000000       21.900326         2
        21        22        23        24     9        0.000000       -0.980403         3
        21        22        23        24     9      180.000000       -0.469596         4
        21        26        25        24     9        0.000000       -0.245457         1
        21        26        25        24     9      180.000000       24.527961         2
        21        26        25        24     9        0.000000       -0.709021         3
        21        26        25        24     9      180.000000       -0.472767         4
        21        26        25        48     9        0.000000        0.640965         1
        21        26        25        48     9      180.000000       21.460712         2
        21        26        25        48     9        0.000000        0.188942         3
        21        26        25        48     9      180.000000       -0.515199         4
        22        21        26        25     9        0.000000       -0.658664         1
        22        21        26        25     9      180.000000       20.704285         2
        22        21        26        25     9        0.000000       -0.675973         3
        22        21        26        25     9      180.000000       -0.107470         4
        22        23        24        25     9        0.000000        0.183099         1
        22        23        24        25     9      180.000000       18.275864         2
        22        23        24        25     9        0.000000        0.321420         3
        22        23        24        25     9      180.000000       -0.252162         4
        22        23        24        27     9        0.000000        1.327929         1
        22        23        24        27     9      180.000000       26.268043         2
        22        23        24        27     9        0.000000        1.133466         3
        22        23        24        27     9      180.000000       -0.901393         4
        23        22        21        26     9        0.000000       -0.349408         1
        23        22        21        26     9      180.000000       16.303013         2
        23        22        21        26     9        0.000000       -0.059212         3
        23        22        21        26     9      180.000000       -0.699415         4
        23        24        25        26     9        0.000000       -1.589599         1
        23        24        25        26     9      180.000000        9.619143         2
        23        24        25        26     9        0.000000        0.076803         3
        23        24        25        26     9      180.000000       -0.709629         4
        23        24        25        48     9        0.000000       -0.334739         1
        23        24        25        48     9      180.000000        8.237160         2
        23        24        25        48     9        0.000000       -0.248389         3
        23        24        25        48     9      180.000000       -0.159459         4
        23        24        27        28     9        0.000000        1.518497         1
        23        24        27        28     9      180.000000        7.577770         2
        23        24        27        28     9        0.000000        0.391304         3
        23        24        27        28     9      180.000000       -0.003202         4
        24        23        22        47     9        0.000000        0.853299         1
        24        23        22        47     9      180.000000       18.237921         2
        24        23        22        47     9        0.000000        0.324192         3
        24        23        22        47     9      180.000000       -0.237028         4
        24        27        28        29     9        0.000000        2.448775         1
        24        27        28        29     9      180.000000       -1.713556         2
        24        27        28        29     9        0.000000       -0.073004         3
        24        27        28        29     9      180.000000        0.074686         4
        24        27        28        49     9        0.000000        0.284256         1
        24        27        28        49     9      180.000000        0.044093         2
        24        27        28        49     9        0.000000        0.129768         3
        24        27        28        49     9      180.000000        0.004835         4
        24        27        28        50     9        0.000000        0.284256         1
        24        27        28        50     9      180.000000        0.044093         2
        24        27        28        50     9        0.000000        0.129768         3
        24        27        28        50     9      180.000000        0.004835         4
        25        24        27        28     9        0.000000        0.816999         1
        25        24        27        28     9      180.000000        6.669642         2
        25        24        27        28     9        0.000000        0.204393         3
        25        24        27        28     9      180.000000        0.143064         4
        26        21        22        47     9        0.000000        0.137931         1
        26        21        22        47     9      180.000000       12.095593         2
        26        21        22        47     9        0.000000       -0.103620         3
        26        21        22        47     9      180.000000       -0.287737         4
        26        25        24        27     9        0.000000       -0.384276         1
        26        25        24        27     9      180.000000       12.585604         2
        26        25        24        27     9        0.000000        0.428384         3
        26        25        24        27     9      180.000000       -0.747453         4
        27        24        25        48     9        0.000000        0.022941         1
        27        24        25        48     9      180.000000       10.710063         2
        27        24        25        48     9        0.000000       -0.043625         3
        27        24        25        48     9      180.000000       -0.047011         4
        27        28        29        30     9        0.000000        0.137832         1
        27        28        29        30     9      180.000000        0.127823         2
        27        28        29        30     9        0.000000        0.472670         3
        27        28        29        30     9      180.000000       -0.016748         4
        27        28        29        31     9        0.000000        0.137832         1
        27        28        29        31     9      180.000000        0.127823         2
        27        28        29        31     9        0.000000        0.472670         3
        27        28        29        31     9      180.000000       -0.016748         4
        27        28        29        32     9        0.000000        0.137832         1
        27        28        29        32     9      180.000000        0.127823         2
        27        28        29        32     9        0.000000        0.472670         3
        27        28        29        32     9      180.000000       -0.016748         4
        30        29        28        49     9        0.000000       -0.015104         1
        30        29        28        49     9      180.000000       -0.019407         2
        30        29        28        49     9        0.000000        0.491643         3
        30        29        28        49     9      180.000000       -0.015886         4
        30        29        28        50     9        0.000000       -0.015104         1
        30        29        28        50     9      180.000000       -0.019407         2
        30        29        28        50     9        0.000000        0.491643         3
        30        29        28        50     9      180.000000       -0.015886         4
        31        29        28        49     9        0.000000       -0.015104         1
        31        29        28        49     9      180.000000       -0.019407         2
        31        29        28        49     9        0.000000        0.491643         3
        31        29        28        49     9      180.000000       -0.015886         4
        31        29        28        50     9        0.000000       -0.015104         1
        31        29        28        50     9      180.000000       -0.019407         2
        31        29        28        50     9        0.000000        0.491643         3
        31        29        28        50     9      180.000000       -0.015886         4
        32        29        28        49     9        0.000000       -0.015104         1
        32        29        28        49     9      180.000000       -0.019407         2
        32        29        28        49     9        0.000000        0.491643         3
        32        29        28        49     9      180.000000       -0.015886         4
        32        29        28        50     9        0.000000       -0.015104         1
        32        29        28        50     9      180.000000       -0.019407         2
        32        29        28        50     9        0.000000        0.491643         3
        32        29        28        50     9      180.000000       -0.015886         4
        44        14        15        45     9        0.000000       -0.097817         1
        44        14        15        45     9      180.000000       11.939894         2
        44        14        15        45     9        0.000000       -0.735367         3
        44        14        15        45     9      180.000000        0.258202         4

[ dihedrals ] ; impropers
;       ai        aj        ak        al funct           phase               k        pn
         3         2         4         5     4      180.000000       12.892481         2
         3         4         5         2     4      180.000000       12.892481         2
         3         5         2         4     4      180.000000       12.892481         2
         9         2         8        10     4      180.000000       23.226921         2
         9         8        10         2     4      180.000000       23.226921         2
         9        10         2         8     4      180.000000       23.226921         2
        19        18        20        21     4      180.000000       27.893333         2
        19        20        21        18     4      180.000000       27.893333         2
        19        21        18        20     4      180.000000       27.893333         2
        22        21        23        47     4      180.000000        7.246760         2
        22        23        47        21     4      180.000000        7.246760         2
        22        47        21        23     4      180.000000        7.246760         2
        24        23        25        27     4      180.000000       17.332310         2
        24        25        27        23     4      180.000000       17.332310         2
        24        27        23        25     4      180.000000       17.332310         2
        25        24        26        48     4      180.000000        2.220674         2
        25        26        48        24     4      180.000000        2.220674         2
        25        48        24        26     4      180.000000        2.220674         2

[ pairs ]
;       ai        aj funct
         1         4     1
         1         5     1
         1         8     1
         1        10     1
         2         6     1
         2        36     1
         2        37     1
         2        41     1
         2        42     1
         2        51     1
         3         7     1
         3         8     1
         3        10     1
         3        11     1
         3        33     1
         3        34     1
         3        35     1
         4         6     1
         4         9     1
         4        51     1
         5         9     1
         5        12     1
         5        16     1
         5        36     1
         5        37     1
         5        38     1
         5        39     1
         5        40     1
         5        41     1
         5        42     1
         6        10     1
         6        13     1
         6        15     1
         6        17     1
         6        43     1
         7         9     1
         7        12     1
         7        16     1
         7        41     1
         7        42     1
         7        51     1
         8        12     1
         8        16     1
         8        38     1
         8        39     1
         8        40     1
         8        51     1
         9        11     1
         9        33     1
         9        34     1
         9        35     1
        10        41     1
        10        42     1
        11        14     1
        11        18     1
        11        38     1
        11        39     1
        11        40     1
        11        41     1
        11        42     1
        11        45     1
        11        51     1
        12        15     1
        12        17     1
        12        19     1
        12        44     1
        12        46     1
        13        16     1
        13        20     1
        13        21     1
        13        45     1
        14        17     1
        14        19     1
        14        43     1
        14        46     1
        15        18     1
        16        43     1
        16        44     1
        17        45     1
        18        22     1
        18        26     1
        18        43     1
        18        44     1
        19        23     1
        19        25     1
        19        47     1
        20        22     1
        20        26     1
        20        46     1
        21        24     1
        21        46     1
        21        48     1
        22        25     1
        22        27     1
        23        26     1
        23        28     1
        23        48     1
        24        29     1
        24        47     1
        24        49     1
        24        50     1
        25        28     1
        26        27     1
        26        47     1
        27        30     1
        27        31     1
        27        32     1
        27        48     1
        30        49     1
        30        50     1
        31        49     1
        31        50     1
        32        49     1
        32        50     1
        44        45     1
