; ITP file created by ByteFF-ML, 2025-12-06 06:46:31.539067

[ atomtypes ]
;name           bonded.type        at.num        mass        charge   ptype           sigma         epsilon
 c0bf                                   6      0.0000       0.00000       A     3.39737e-01     4.50077e-01
 o1bf                                   8      0.0000       0.00000       A     3.15714e-01     3.03959e-01
 c2bf                                   6      0.0000       0.00000       A     3.31417e-01     4.11803e-01
 c3bf                                   6      0.0000       0.00000       A     3.31631e-01     4.14528e-01
 n4bf                                   7      0.0000       0.00000       A     3.38496e-01     3.92572e-01
 c5bf                                   6      0.0000       0.00000       A     3.31452e-01     4.10539e-01
 c6bf                                   6      0.0000       0.00000       A     3.31330e-01     4.13851e-01
 n7bf                                   7      0.0000       0.00000       A     3.38358e-01     3.96036e-01
 c8bf                                   6      0.0000       0.00000       A     3.31148e-01     4.05346e-01
 o9bf                                   8      0.0000       0.00000       A     3.04717e-01     6.06795e-01
 n10bf                                  7      0.0000       0.00000       A     3.27017e-01     4.87034e-01
 c11bf                                  6      0.0000       0.00000       A     3.31499e-01     4.13570e-01
 c12bf                                  6      0.0000       0.00000       A     3.31511e-01     4.12352e-01
 c13bf                                  6      0.0000       0.00000       A     3.31473e-01     4.13171e-01
 c14bf                                  6      0.0000       0.00000       A     3.31372e-01     4.11106e-01
 f15bf                                  9      0.0000       0.00000       A     3.03514e-01     3.48021e-01
 c16bf                                  6      0.0000       0.00000       A     3.31575e-01     4.12351e-01
 c17bf                                  6      0.0000       0.00000       A     3.31800e-01     4.14076e-01
 c18bf                                  6      0.0000       0.00000       A     3.39756e-01     4.45431e-01
 c19bf                                  6      0.0000       0.00000       A     3.39543e-01     4.49616e-01
 c20bf                                  6      0.0000       0.00000       A     3.39874e-01     4.52586e-01
 c21bf                                  6      0.0000       0.00000       A     3.39962e-01     4.53407e-01
 c22bf                                  6      0.0000       0.00000       A     3.30764e-01     4.05781e-01
 o23bf                                  8      0.0000       0.00000       A     3.04797e-01     6.19404e-01
 n24bf                                  7      0.0000       0.00000       A     3.18041e-01     7.01959e-01
 c25bf                                  6      0.0000       0.00000       A     3.39966e-01     4.49638e-01
 c26bf                                  6      0.0000       0.00000       A     3.31493e-01     4.05216e-01
 n27bf                                  7      0.0000       0.00000       A     3.36493e-01     4.69377e-01
 n28bf                                  7      0.0000       0.00000       A     3.27136e-01     6.57164e-01
 h29bf                                  1      0.0000       0.00000       A     2.42098e-01     8.72826e-02
 h30bf                                  1      0.0000       0.00000       A     2.42098e-01     8.72826e-02
 h31bf                                  1      0.0000       0.00000       A     2.42098e-01     8.72826e-02
 h32bf                                  1      0.0000       0.00000       A     2.53458e-01     6.72408e-02
 h33bf                                  1      0.0000       0.00000       A     2.53990e-01     6.69471e-02
 h34bf                                  1      0.0000       0.00000       A     1.10735e-01     3.92473e-02
 h35bf                                  1      0.0000       0.00000       A     2.62514e-01     6.73797e-02
 h36bf                                  1      0.0000       0.00000       A     2.62617e-01     6.73605e-02
 h37bf                                  1      0.0000       0.00000       A     2.62692e-01     6.82032e-02
 h38bf                                  1      0.0000       0.00000       A     2.60129e-01     8.81653e-02
 h39bf                                  1      0.0000       0.00000       A     2.60129e-01     8.81653e-02
 h40bf                                  1      0.0000       0.00000       A     2.60129e-01     8.81653e-02
 h41bf                                  1      0.0000       0.00000       A     2.60342e-01     8.69730e-02
 h42bf                                  1      0.0000       0.00000       A     2.60342e-01     8.69730e-02
 h43bf                                  1      0.0000       0.00000       A     2.60499e-01     8.74838e-02
 h44bf                                  1      0.0000       0.00000       A     2.60499e-01     8.74838e-02
 h45bf                                  1      0.0000       0.00000       A     2.42120e-01     8.70560e-02
 h46bf                                  1      0.0000       0.00000       A     2.42120e-01     8.70560e-02
 h47bf                                  1      0.0000       0.00000       A     2.42120e-01     8.70560e-02
 h48bf                                  1      0.0000       0.00000       A     1.10322e-01     4.14978e-02
 h49bf                                  1      0.0000       0.00000       A     1.10322e-01     4.14978e-02
 h50bf                                  1      0.0000       0.00000       A     1.10667e-01     3.95219e-02

[ moleculetype ]
;name             nrexcl
 27d                   3

[ atoms ]
;       nr            type      resi   res      atom      cgnr      charge          mass ; qtot
         1            c0bf         1   UNL        c0         1     0.15204       12.0110 ; qtot    0.152
         2            o1bf         1   UNL        o1         2    -0.46193       15.9990 ; qtot   -0.310
         3            c2bf         1   UNL        c2         3     0.55806       12.0110 ; qtot    0.248
         4            c3bf         1   UNL        c3         4     0.25606       12.0110 ; qtot    0.504
         5            n4bf         1   UNL        n4         5    -0.59708       14.0070 ; qtot   -0.093
         6            c5bf         1   UNL        c5         6     0.18226       12.0110 ; qtot    0.089
         7            c6bf         1   UNL        c6         7     0.39660       12.0110 ; qtot    0.486
         8            n7bf         1   UNL        n7         8    -0.72673       14.0070 ; qtot   -0.241
         9            c8bf         1   UNL        c8         9     0.52256       12.0110 ; qtot    0.282
        10            o9bf         1   UNL        o9        10    -0.57505       15.9990 ; qtot   -0.293
        11           n10bf         1   UNL       n10        11    -0.13053       14.0070 ; qtot   -0.424
        12           c11bf         1   UNL       c11        12    -0.02070       12.0110 ; qtot   -0.444
        13           c12bf         1   UNL       c12        13    -0.12255       12.0110 ; qtot   -0.567
        14           c13bf         1   UNL       c13        14    -0.10174       12.0110 ; qtot   -0.669
        15           c14bf         1   UNL       c14        15     0.15694       12.0110 ; qtot   -0.512
        16           f15bf         1   UNL       f15        16    -0.18053       18.9980 ; qtot   -0.692
        17           c16bf         1   UNL       c16        17    -0.14076       12.0110 ; qtot   -0.833
        18           c17bf         1   UNL       c17        18    -0.08915       12.0110 ; qtot   -0.922
        19           c18bf         1   UNL       c18        19     0.19397       12.0110 ; qtot   -0.728
        20           c19bf         1   UNL       c19        20    -0.10824       12.0110 ; qtot   -0.837
        21           c20bf         1   UNL       c20        21    -0.08673       12.0110 ; qtot   -0.923
        22           c21bf         1   UNL       c21        22    -0.15786       12.0110 ; qtot   -1.081
        23           c22bf         1   UNL       c22        23     0.56195       12.0110 ; qtot   -0.519
        24           o23bf         1   UNL       o23        24    -0.46406       15.9990 ; qtot   -0.983
        25           n24bf         1   UNL       n24        25    -0.50815       14.0070 ; qtot   -1.491
        26           c25bf         1   UNL       c25        26     0.05544       12.0110 ; qtot   -1.436
        27           c26bf         1   UNL       c26        27     0.93448       12.0110 ; qtot   -0.501
        28           n27bf         1   UNL       n27        28    -0.73492       14.0070 ; qtot   -1.236
        29           n28bf         1   UNL       n28        29    -0.53850       14.0070 ; qtot   -1.775
        30           h29bf         1   UNL       h29        30     0.05257        1.0080 ; qtot   -1.722
        31           h30bf         1   UNL       h30        31     0.05257        1.0080 ; qtot   -1.670
        32           h31bf         1   UNL       h31        32     0.05257        1.0080 ; qtot   -1.617
        33           h32bf         1   UNL       h32        33     0.04897        1.0080 ; qtot   -1.568
        34           h33bf         1   UNL       h33        34     0.05518        1.0080 ; qtot   -1.513
        35           h34bf         1   UNL       h34        35     0.18200        1.0080 ; qtot   -1.331
        36           h35bf         1   UNL       h35        36     0.13823        1.0080 ; qtot   -1.193
        37           h36bf         1   UNL       h36        37     0.14109        1.0080 ; qtot   -1.052
        38           h37bf         1   UNL       h37        38     0.14648        1.0080 ; qtot   -0.905
        39           h38bf         1   UNL       h38        39     0.06359        1.0080 ; qtot   -0.842
        40           h39bf         1   UNL       h39        40     0.06359        1.0080 ; qtot   -0.778
        41           h40bf         1   UNL       h40        41     0.06359        1.0080 ; qtot   -0.714
        42           h41bf         1   UNL       h41        42     0.07752        1.0080 ; qtot   -0.637
        43           h42bf         1   UNL       h42        43     0.07752        1.0080 ; qtot   -0.559
        44           h43bf         1   UNL       h43        44     0.08769        1.0080 ; qtot   -0.472
        45           h44bf         1   UNL       h44        45     0.08769        1.0080 ; qtot   -0.384
        46           h45bf         1   UNL       h45        46     0.08040        1.0080 ; qtot   -0.304
        47           h46bf         1   UNL       h46        47     0.08040        1.0080 ; qtot   -0.223
        48           h47bf         1   UNL       h47        48     0.08040        1.0080 ; qtot   -0.143
        49           h48bf         1   UNL       h48        49     0.38213        1.0080 ; qtot    0.239
        50           h49bf         1   UNL       h49        50     0.38213        1.0080 ; qtot    0.621
        51           h50bf         1   UNL       h50        51     0.37854        1.0080 ; qtot    1.000

[ bonds ]
;       ai        aj funct               r               k
         1         2     1        0.143829   190599.050439
         1        30     1        0.109174   306276.512207
         1        31     1        0.109174   306276.512207
         1        32     1        0.109174   306276.512207
         2         3     1        0.134790   292220.810596
         3         4     1        0.141598   238879.841406
         3         8     1        0.133033   306530.504297
         4         5     1        0.132480   360853.119971
         4        33     1        0.108608   321657.385498
         5         6     1        0.134577   291943.017920
         6         7     1        0.139738   275366.471631
         6         9     1        0.150636   172131.085376
         7         8     1        0.134108   333598.639990
         7        34     1        0.108576   323728.062012
         9        10     1        0.123138   599485.379102
         9        11     1        0.136555   288405.030176
        11        12     1        0.140708   250089.662012
        11        35     1        0.101676   403581.785840
        12        13     1        0.140437   285545.205908
        12        18     1        0.140440   283551.957910
        13        14     1        0.139422   325964.295605
        13        36     1        0.108346   327103.557129
        14        15     1        0.138780   315415.043408
        14        37     1        0.108488   324368.200732
        15        16     1        0.136514   271203.029004
        15        17     1        0.139948   277433.470801
        17        18     1        0.140169   293375.445459
        17        19     1        0.153300   159211.274390
        18        38     1        0.108219   327274.119482
        19        20     1        0.153904   170097.501514
        19        21     1        0.154597   159003.734302
        19        29     1        0.151090   123905.671631
        20        39     1        0.109192   307706.283887
        20        40     1        0.109192   307706.232813
        20        41     1        0.109192   307706.232813
        21        22     1        0.153505   182215.421729
        21        42     1        0.109309   302056.530420
        21        43     1        0.109309   302056.530420
        22        23     1        0.151404   181461.017212
        22        44     1        0.109273   304892.119971
        22        45     1        0.109273   304892.119971
        23        24     1        0.121630   659961.186816
        23        25     1        0.143617   145537.965454
        25        26     1        0.147871   176146.565991
        25        27     1        0.136033   292620.874951
        26        46     1        0.109002   311176.240771
        26        47     1        0.109002   311176.240771
        26        48     1        0.109002   311176.240771
        27        28     1        0.134723   374586.849707
        27        29     1        0.133371   387815.251123
        28        49     1        0.101302   426201.025098
        28        50     1        0.101302   426201.025098
        29        51     1        0.101534   410200.391699

[ angles ]
;       ai        aj        ak funct           theta             cth
         1         2         3     1      116.867775      549.837842
         2         1        30     1      108.868874      455.294898
         2         1        31     1      108.868874      455.294898
         2         1        32     1      108.868874      455.294898
         2         3         4     1      117.650696      557.172419
         2         3         8     1      120.038963      621.868834
         3         4         5     1      120.909645      781.251871
         3         4        33     1      120.696083      403.574974
         3         8         7     1      116.464073      930.433535
         4         3         8     1      121.845398      581.344315
         4         5         6     1      117.605148      735.313612
         5         4        33     1      118.279030      384.833353
         5         6         7     1      120.819031      564.260627
         5         6         9     1      118.528160      492.369578
         6         7         8     1      122.067993      662.205209
         6         7        34     1      120.284828      371.133173
         6         9        10     1      121.038818      683.784067
         6         9        11     1      112.914345      483.389070
         7         6         9     1      120.185524      556.533864
         8         7        34     1      117.127953      373.416190
         9        11        12     1      129.120605      472.099625
         9        11        35     1      113.907898      463.683488
        10         9        11     1      126.170670      588.522413
        11        12        13     1      120.521141      596.276692
        11        12        18     1      119.775291      497.981549
        12        11        35     1      117.111191      396.404952
        12        13        14     1      119.638100      722.910493
        12        13        36     1      120.081894      447.279662
        12        18        17     1      121.709335      693.518430
        12        18        38     1      118.818222      437.350387
        13        12        18     1      119.202782      561.258548
        13        14        15     1      119.391846      686.429264
        13        14        37     1      121.068405      427.908615
        14        13        36     1      120.210411      388.633881
        14        15        16     1      117.755432      535.673557
        14        15        17     1      122.702721      571.597758
        15        14        37     1      119.377853      442.986267
        15        17        18     1      116.710037      632.392039
        15        17        19     1      121.834885      555.197571
        16        15        17     1      119.690994      476.790696
        17        18        38     1      119.597122      392.263726
        17        19        20     1      111.336472      633.608499
        17        19        21     1      111.512962      574.760529
        17        19        29     1      106.575294      584.757732
        18        17        19     1      121.600685      438.897457
        19        20        39     1      110.651917      481.827732
        19        20        40     1      110.651917      481.827732
        19        20        41     1      110.651917      481.827732
        19        21        22     1      115.035133      590.854206
        19        21        42     1      108.276932      466.663509
        19        21        43     1      108.276932      466.663509
        19        29        27     1      130.766083      446.464964
        19        29        51     1      113.648643      389.761919
        20        19        21     1      110.755905      559.823235
        20        19        29     1      106.840347      606.055235
        21        19        29     1      109.892136      515.002224
        21        22        23     1      113.984032      668.371400
        21        22        44     1      110.073547      488.395589
        21        22        45     1      110.073547      488.395589
        22        21        42     1      109.197105      481.360977
        22        21        43     1      109.197105      481.360977
        22        23        24     1      122.784401      472.688830
        22        23        25     1      118.496948      545.816194
        23        22        44     1      107.534958      545.470422
        23        22        45     1      107.534958      545.470422
        23        25        26     1      115.937950      555.293462
        23        25        27     1      126.512131      598.820061
        24        23        25     1      118.780418      646.131642
        25        26        46     1      109.459351      465.351604
        25        26        47     1      109.459351      465.351604
        25        26        48     1      109.459351      465.351604
        25        27        28     1      118.257767      572.953395
        25        27        29     1      123.507706      569.859383
        26        25        27     1      118.292809      505.244463
        27        28        49     1      120.354752      436.297523
        27        28        50     1      120.354752      436.297523
        27        29        51     1      115.754051      481.506124
        28        27        29     1      118.792542      561.642499
        30         1        31     1      110.143593      339.904033
        30         1        32     1      110.143593      339.904033
        31         1        32     1      110.143593      339.904033
        39        20        40     1      108.371803      358.401328
        39        20        41     1      108.371803      358.401328
        40        20        41     1      108.371803      358.401328
        42        21        43     1      106.560852      360.691879
        44        22        45     1      107.098282      359.176953
        46        26        47     1      109.456215      347.846425
        46        26        48     1      109.456215      347.846425
        47        26        48     1      109.456215      347.846425
        49        28        50     1      116.566246      321.339736

[ dihedrals ] ; propers for gromacs 4.5 or higher, use funct 9
;       ai        aj        ak        al funct           phase               k        pn
         1         2         3         4     9        0.000000        0.120294         1
         1         2         3         4     9      180.000000        7.276128         2
         1         2         3         4     9        0.000000       -0.315670         3
         1         2         3         4     9      180.000000        0.588332         4
         1         2         3         8     9        0.000000        1.517425         1
         1         2         3         8     9      180.000000        7.893262         2
         1         2         3         8     9        0.000000        0.029471         3
         1         2         3         8     9      180.000000        0.331559         4
         2         3         4         5     9        0.000000       -0.232090         1
         2         3         4         5     9      180.000000       11.896707         2
         2         3         4         5     9        0.000000        0.347852         3
         2         3         4         5     9      180.000000       -0.709428         4
         2         3         4        33     9        0.000000        0.091565         1
         2         3         4        33     9      180.000000        9.973377         2
         2         3         4        33     9        0.000000       -0.173099         3
         2         3         4        33     9      180.000000       -0.011798         4
         2         3         8         7     9        0.000000        1.670118         1
         2         3         8         7     9      180.000000       24.361630         2
         2         3         8         7     9        0.000000        1.224280         3
         2         3         8         7     9      180.000000       -0.891544         4
         3         2         1        30     9        0.000000        0.044977         1
         3         2         1        30     9      180.000000        0.058490         2
         3         2         1        30     9        0.000000        0.383112         3
         3         2         1        30     9      180.000000        0.007462         4
         3         2         1        31     9        0.000000        0.044977         1
         3         2         1        31     9      180.000000        0.058490         2
         3         2         1        31     9        0.000000        0.383112         3
         3         2         1        31     9      180.000000        0.007462         4
         3         2         1        32     9        0.000000        0.044977         1
         3         2         1        32     9      180.000000        0.058490         2
         3         2         1        32     9        0.000000        0.383112         3
         3         2         1        32     9      180.000000        0.007462         4
         3         4         5         6     9        0.000000       -0.299553         1
         3         4         5         6     9      180.000000       24.256537         2
         3         4         5         6     9        0.000000       -0.730394         3
         3         4         5         6     9      180.000000       -0.499212         4
         3         8         7         6     9        0.000000       -0.031564         1
         3         8         7         6     9      180.000000       21.726426         2
         3         8         7         6     9        0.000000       -1.127649         3
         3         8         7         6     9      180.000000       -0.467351         4
         3         8         7        34     9        0.000000        0.731562         1
         3         8         7        34     9      180.000000       18.040882         2
         3         8         7        34     9        0.000000        0.289880         3
         3         8         7        34     9      180.000000       -0.172640         4
         4         3         8         7     9        0.000000        0.259567         1
         4         3         8         7     9      180.000000       17.579870         2
         4         3         8         7     9        0.000000        0.381331         3
         4         3         8         7     9      180.000000       -0.279751         4
         4         5         6         7     9        0.000000       -0.636350         1
         4         5         6         7     9      180.000000       20.664717         2
         4         5         6         7     9        0.000000       -0.689192         3
         4         5         6         7     9      180.000000       -0.087628         4
         4         5         6         9     9        0.000000        0.597159         1
         4         5         6         9     9      180.000000       20.045815         2
         4         5         6         9     9        0.000000        0.861271         3
         4         5         6         9     9      180.000000       -0.860932         4
         5         4         3         8     9        0.000000       -1.504947         1
         5         4         3         8     9      180.000000        8.896728         2
         5         4         3         8     9        0.000000        0.092626         3
         5         4         3         8     9      180.000000       -0.673032         4
         5         6         7         8     9        0.000000       -0.360791         1
         5         6         7         8     9      180.000000       16.262593         2
         5         6         7         8     9        0.000000       -0.061077         3
         5         6         7         8     9      180.000000       -0.692198         4
         5         6         7        34     9        0.000000        0.137933         1
         5         6         7        34     9      180.000000       12.095593         2
         5         6         7        34     9        0.000000       -0.103619         3
         5         6         7        34     9      180.000000       -0.287737         4
         5         6         9        10     9        0.000000       -4.067852         1
         5         6         9        10     9      180.000000        4.651405         2
         5         6         9        10     9        0.000000        0.557911         3
         5         6         9        10     9      180.000000        0.106111         4
         5         6         9        11     9        0.000000        1.591220         1
         5         6         9        11     9      180.000000        3.808573         2
         5         6         9        11     9        0.000000        0.516892         3
         5         6         9        11     9      180.000000       -0.202257         4
         6         5         4        33     9        0.000000        0.655481         1
         6         5         4        33     9      180.000000       21.368507         2
         6         5         4        33     9        0.000000        0.183031         3
         6         5         4        33     9      180.000000       -0.498734         4
         6         9        11        12     9        0.000000        2.424072         1
         6         9        11        12     9      180.000000        8.538221         2
         6         9        11        12     9        0.000000        0.447933         3
         6         9        11        12     9      180.000000       -0.764471         4
         6         9        11        35     9        0.000000        0.686873         1
         6         9        11        35     9      180.000000        7.657136         2
         6         9        11        35     9        0.000000       -0.021098         3
         6         9        11        35     9      180.000000        0.356070         4
         7         6         9        10     9        0.000000        1.442798         1
         7         6         9        10     9      180.000000        4.344900         2
         7         6         9        10     9        0.000000       -0.634888         3
         7         6         9        10     9      180.000000        0.322917         4
         7         6         9        11     9        0.000000       -0.407241         1
         7         6         9        11     9      180.000000        3.554716         2
         7         6         9        11     9        0.000000       -0.255985         3
         7         6         9        11     9      180.000000       -0.047805         4
         8         3         4        33     9        0.000000       -0.352725         1
         8         3         4        33     9      180.000000        7.959583         2
         8         3         4        33     9        0.000000       -0.263160         3
         8         3         4        33     9      180.000000       -0.178512         4
         8         7         6         9     9        0.000000       -0.175661         1
         8         7         6         9     9      180.000000       12.857960         2
         8         7         6         9     9        0.000000        0.106399         3
         8         7         6         9     9      180.000000       -0.607118         4
         9         6         7        34     9        0.000000        0.171151         1
         9         6         7        34     9      180.000000       11.100510         2
         9         6         7        34     9        0.000000       -0.370178         3
         9         6         7        34     9      180.000000        0.036745         4
         9        11        12        13     9        0.000000        0.161103         1
         9        11        12        13     9      180.000000        2.536245         2
         9        11        12        13     9        0.000000        0.092185         3
         9        11        12        13     9      180.000000        0.056337         4
         9        11        12        18     9        0.000000        0.019832         1
         9        11        12        18     9      180.000000        2.545110         2
         9        11        12        18     9        0.000000        0.038621         3
         9        11        12        18     9      180.000000        0.049432         4
        10         9        11        12     9        0.000000       -0.957605         1
        10         9        11        12     9      180.000000       11.032088         2
        10         9        11        12     9        0.000000        0.344121         3
        10         9        11        12     9      180.000000       -0.858982         4
        10         9        11        35     9        0.000000       -0.175428         1
        10         9        11        35     9      180.000000       11.058967         2
        10         9        11        35     9        0.000000        0.301664         3
        10         9        11        35     9      180.000000        0.828428         4
        11        12        13        14     9        0.000000        0.241783         1
        11        12        13        14     9      180.000000       18.155496         2
        11        12        13        14     9        0.000000        0.032081         3
        11        12        13        14     9      180.000000       -0.301984         4
        11        12        13        36     9        0.000000       -0.012694         1
        11        12        13        36     9      180.000000       14.004942         2
        11        12        13        36     9        0.000000       -0.157036         3
        11        12        13        36     9      180.000000        0.222373         4
        11        12        18        17     9        0.000000        0.036851         1
        11        12        18        17     9      180.000000       17.038222         2
        11        12        18        17     9        0.000000       -0.206145         3
        11        12        18        17     9      180.000000       -0.319323         4
        11        12        18        38     9        0.000000       -0.131373         1
        11        12        18        38     9      180.000000       13.757958         2
        11        12        18        38     9        0.000000       -0.266693         3
        11        12        18        38     9      180.000000        0.243080         4
        12        13        14        15     9        0.000000       -0.034022         1
        12        13        14        15     9      180.000000       18.529701         2
        12        13        14        15     9        0.000000       -1.741859         3
        12        13        14        15     9      180.000000       -0.385107         4
        12        13        14        37     9        0.000000        0.115109         1
        12        13        14        37     9      180.000000       14.184139         2
        12        13        14        37     9        0.000000       -0.489164         3
        12        13        14        37     9      180.000000        0.089101         4
        12        18        17        15     9        0.000000       -0.202575         1
        12        18        17        15     9      180.000000       18.567972         2
        12        18        17        15     9        0.000000       -1.766528         3
        12        18        17        15     9      180.000000       -0.382034         4
        12        18        17        19     9        0.000000        0.409222         1
        12        18        17        19     9      180.000000       15.226608         2
        12        18        17        19     9        0.000000        0.031869         3
        12        18        17        19     9      180.000000       -0.305197         4
        13        12        11        35     9        0.000000        0.048969         1
        13        12        11        35     9      180.000000        2.574109         2
        13        12        11        35     9        0.000000        0.119311         3
        13        12        11        35     9      180.000000        0.332637         4
        13        12        18        17     9        0.000000        0.061058         1
        13        12        18        17     9      180.000000       15.825642         2
        13        12        18        17     9        0.000000       -1.290457         3
        13        12        18        17     9      180.000000       -0.261257         4
        13        12        18        38     9        0.000000        0.100883         1
        13        12        18        38     9      180.000000       12.366595         2
        13        12        18        38     9        0.000000       -0.620672         3
        13        12        18        38     9      180.000000        0.136124         4
        13        14        15        16     9        0.000000        0.456998         1
        13        14        15        16     9      180.000000       23.097809         2
        13        14        15        16     9        0.000000        0.582943         3
        13        14        15        16     9      180.000000       -0.502663         4
        13        14        15        17     9        0.000000       -0.122342         1
        13        14        15        17     9      180.000000       16.712517         2
        13        14        15        17     9        0.000000       -1.306041         3
        13        14        15        17     9      180.000000       -0.279389         4
        14        13        12        18     9        0.000000        0.035605         1
        14        13        12        18     9      180.000000       16.816548         2
        14        13        12        18     9        0.000000       -1.036206         3
        14        13        12        18     9      180.000000       -0.196259         4
        14        15        17        18     9        0.000000       -0.209521         1
        14        15        17        18     9      180.000000       17.154025         2
        14        15        17        18     9        0.000000       -1.093190         3
        14        15        17        18     9      180.000000       -0.299179         4
        14        15        17        19     9        0.000000        0.050664         1
        14        15        17        19     9      180.000000       12.342592         2
        14        15        17        19     9        0.000000       -0.052936         3
        14        15        17        19     9      180.000000       -0.227340         4
        15        14        13        36     9        0.000000        0.224993         1
        15        14        13        36     9      180.000000       14.795039         2
        15        14        13        36     9        0.000000       -0.455377         3
        15        14        13        36     9      180.000000        0.127877         4
        15        17        18        38     9        0.000000        0.130069         1
        15        17        18        38     9      180.000000       14.175726         2
        15        17        18        38     9        0.000000       -0.549683         3
        15        17        18        38     9      180.000000        0.155721         4
        15        17        19        20     9        0.000000        0.323785         1
        15        17        19        20     9      180.000000        0.612960         2
        15        17        19        20     9        0.000000        0.161184         3
        15        17        19        20     9      180.000000        0.104042         4
        15        17        19        21     9        0.000000        0.079099         1
        15        17        19        21     9      180.000000       -0.022275         2
        15        17        19        21     9        0.000000        0.306385         3
        15        17        19        21     9      180.000000        0.089014         4
        15        17        19        29     9        0.000000        1.873900         1
        15        17        19        29     9      180.000000       -0.917360         2
        15        17        19        29     9        0.000000        0.252219         3
        15        17        19        29     9      180.000000        0.227946         4
        16        15        14        37     9        0.000000        0.066046         1
        16        15        14        37     9      180.000000       16.505644         2
        16        15        14        37     9        0.000000        0.278437         3
        16        15        14        37     9      180.000000        0.194758         4
        16        15        17        18     9        0.000000        0.327241         1
        16        15        17        18     9      180.000000       23.184142         2
        16        15        17        18     9        0.000000        0.266650         3
        16        15        17        18     9      180.000000       -0.749377         4
        16        15        17        19     9        0.000000        0.335181         1
        16        15        17        19     9      180.000000       16.721601         2
        16        15        17        19     9        0.000000        0.503620         3
        16        15        17        19     9      180.000000       -0.476435         4
        17        15        14        37     9        0.000000        0.019646         1
        17        15        14        37     9      180.000000       12.772327         2
        17        15        14        37     9        0.000000       -0.530561         3
        17        15        14        37     9      180.000000        0.122106         4
        17        19        20        39     9        0.000000        0.026183         1
        17        19        20        39     9      180.000000       -0.019487         2
        17        19        20        39     9        0.000000        0.553793         3
        17        19        20        39     9      180.000000       -0.014244         4
        17        19        20        40     9        0.000000        0.026183         1
        17        19        20        40     9      180.000000       -0.019489         2
        17        19        20        40     9        0.000000        0.553793         3
        17        19        20        40     9      180.000000       -0.014244         4
        17        19        20        41     9        0.000000        0.026183         1
        17        19        20        41     9      180.000000       -0.019489         2
        17        19        20        41     9        0.000000        0.553793         3
        17        19        20        41     9      180.000000       -0.014244         4
        17        19        21        22     9        0.000000       -1.359703         1
        17        19        21        22     9      180.000000        0.907635         2
        17        19        21        22     9        0.000000        0.300714         3
        17        19        21        22     9      180.000000        0.142439         4
        17        19        21        42     9        0.000000        0.096813         1
        17        19        21        42     9      180.000000       -0.126372         2
        17        19        21        42     9        0.000000        0.275554         3
        17        19        21        42     9      180.000000       -0.040780         4
        17        19        21        43     9        0.000000        0.096813         1
        17        19        21        43     9      180.000000       -0.126372         2
        17        19        21        43     9        0.000000        0.275554         3
        17        19        21        43     9      180.000000       -0.040780         4
        17        19        29        27     9        0.000000       -2.160016         1
        17        19        29        27     9      180.000000       -1.113971         2
        17        19        29        27     9        0.000000        0.134320         3
        17        19        29        27     9      180.000000       -0.187414         4
        17        19        29        51     9        0.000000        1.652839         1
        17        19        29        51     9      180.000000       -1.187107         2
        17        19        29        51     9        0.000000       -0.173641         3
        17        19        29        51     9      180.000000       -0.123919         4
        18        12        11        35     9        0.000000        0.418473         1
        18        12        11        35     9      180.000000        2.728428         2
        18        12        11        35     9        0.000000        0.128365         3
        18        12        11        35     9      180.000000        0.318439         4
        18        12        13        36     9        0.000000        0.082935         1
        18        12        13        36     9      180.000000       13.240860         2
        18        12        13        36     9        0.000000       -0.383421         3
        18        12        13        36     9      180.000000        0.085519         4
        18        17        19        20     9        0.000000       -0.276870         1
        18        17        19        20     9      180.000000        0.915143         2
        18        17        19        20     9        0.000000       -0.332350         3
        18        17        19        20     9      180.000000        0.243910         4
        18        17        19        21     9        0.000000        0.020517         1
        18        17        19        21     9      180.000000        0.445889         2
        18        17        19        21     9        0.000000       -0.206640         3
        18        17        19        21     9      180.000000        0.172333         4
        18        17        19        29     9        0.000000        0.687705         1
        18        17        19        29     9      180.000000        0.972641         2
        18        17        19        29     9        0.000000       -0.348448         3
        18        17        19        29     9      180.000000        0.099018         4
        19        17        18        38     9        0.000000       -0.040449         1
        19        17        18        38     9      180.000000       13.179626         2
        19        17        18        38     9        0.000000       -0.319502         3
        19        17        18        38     9      180.000000        0.053613         4
        19        21        22        23     9        0.000000        5.929282         1
        19        21        22        23     9      180.000000       -0.159420         2
        19        21        22        23     9        0.000000       -0.875461         3
        19        21        22        23     9      180.000000       -0.357524         4
        19        21        22        44     9        0.000000       -0.131590         1
        19        21        22        44     9      180.000000       -0.099631         2
        19        21        22        44     9        0.000000        0.064025         3
        19        21        22        44     9      180.000000        0.113415         4
        19        21        22        45     9        0.000000       -0.131590         1
        19        21        22        45     9      180.000000       -0.099631         2
        19        21        22        45     9        0.000000        0.064025         3
        19        21        22        45     9      180.000000        0.113415         4
        19        29        27        25     9        0.000000        9.884785         1
        19        29        27        25     9      180.000000        9.175646         2
        19        29        27        25     9        0.000000       -0.890292         3
        19        29        27        25     9      180.000000       -0.613733         4
        19        29        27        28     9        0.000000        5.072179         1
        19        29        27        28     9      180.000000       10.723792         2
        19        29        27        28     9        0.000000       -0.198142         3
        19        29        27        28     9      180.000000       -1.574708         4
        20        19        21        22     9        0.000000       -1.314158         1
        20        19        21        22     9      180.000000        1.337922         2
        20        19        21        22     9        0.000000        0.253982         3
        20        19        21        22     9      180.000000        0.061415         4
        20        19        21        42     9        0.000000        0.023291         1
        20        19        21        42     9      180.000000       -0.106277         2
        20        19        21        42     9        0.000000        0.323909         3
        20        19        21        42     9      180.000000       -0.014294         4
        20        19        21        43     9        0.000000        0.023291         1
        20        19        21        43     9      180.000000       -0.106277         2
        20        19        21        43     9        0.000000        0.323909         3
        20        19        21        43     9      180.000000       -0.014294         4
        20        19        29        27     9        0.000000       -2.827363         1
        20        19        29        27     9      180.000000        0.423430         2
        20        19        29        27     9        0.000000        0.139456         3
        20        19        29        27     9      180.000000       -0.197278         4
        20        19        29        51     9        0.000000       -1.114201         1
        20        19        29        51     9      180.000000        0.291184         2
        20        19        29        51     9        0.000000       -0.021508         3
        20        19        29        51     9      180.000000       -0.112097         4
        21        19        20        39     9        0.000000       -0.048882         1
        21        19        20        39     9      180.000000       -0.038487         2
        21        19        20        39     9        0.000000        0.401270         3
        21        19        20        39     9      180.000000        0.052785         4
        21        19        20        40     9        0.000000       -0.048882         1
        21        19        20        40     9      180.000000       -0.038488         2
        21        19        20        40     9        0.000000        0.401270         3
        21        19        20        40     9      180.000000        0.052785         4
        21        19        20        41     9        0.000000       -0.048882         1
        21        19        20        41     9      180.000000       -0.038488         2
        21        19        20        41     9        0.000000        0.401270         3
        21        19        20        41     9      180.000000        0.052785         4
        21        19        29        27     9        0.000000        9.401792         1
        21        19        29        27     9      180.000000       -1.114619         2
        21        19        29        27     9        0.000000       -1.078608         3
        21        19        29        27     9      180.000000        0.425358         4
        21        19        29        51     9        0.000000       -0.904047         1
        21        19        29        51     9      180.000000       -1.299562         2
        21        19        29        51     9        0.000000       -0.139702         3
        21        19        29        51     9      180.000000        0.099523         4
        21        22        23        24     9        0.000000        4.888999         1
        21        22        23        24     9      180.000000       -3.558536         2
        21        22        23        24     9        0.000000       -0.338153         3
        21        22        23        24     9      180.000000        1.116787         4
        21        22        23        25     9        0.000000        1.913607         1
        21        22        23        25     9      180.000000        3.783574         2
        21        22        23        25     9        0.000000       -1.055708         3
        21        22        23        25     9      180.000000       -0.070547         4
        22        21        19        29     9        0.000000        9.511899         1
        22        21        19        29     9      180.000000        2.926033         2
        22        21        19        29     9        0.000000       -0.733311         3
        22        21        19        29     9      180.000000       -0.323491         4
        22        23        25        26     9        0.000000       -1.134546         1
        22        23        25        26     9      180.000000       11.256011         2
        22        23        25        26     9        0.000000       -0.019834         3
        22        23        25        26     9      180.000000       -0.085859         4
        22        23        25        27     9        0.000000        8.856579         1
        22        23        25        27     9      180.000000        7.177670         2
        22        23        25        27     9        0.000000       -1.914688         3
        22        23        25        27     9      180.000000       -0.239160         4
        23        22        21        42     9        0.000000       -0.195440         1
        23        22        21        42     9      180.000000       -0.158483         2
        23        22        21        42     9        0.000000       -0.042847         3
        23        22        21        42     9      180.000000        0.162339         4
        23        22        21        43     9        0.000000       -0.195440         1
        23        22        21        43     9      180.000000       -0.158483         2
        23        22        21        43     9        0.000000       -0.042847         3
        23        22        21        43     9      180.000000        0.162339         4
        23        25        26        46     9        0.000000       -0.002111         1
        23        25        26        46     9      180.000000       -0.020925         2
        23        25        26        46     9        0.000000       -0.207269         3
        23        25        26        46     9      180.000000        0.071289         4
        23        25        26        47     9        0.000000       -0.002111         1
        23        25        26        47     9      180.000000       -0.020925         2
        23        25        26        47     9        0.000000       -0.207269         3
        23        25        26        47     9      180.000000        0.071289         4
        23        25        26        48     9        0.000000       -0.002111         1
        23        25        26        48     9      180.000000       -0.020925         2
        23        25        26        48     9        0.000000       -0.207269         3
        23        25        26        48     9      180.000000        0.071289         4
        23        25        27        28     9        0.000000        3.847737         1
        23        25        27        28     9      180.000000        5.993237         2
        23        25        27        28     9        0.000000       -1.058999         3
        23        25        27        28     9      180.000000       -0.737929         4
        23        25        27        29     9        0.000000       10.079838         1
        23        25        27        29     9      180.000000        3.773926         2
        23        25        27        29     9        0.000000       -1.113517         3
        23        25        27        29     9      180.000000       -0.291902         4
        24        23        22        44     9        0.000000       -0.063763         1
        24        23        22        44     9      180.000000        0.675005         2
        24        23        22        44     9        0.000000       -0.264327         3
        24        23        22        44     9      180.000000        0.086222         4
        24        23        22        45     9        0.000000       -0.063763         1
        24        23        22        45     9      180.000000        0.675005         2
        24        23        22        45     9        0.000000       -0.264327         3
        24        23        22        45     9      180.000000        0.086222         4
        24        23        25        26     9        0.000000       -1.182242         1
        24        23        25        26     9      180.000000        9.745687         2
        24        23        25        26     9        0.000000       -0.518958         3
        24        23        25        26     9      180.000000        0.272219         4
        24        23        25        27     9        0.000000        8.006768         1
        24        23        25        27     9      180.000000        5.038265         2
        24        23        25        27     9        0.000000        0.129693         3
        24        23        25        27     9      180.000000        0.258541         4
        25        23        22        44     9        0.000000       -0.736642         1
        25        23        22        44     9      180.000000        0.384598         2
        25        23        22        44     9        0.000000       -0.302316         3
        25        23        22        44     9      180.000000        0.074284         4
        25        23        22        45     9        0.000000       -0.736642         1
        25        23        22        45     9      180.000000        0.384598         2
        25        23        22        45     9        0.000000       -0.302316         3
        25        23        22        45     9      180.000000        0.074284         4
        25        27        28        49     9        0.000000        3.610222         1
        25        27        28        49     9      180.000000        6.784350         2
        25        27        28        49     9        0.000000        0.133275         3
        25        27        28        49     9      180.000000       -0.514414         4
        25        27        28        50     9        0.000000        3.610222         1
        25        27        28        50     9      180.000000        6.784350         2
        25        27        28        50     9        0.000000        0.133275         3
        25        27        28        50     9      180.000000       -0.514414         4
        25        27        29        51     9        0.000000        2.288122         1
        25        27        29        51     9      180.000000       10.210273         2
        25        27        29        51     9        0.000000        0.053014         3
        25        27        29        51     9      180.000000       -0.556463         4
        26        25        27        28     9        0.000000       -1.728564         1
        26        25        27        28     9      180.000000       10.754037         2
        26        25        27        28     9        0.000000       -1.202519         3
        26        25        27        28     9      180.000000       -0.515544         4
        26        25        27        29     9        0.000000       -2.543253         1
        26        25        27        29     9      180.000000       10.153213         2
        26        25        27        29     9        0.000000       -1.013566         3
        26        25        27        29     9      180.000000       -0.183279         4
        27        25        26        46     9        0.000000       -0.176437         1
        27        25        26        46     9      180.000000        0.098234         2
        27        25        26        46     9        0.000000       -0.332138         3
        27        25        26        46     9      180.000000        0.025059         4
        27        25        26        47     9        0.000000       -0.176437         1
        27        25        26        47     9      180.000000        0.098234         2
        27        25        26        47     9        0.000000       -0.332138         3
        27        25        26        47     9      180.000000        0.025059         4
        27        25        26        48     9        0.000000       -0.176437         1
        27        25        26        48     9      180.000000        0.098234         2
        27        25        26        48     9        0.000000       -0.332138         3
        27        25        26        48     9      180.000000        0.025059         4
        28        27        29        51     9        0.000000        0.468722         1
        28        27        29        51     9      180.000000       13.277686         2
        28        27        29        51     9        0.000000        1.146684         3
        28        27        29        51     9      180.000000       -1.666968         4
        29        19        20        39     9        0.000000       -0.146319         1
        29        19        20        39     9      180.000000       -0.078560         2
        29        19        20        39     9        0.000000        0.435042         3
        29        19        20        39     9      180.000000        0.024773         4
        29        19        20        40     9        0.000000       -0.146318         1
        29        19        20        40     9      180.000000       -0.078560         2
        29        19        20        40     9        0.000000        0.435041         3
        29        19        20        40     9      180.000000        0.024773         4
        29        19        20        41     9        0.000000       -0.146318         1
        29        19        20        41     9      180.000000       -0.078560         2
        29        19        20        41     9        0.000000        0.435041         3
        29        19        20        41     9      180.000000        0.024773         4
        29        19        21        42     9        0.000000       -0.776244         1
        29        19        21        42     9      180.000000       -0.552502         2
        29        19        21        42     9        0.000000       -0.014213         3
        29        19        21        42     9      180.000000        0.287103         4
        29        19        21        43     9        0.000000       -0.776244         1
        29        19        21        43     9      180.000000       -0.552502         2
        29        19        21        43     9        0.000000       -0.014213         3
        29        19        21        43     9      180.000000        0.287103         4
        29        27        28        49     9        0.000000       -1.369707         1
        29        27        28        49     9      180.000000        7.469598         2
        29        27        28        49     9        0.000000       -0.025897         3
        29        27        28        49     9      180.000000       -0.564360         4
        29        27        28        50     9        0.000000       -1.369707         1
        29        27        28        50     9      180.000000        7.469598         2
        29        27        28        50     9        0.000000       -0.025897         3
        29        27        28        50     9      180.000000       -0.564360         4
        36        13        14        37     9        0.000000       -0.097174         1
        36        13        14        37     9      180.000000       11.988980         2
        36        13        14        37     9        0.000000       -0.733072         3
        36        13        14        37     9      180.000000        0.259295         4
        42        21        22        44     9        0.000000        0.092626         1
        42        21        22        44     9      180.000000        0.047768         2
        42        21        22        44     9        0.000000        0.390155         3
        42        21        22        44     9      180.000000       -0.008068         4
        42        21        22        45     9        0.000000        0.092626         1
        42        21        22        45     9      180.000000        0.047768         2
        42        21        22        45     9        0.000000        0.390155         3
        42        21        22        45     9      180.000000       -0.008068         4
        43        21        22        44     9        0.000000        0.092626         1
        43        21        22        44     9      180.000000        0.047768         2
        43        21        22        44     9        0.000000        0.390155         3
        43        21        22        44     9      180.000000       -0.008068         4
        43        21        22        45     9        0.000000        0.092626         1
        43        21        22        45     9      180.000000        0.047768         2
        43        21        22        45     9        0.000000        0.390155         3
        43        21        22        45     9      180.000000       -0.008068         4

[ dihedrals ] ; impropers
;       ai        aj        ak        al funct           phase               k        pn
         3         2         4         8     4      180.000000       20.727993         2
         3         4         8         2     4      180.000000       20.727993         2
         3         8         2         4     4      180.000000       20.727993         2
         4         3         5        33     4      180.000000        2.168601         2
         4         5        33         3     4      180.000000        2.168601         2
         4        33         3         5     4      180.000000        2.168601         2
         7         6         8        34     4      180.000000        7.323858         2
         7         8        34         6     4      180.000000        7.323858         2
         7        34         6         8     4      180.000000        7.323858         2
         9         6        10        11     4      180.000000       27.893333         2
         9        10        11         6     4      180.000000       27.893333         2
         9        11         6        10     4      180.000000       27.893333         2
        23        22        24        25     4      180.000000        5.578667         2
        23        24        25        22     4      180.000000        5.578667         2
        23        25        22        24     4      180.000000        5.578667         2

[ pairs ]
;       ai        aj funct
         1         4     1
         1         8     1
         2         5     1
         2         7     1
         2        33     1
         3         6     1
         3        30     1
         3        31     1
         3        32     1
         3        34     1
         4         7     1
         4         9     1
         5         8     1
         5        10     1
         5        11     1
         5        34     1
         6        12     1
         6        33     1
         6        35     1
         7        10     1
         7        11     1
         8         9     1
         8        33     1
         9        13     1
         9        18     1
         9        34     1
        10        12     1
        10        35     1
        11        14     1
        11        17     1
        11        36     1
        11        38     1
        12        15     1
        12        19     1
        12        37     1
        13        16     1
        13        17     1
        13        35     1
        13        38     1
        14        18     1
        14        19     1
        15        20     1
        15        21     1
        15        29     1
        15        36     1
        15        38     1
        16        18     1
        16        19     1
        16        37     1
        17        22     1
        17        27     1
        17        37     1
        17        39     1
        17        40     1
        17        41     1
        17        42     1
        17        43     1
        17        51     1
        18        20     1
        18        21     1
        18        29     1
        18        35     1
        18        36     1
        19        23     1
        19        25     1
        19        28     1
        19        38     1
        19        44     1
        19        45     1
        20        22     1
        20        27     1
        20        42     1
        20        43     1
        20        51     1
        21        24     1
        21        25     1
        21        27     1
        21        39     1
        21        40     1
        21        41     1
        21        51     1
        22        26     1
        22        27     1
        22        29     1
        23        28     1
        23        29     1
        23        42     1
        23        43     1
        23        46     1
        23        47     1
        23        48     1
        24        26     1
        24        27     1
        24        44     1
        24        45     1
        25        44     1
        25        45     1
        25        49     1
        25        50     1
        25        51     1
        26        28     1
        26        29     1
        27        46     1
        27        47     1
        27        48     1
        28        51     1
        29        39     1
        29        40     1
        29        41     1
        29        42     1
        29        43     1
        29        49     1
        29        50     1
        36        37     1
        42        44     1
        42        45     1
        43        44     1
        43        45     1
