; ITP file created by ByteFF-ML, 2025-12-06 06:45:11.746476

[ atomtypes ]
;name           bonded.type        at.num        mass        charge   ptype           sigma         epsilon
 c0bf                                   6      0.0000       0.00000       A     3.39770e-01     4.50036e-01
 o1bf                                   8      0.0000       0.00000       A     3.15820e-01     3.02873e-01
 c2bf                                   6      0.0000       0.00000       A     3.39748e-01     4.51263e-01
 c3bf                                   6      0.0000       0.00000       A     3.39767e-01     4.49934e-01
 o4bf                                   8      0.0000       0.00000       A     3.15893e-01     3.03073e-01
 c5bf                                   6      0.0000       0.00000       A     3.31466e-01     4.11321e-01
 c6bf                                   6      0.0000       0.00000       A     3.31630e-01     4.14648e-01
 n7bf                                   7      0.0000       0.00000       A     3.38496e-01     3.92572e-01
 c8bf                                   6      0.0000       0.00000       A     3.31452e-01     4.10539e-01
 c9bf                                   6      0.0000       0.00000       A     3.31330e-01     4.13851e-01
 n10bf                                  7      0.0000       0.00000       A     3.38343e-01     3.96108e-01
 c11bf                                  6      0.0000       0.00000       A     3.31148e-01     4.05346e-01
 o12bf                                  8      0.0000       0.00000       A     3.04717e-01     6.06795e-01
 n13bf                                  7      0.0000       0.00000       A     3.27017e-01     4.87034e-01
 c14bf                                  6      0.0000       0.00000       A     3.31499e-01     4.13570e-01
 c15bf                                  6      0.0000       0.00000       A     3.31511e-01     4.12352e-01
 c16bf                                  6      0.0000       0.00000       A     3.31473e-01     4.13171e-01
 c17bf                                  6      0.0000       0.00000       A     3.31372e-01     4.11106e-01
 f18bf                                  9      0.0000       0.00000       A     3.03514e-01     3.48021e-01
 c19bf                                  6      0.0000       0.00000       A     3.31575e-01     4.12351e-01
 c20bf                                  6      0.0000       0.00000       A     3.31800e-01     4.14076e-01
 c21bf                                  6      0.0000       0.00000       A     3.39756e-01     4.45431e-01
 c22bf                                  6      0.0000       0.00000       A     3.39543e-01     4.49616e-01
 c23bf                                  6      0.0000       0.00000       A     3.39874e-01     4.52586e-01
 c24bf                                  6      0.0000       0.00000       A     3.39962e-01     4.53407e-01
 c25bf                                  6      0.0000       0.00000       A     3.30764e-01     4.05781e-01
 o26bf                                  8      0.0000       0.00000       A     3.04797e-01     6.19404e-01
 n27bf                                  7      0.0000       0.00000       A     3.18041e-01     7.01959e-01
 c28bf                                  6      0.0000       0.00000       A     3.39966e-01     4.49638e-01
 c29bf                                  6      0.0000       0.00000       A     3.31493e-01     4.05216e-01
 n30bf                                  7      0.0000       0.00000       A     3.36493e-01     4.69377e-01
 n31bf                                  7      0.0000       0.00000       A     3.27136e-01     6.57164e-01
 h32bf                                  1      0.0000       0.00000       A     2.42032e-01     8.71661e-02
 h33bf                                  1      0.0000       0.00000       A     2.42032e-01     8.71661e-02
 h34bf                                  1      0.0000       0.00000       A     2.42032e-01     8.71661e-02
 h35bf                                  1      0.0000       0.00000       A     2.42008e-01     8.73433e-02
 h36bf                                  1      0.0000       0.00000       A     2.42008e-01     8.73433e-02
 h37bf                                  1      0.0000       0.00000       A     2.42132e-01     8.76146e-02
 h38bf                                  1      0.0000       0.00000       A     2.42132e-01     8.76146e-02
 h39bf                                  1      0.0000       0.00000       A     2.53458e-01     6.72408e-02
 h40bf                                  1      0.0000       0.00000       A     2.53990e-01     6.69471e-02
 h41bf                                  1      0.0000       0.00000       A     1.10735e-01     3.92473e-02
 h42bf                                  1      0.0000       0.00000       A     2.62514e-01     6.73797e-02
 h43bf                                  1      0.0000       0.00000       A     2.62617e-01     6.73605e-02
 h44bf                                  1      0.0000       0.00000       A     2.62692e-01     6.82032e-02
 h45bf                                  1      0.0000       0.00000       A     2.60129e-01     8.81653e-02
 h46bf                                  1      0.0000       0.00000       A     2.60129e-01     8.81653e-02
 h47bf                                  1      0.0000       0.00000       A     2.60129e-01     8.81653e-02
 h48bf                                  1      0.0000       0.00000       A     2.60342e-01     8.69730e-02
 h49bf                                  1      0.0000       0.00000       A     2.60342e-01     8.69730e-02
 h50bf                                  1      0.0000       0.00000       A     2.60499e-01     8.74838e-02
 h51bf                                  1      0.0000       0.00000       A     2.60499e-01     8.74838e-02
 h52bf                                  1      0.0000       0.00000       A     2.42120e-01     8.70560e-02
 h53bf                                  1      0.0000       0.00000       A     2.42120e-01     8.70560e-02
 h54bf                                  1      0.0000       0.00000       A     2.42120e-01     8.70560e-02
 h55bf                                  1      0.0000       0.00000       A     1.10322e-01     4.14978e-02
 h56bf                                  1      0.0000       0.00000       A     1.10322e-01     4.14978e-02
 h57bf                                  1      0.0000       0.00000       A     1.10667e-01     3.95219e-02

[ moleculetype ]
;name             nrexcl
 27f                   3

[ atoms ]
;       nr            type      resi   res      atom      cgnr      charge          mass ; qtot
         1            c0bf         1   UNL        c0         1     0.14056       12.0110 ; qtot    0.141
         2            o1bf         1   UNL        o1         2    -0.45910       15.9990 ; qtot   -0.319
         3            c2bf         1   UNL        c2         3     0.13920       12.0110 ; qtot   -0.179
         4            c3bf         1   UNL        c3         4     0.14897       12.0110 ; qtot   -0.030
         5            o4bf         1   UNL        o4         5    -0.45528       15.9990 ; qtot   -0.486
         6            c5bf         1   UNL        c5         6     0.56092       12.0110 ; qtot    0.075
         7            c6bf         1   UNL        c6         7     0.26209       12.0110 ; qtot    0.337
         8            n7bf         1   UNL        n7         8    -0.59739       14.0070 ; qtot   -0.260
         9            c8bf         1   UNL        c8         9     0.18226       12.0110 ; qtot   -0.078
        10            c9bf         1   UNL        c9        10     0.39640       12.0110 ; qtot    0.319
        11           n10bf         1   UNL       n10        11    -0.72108       14.0070 ; qtot   -0.402
        12           c11bf         1   UNL       c11        12     0.52256       12.0110 ; qtot    0.120
        13           o12bf         1   UNL       o12        13    -0.57505       15.9990 ; qtot   -0.455
        14           n13bf         1   UNL       n13        14    -0.13053       14.0070 ; qtot   -0.585
        15           c14bf         1   UNL       c14        15    -0.02070       12.0110 ; qtot   -0.606
        16           c15bf         1   UNL       c15        16    -0.12255       12.0110 ; qtot   -0.729
        17           c16bf         1   UNL       c16        17    -0.10174       12.0110 ; qtot   -0.830
        18           c17bf         1   UNL       c17        18     0.15694       12.0110 ; qtot   -0.674
        19           f18bf         1   UNL       f18        19    -0.18053       18.9980 ; qtot   -0.854
        20           c19bf         1   UNL       c19        20    -0.14076       12.0110 ; qtot   -0.995
        21           c20bf         1   UNL       c20        21    -0.08915       12.0110 ; qtot   -1.084
        22           c21bf         1   UNL       c21        22     0.19397       12.0110 ; qtot   -0.890
        23           c22bf         1   UNL       c22        23    -0.10824       12.0110 ; qtot   -0.998
        24           c23bf         1   UNL       c23        24    -0.08673       12.0110 ; qtot   -1.085
        25           c24bf         1   UNL       c24        25    -0.15786       12.0110 ; qtot   -1.243
        26           c25bf         1   UNL       c25        26     0.56195       12.0110 ; qtot   -0.681
        27           o26bf         1   UNL       o26        27    -0.46406       15.9990 ; qtot   -1.145
        28           n27bf         1   UNL       n27        28    -0.50815       14.0070 ; qtot   -1.653
        29           c28bf         1   UNL       c28        29     0.05544       12.0110 ; qtot   -1.598
        30           c29bf         1   UNL       c29        30     0.93448       12.0110 ; qtot   -0.663
        31           n30bf         1   UNL       n30        31    -0.73492       14.0070 ; qtot   -1.398
        32           n31bf         1   UNL       n31        32    -0.53850       14.0070 ; qtot   -1.937
        33           h32bf         1   UNL       h32        33     0.03283        1.0080 ; qtot   -1.904
        34           h33bf         1   UNL       h33        34     0.03283        1.0080 ; qtot   -1.871
        35           h34bf         1   UNL       h34        35     0.03283        1.0080 ; qtot   -1.838
        36           h35bf         1   UNL       h35        36     0.04507        1.0080 ; qtot   -1.793
        37           h36bf         1   UNL       h36        37     0.04507        1.0080 ; qtot   -1.748
        38           h37bf         1   UNL       h37        38     0.06484        1.0080 ; qtot   -1.683
        39           h38bf         1   UNL       h38        39     0.06484        1.0080 ; qtot   -1.618
        40           h39bf         1   UNL       h39        40     0.05009        1.0080 ; qtot   -1.568
        41           h40bf         1   UNL       h40        41     0.05518        1.0080 ; qtot   -1.513
        42           h41bf         1   UNL       h41        42     0.18200        1.0080 ; qtot   -1.331
        43           h42bf         1   UNL       h42        43     0.13823        1.0080 ; qtot   -1.193
        44           h43bf         1   UNL       h43        44     0.14109        1.0080 ; qtot   -1.052
        45           h44bf         1   UNL       h44        45     0.14648        1.0080 ; qtot   -0.905
        46           h45bf         1   UNL       h45        46     0.06359        1.0080 ; qtot   -0.842
        47           h46bf         1   UNL       h46        47     0.06359        1.0080 ; qtot   -0.778
        48           h47bf         1   UNL       h47        48     0.06359        1.0080 ; qtot   -0.714
        49           h48bf         1   UNL       h48        49     0.07752        1.0080 ; qtot   -0.637
        50           h49bf         1   UNL       h49        50     0.07752        1.0080 ; qtot   -0.559
        51           h50bf         1   UNL       h50        51     0.08769        1.0080 ; qtot   -0.472
        52           h51bf         1   UNL       h51        52     0.08769        1.0080 ; qtot   -0.384
        53           h52bf         1   UNL       h52        53     0.08040        1.0080 ; qtot   -0.304
        54           h53bf         1   UNL       h53        54     0.08040        1.0080 ; qtot   -0.223
        55           h54bf         1   UNL       h54        55     0.08040        1.0080 ; qtot   -0.143
        56           h55bf         1   UNL       h55        56     0.38213        1.0080 ; qtot    0.239
        57           h56bf         1   UNL       h56        57     0.38213        1.0080 ; qtot    0.621
        58           h57bf         1   UNL       h57        58     0.37855        1.0080 ; qtot    1.000

[ bonds ]
;       ai        aj funct               r               k
         1         2     1        0.142065   217032.461279
         1        33     1        0.109674   290476.294043
         1        34     1        0.109674   290476.294043
         1        35     1        0.109674   290476.294043
         2         3     1        0.141938   211090.358984
         3         4     1        0.152312   193827.924243
         3        36     1        0.109871   285446.632666
         3        37     1        0.109871   285446.632666
         4         5     1        0.144270   174454.438818
         4        38     1        0.109304   301699.674854
         4        39     1        0.109304   301699.674854
         5         6     1        0.135000   285575.288623
         6         7     1        0.141549   239752.955176
         6        11     1        0.133029   305619.825439
         7         8     1        0.132499   360539.039062
         7        40     1        0.108600   321907.930078
         8         9     1        0.134577   291943.017920
         9        10     1        0.139738   275366.471631
         9        12     1        0.150636   172131.085376
        10        11     1        0.134104   333491.843799
        10        41     1        0.108576   323728.062012
        12        13     1        0.123138   599485.379102
        12        14     1        0.136555   288405.030176
        14        15     1        0.140708   250089.662012
        14        42     1        0.101676   403581.785840
        15        16     1        0.140437   285545.205908
        15        21     1        0.140440   283551.957910
        16        17     1        0.139422   325964.295605
        16        43     1        0.108346   327103.557129
        17        18     1        0.138780   315415.043408
        17        44     1        0.108488   324368.226270
        18        19     1        0.136514   271203.029004
        18        20     1        0.139948   277433.470801
        20        21     1        0.140169   293375.470996
        20        22     1        0.153300   159211.287158
        21        45     1        0.108219   327274.119482
        22        23     1        0.153904   170097.501514
        22        24     1        0.154597   159003.734302
        22        32     1        0.151090   123905.671631
        23        46     1        0.109192   307706.232813
        23        47     1        0.109192   307706.232813
        23        48     1        0.109192   307706.232813
        24        25     1        0.153505   182215.421729
        24        49     1        0.109309   302056.530420
        24        50     1        0.109309   302056.530420
        25        26     1        0.151404   181461.004443
        25        51     1        0.109273   304892.119971
        25        52     1        0.109273   304892.119971
        26        27     1        0.121630   659961.186816
        26        28     1        0.143617   145537.965454
        28        29     1        0.147871   176146.565991
        28        30     1        0.136033   292620.874951
        29        53     1        0.109002   311176.240771
        29        54     1        0.109002   311176.240771
        29        55     1        0.109002   311176.240771
        30        31     1        0.134723   374586.849707
        30        32     1        0.133371   387815.251123
        31        56     1        0.101302   426201.025098
        31        57     1        0.101302   426201.025098
        32        58     1        0.101534   410200.417236

[ angles ]
;       ai        aj        ak funct           theta             cth
         1         2         3     1      113.261246      626.898623
         2         1        33     1      109.991867      469.113443
         2         1        34     1      109.991867      469.113443
         2         1        35     1      109.991867      469.113443
         2         3         4     1      110.720276      591.563372
         2         3        36     1      109.633926      463.836998
         2         3        37     1      109.633926      463.836998
         3         4         5     1      109.460655      597.104605
         3         4        38     1      110.526855      481.785978
         3         4        39     1      110.526855      481.785978
         4         3        36     1      109.326843      479.702342
         4         3        37     1      109.326843      479.702342
         4         5         6     1      117.801468      537.925036
         5         4        38     1      108.702881      462.288938
         5         4        39     1      108.702881      462.288938
         5         6         7     1      118.009804      557.068611
         5         6        11     1      119.912415      632.352073
         6         7         8     1      120.926285      772.033294
         6         7        40     1      120.619186      405.618070
         6        11        10     1      116.495361      918.967182
         7         6        11     1      121.886253      583.048597
         7         8         9     1      117.592323      739.894459
         8         7        40     1      118.297363      383.922955
         8         9        10     1      120.819031      564.260627
         8         9        12     1      118.528160      492.369578
         9        10        11     1      122.028564      662.836423
         9        10        41     1      120.284828      371.133173
         9        12        13     1      121.038818      683.784067
         9        12        14     1      112.914345      483.389070
        10         9        12     1      120.185524      556.533864
        11        10        41     1      117.149452      373.310722
        12        14        15     1      129.120605      472.099625
        12        14        42     1      113.907898      463.683488
        13        12        14     1      126.170670      588.522413
        14        15        16     1      120.521141      596.276692
        14        15        21     1      119.775291      497.981549
        15        14        42     1      117.111191      396.404952
        15        16        17     1      119.638100      722.910493
        15        16        43     1      120.081894      447.279662
        15        21        20     1      121.709335      693.518430
        15        21        45     1      118.818222      437.350387
        16        15        21     1      119.202782      561.258548
        16        17        18     1      119.391846      686.429264
        16        17        44     1      121.068405      427.908615
        17        16        43     1      120.210411      388.633881
        17        18        19     1      117.755432      535.673557
        17        18        20     1      122.702721      571.597758
        18        17        44     1      119.377853      442.986267
        18        20        21     1      116.710037      632.392039
        18        20        22     1      121.834885      555.197571
        19        18        20     1      119.690994      476.790696
        20        21        45     1      119.597122      392.263726
        20        22        23     1      111.336472      633.608499
        20        22        24     1      111.512962      574.760529
        20        22        32     1      106.575294      584.757732
        21        20        22     1      121.600685      438.897457
        22        23        46     1      110.651917      481.827732
        22        23        47     1      110.651917      481.827732
        22        23        48     1      110.651917      481.827732
        22        24        25     1      115.035133      590.854206
        22        24        49     1      108.276932      466.663509
        22        24        50     1      108.276932      466.663509
        22        32        30     1      130.766083      446.464932
        22        32        58     1      113.648643      389.761919
        23        22        24     1      110.755905      559.823235
        23        22        32     1      106.840347      606.055235
        24        22        32     1      109.892136      515.002224
        24        25        26     1      113.984032      668.371400
        24        25        51     1      110.073547      488.395589
        24        25        52     1      110.073547      488.395589
        25        24        49     1      109.197105      481.360977
        25        24        50     1      109.197105      481.360977
        25        26        27     1      122.784401      472.688830
        25        26        28     1      118.496948      545.816194
        26        25        51     1      107.534958      545.470422
        26        25        52     1      107.534958      545.470422
        26        28        29     1      115.937943      555.293462
        26        28        30     1      126.512131      598.820061
        27        26        28     1      118.780418      646.131642
        28        29        53     1      109.459351      465.351604
        28        29        54     1      109.459351      465.351604
        28        29        55     1      109.459351      465.351604
        28        30        31     1      118.257774      572.953331
        28        30        32     1      123.507690      569.859383
        29        28        30     1      118.292809      505.244463
        30        31        56     1      120.354752      436.297523
        30        31        57     1      120.354752      436.297523
        30        32        58     1      115.754044      481.506092
        31        30        32     1      118.792542      561.642435
        33         1        34     1      109.033142      343.069103
        33         1        35     1      109.033142      343.069103
        34         1        35     1      109.033142      343.069103
        36         3        37     1      108.195007      339.425308
        38         4        39     1      108.983719      340.107979
        46        23        47     1      108.371803      358.401360
        46        23        48     1      108.371803      358.401360
        47        23        48     1      108.371803      358.401328
        49        24        50     1      106.560852      360.691879
        51        25        52     1      107.098282      359.176953
        53        29        54     1      109.456215      347.846425
        53        29        55     1      109.456215      347.846425
        54        29        55     1      109.456215      347.846425
        56        31        57     1      116.566246      321.339736

[ dihedrals ] ; propers for gromacs 4.5 or higher, use funct 9
;       ai        aj        ak        al funct           phase               k        pn
         1         2         3         4     9        0.000000        0.699085         1
         1         2         3         4     9      180.000000       -0.368834         2
         1         2         3         4     9        0.000000        0.969894         3
         1         2         3         4     9      180.000000       -0.055673         4
         1         2         3        36     9        0.000000       -0.070384         1
         1         2         3        36     9      180.000000        0.234954         2
         1         2         3        36     9        0.000000        1.392632         3
         1         2         3        36     9      180.000000        0.148731         4
         1         2         3        37     9        0.000000       -0.070384         1
         1         2         3        37     9      180.000000        0.234954         2
         1         2         3        37     9        0.000000        1.392632         3
         1         2         3        37     9      180.000000        0.148731         4
         2         3         4         5     9        0.000000       -2.250495         1
         2         3         4         5     9      180.000000       -2.325488         2
         2         3         4         5     9        0.000000        0.475662         3
         2         3         4         5     9      180.000000       -0.006985         4
         2         3         4        38     9        0.000000        0.174095         1
         2         3         4        38     9      180.000000        0.207715         2
         2         3         4        38     9        0.000000        0.602955         3
         2         3         4        38     9      180.000000        0.094469         4
         2         3         4        39     9        0.000000        0.174095         1
         2         3         4        39     9      180.000000        0.207715         2
         2         3         4        39     9        0.000000        0.602955         3
         2         3         4        39     9      180.000000        0.094469         4
         3         2         1        33     9        0.000000       -0.028199         1
         3         2         1        33     9      180.000000        0.124135         2
         3         2         1        33     9        0.000000        1.062661         3
         3         2         1        33     9      180.000000        0.026208         4
         3         2         1        34     9        0.000000       -0.028199         1
         3         2         1        34     9      180.000000        0.124135         2
         3         2         1        34     9        0.000000        1.062661         3
         3         2         1        34     9      180.000000        0.026208         4
         3         2         1        35     9        0.000000       -0.028199         1
         3         2         1        35     9      180.000000        0.124135         2
         3         2         1        35     9        0.000000        1.062661         3
         3         2         1        35     9      180.000000        0.026208         4
         3         4         5         6     9        0.000000       -0.780117         1
         3         4         5         6     9      180.000000       -0.262565         2
         3         4         5         6     9        0.000000        0.170139         3
         3         4         5         6     9      180.000000        0.082154         4
         4         5         6         7     9        0.000000        0.728689         1
         4         5         6         7     9      180.000000        6.828646         2
         4         5         6         7     9        0.000000        0.138394         3
         4         5         6         7     9      180.000000        0.139932         4
         4         5         6        11     9        0.000000        1.185716         1
         4         5         6        11     9      180.000000        7.725541         2
         4         5         6        11     9        0.000000        0.572263         3
         4         5         6        11     9      180.000000       -0.058438         4
         5         4         3        36     9        0.000000        0.192073         1
         5         4         3        36     9      180.000000        0.238807         2
         5         4         3        36     9        0.000000        0.616351         3
         5         4         3        36     9      180.000000        0.038212         4
         5         4         3        37     9        0.000000        0.192073         1
         5         4         3        37     9      180.000000        0.238807         2
         5         4         3        37     9        0.000000        0.616351         3
         5         4         3        37     9      180.000000        0.038212         4
         5         6         7         8     9        0.000000       -0.316199         1
         5         6         7         8     9      180.000000       11.680001         2
         5         6         7         8     9        0.000000        0.389725         3
         5         6         7         8     9      180.000000       -0.693301         4
         5         6         7        40     9        0.000000       -0.111274         1
         5         6         7        40     9      180.000000       10.167204         2
         5         6         7        40     9        0.000000       -0.098551         3
         5         6         7        40     9      180.000000       -0.031637         4
         5         6        11        10     9        0.000000        1.371391         1
         5         6        11        10     9      180.000000       25.097588         2
         5         6        11        10     9        0.000000        1.201012         3
         5         6        11        10     9      180.000000       -0.871529         4
         6         5         4        38     9        0.000000        0.499718         1
         6         5         4        38     9      180.000000        0.077855         2
         6         5         4        38     9        0.000000        0.242811         3
         6         5         4        38     9      180.000000        0.003349         4
         6         5         4        39     9        0.000000        0.499718         1
         6         5         4        39     9      180.000000        0.077855         2
         6         5         4        39     9        0.000000        0.242811         3
         6         5         4        39     9      180.000000        0.003349         4
         6         7         8         9     9        0.000000       -0.278349         1
         6         7         8         9     9      180.000000       24.524407         2
         6         7         8         9     9        0.000000       -0.702496         3
         6         7         8         9     9      180.000000       -0.488936         4
         6        11        10         9     9        0.000000       -0.031751         1
         6        11        10         9     9      180.000000       21.938135         2
         6        11        10         9     9        0.000000       -1.027442         3
         6        11        10         9     9      180.000000       -0.478038         4
         6        11        10        41     9        0.000000        0.795405         1
         6        11        10        41     9      180.000000       18.162976         2
         6        11        10        41     9        0.000000        0.317890         3
         6        11        10        41     9      180.000000       -0.202015         4
         7         6        11        10     9        0.000000        0.264071         1
         7         6        11        10     9      180.000000       17.929972         2
         7         6        11        10     9        0.000000        0.363920         3
         7         6        11        10     9      180.000000       -0.294153         4
         7         8         9        10     9        0.000000       -0.658664         1
         7         8         9        10     9      180.000000       20.704287         2
         7         8         9        10     9        0.000000       -0.675973         3
         7         8         9        10     9      180.000000       -0.107471         4
         7         8         9        12     9        0.000000        0.634217         1
         7         8         9        12     9      180.000000       20.017523         2
         7         8         9        12     9        0.000000        0.872432         3
         7         8         9        12     9      180.000000       -0.865466         4
         8         7         6        11     9        0.000000       -1.493807         1
         8         7         6        11     9      180.000000        9.201457         2
         8         7         6        11     9        0.000000        0.097669         3
         8         7         6        11     9      180.000000       -0.704460         4
         8         9        10        11     9        0.000000       -0.349408         1
         8         9        10        11     9      180.000000       16.303012         2
         8         9        10        11     9        0.000000       -0.059212         3
         8         9        10        11     9      180.000000       -0.699415         4
         8         9        10        41     9        0.000000        0.137933         1
         8         9        10        41     9      180.000000       12.095593         2
         8         9        10        41     9        0.000000       -0.103619         3
         8         9        10        41     9      180.000000       -0.287737         4
         8         9        12        13     9        0.000000       -4.067852         1
         8         9        12        13     9      180.000000        4.651405         2
         8         9        12        13     9        0.000000        0.557911         3
         8         9        12        13     9      180.000000        0.106111         4
         8         9        12        14     9        0.000000        1.591220         1
         8         9        12        14     9      180.000000        3.808573         2
         8         9        12        14     9        0.000000        0.516892         3
         8         9        12        14     9      180.000000       -0.202257         4
         9         8         7        40     9        0.000000        0.640966         1
         9         8         7        40     9      180.000000       21.460712         2
         9         8         7        40     9        0.000000        0.188942         3
         9         8         7        40     9      180.000000       -0.515198         4
         9        12        14        15     9        0.000000        2.424072         1
         9        12        14        15     9      180.000000        8.538221         2
         9        12        14        15     9        0.000000        0.447933         3
         9        12        14        15     9      180.000000       -0.764471         4
         9        12        14        42     9        0.000000        0.686873         1
         9        12        14        42     9      180.000000        7.657136         2
         9        12        14        42     9        0.000000       -0.021098         3
         9        12        14        42     9      180.000000        0.356070         4
        10         9        12        13     9        0.000000        1.442798         1
        10         9        12        13     9      180.000000        4.344900         2
        10         9        12        13     9        0.000000       -0.634888         3
        10         9        12        13     9      180.000000        0.322917         4
        10         9        12        14     9        0.000000       -0.407241         1
        10         9        12        14     9      180.000000        3.554716         2
        10         9        12        14     9        0.000000       -0.255985         3
        10         9        12        14     9      180.000000       -0.047805         4
        11         6         7        40     9        0.000000       -0.376081         1
        11         6         7        40     9      180.000000        8.087020         2
        11         6         7        40     9        0.000000       -0.260095         3
        11         6         7        40     9      180.000000       -0.169623         4
        11        10         9        12     9        0.000000       -0.160520         1
        11        10         9        12     9      180.000000       12.886722         2
        11        10         9        12     9        0.000000        0.109800         3
        11        10         9        12     9      180.000000       -0.613505         4
        12         9        10        41     9        0.000000        0.171151         1
        12         9        10        41     9      180.000000       11.100510         2
        12         9        10        41     9        0.000000       -0.370178         3
        12         9        10        41     9      180.000000        0.036745         4
        12        14        15        16     9        0.000000        0.161103         1
        12        14        15        16     9      180.000000        2.536245         2
        12        14        15        16     9        0.000000        0.092185         3
        12        14        15        16     9      180.000000        0.056337         4
        12        14        15        21     9        0.000000        0.019832         1
        12        14        15        21     9      180.000000        2.545110         2
        12        14        15        21     9        0.000000        0.038621         3
        12        14        15        21     9      180.000000        0.049432         4
        13        12        14        15     9        0.000000       -0.957605         1
        13        12        14        15     9      180.000000       11.032088         2
        13        12        14        15     9        0.000000        0.344121         3
        13        12        14        15     9      180.000000       -0.858982         4
        13        12        14        42     9        0.000000       -0.175428         1
        13        12        14        42     9      180.000000       11.058967         2
        13        12        14        42     9        0.000000        0.301664         3
        13        12        14        42     9      180.000000        0.828428         4
        14        15        16        17     9        0.000000        0.241783         1
        14        15        16        17     9      180.000000       18.155496         2
        14        15        16        17     9        0.000000        0.032081         3
        14        15        16        17     9      180.000000       -0.301984         4
        14        15        16        43     9        0.000000       -0.012694         1
        14        15        16        43     9      180.000000       14.004942         2
        14        15        16        43     9        0.000000       -0.157036         3
        14        15        16        43     9      180.000000        0.222373         4
        14        15        21        20     9        0.000000        0.036851         1
        14        15        21        20     9      180.000000       17.038222         2
        14        15        21        20     9        0.000000       -0.206145         3
        14        15        21        20     9      180.000000       -0.319323         4
        14        15        21        45     9        0.000000       -0.131372         1
        14        15        21        45     9      180.000000       13.757958         2
        14        15        21        45     9        0.000000       -0.266693         3
        14        15        21        45     9      180.000000        0.243080         4
        15        16        17        18     9        0.000000       -0.034022         1
        15        16        17        18     9      180.000000       18.529701         2
        15        16        17        18     9        0.000000       -1.741859         3
        15        16        17        18     9      180.000000       -0.385107         4
        15        16        17        44     9        0.000000        0.115109         1
        15        16        17        44     9      180.000000       14.184139         2
        15        16        17        44     9        0.000000       -0.489164         3
        15        16        17        44     9      180.000000        0.089101         4
        15        21        20        18     9        0.000000       -0.202575         1
        15        21        20        18     9      180.000000       18.567972         2
        15        21        20        18     9        0.000000       -1.766528         3
        15        21        20        18     9      180.000000       -0.382034         4
        15        21        20        22     9        0.000000        0.409222         1
        15        21        20        22     9      180.000000       15.226608         2
        15        21        20        22     9        0.000000        0.031869         3
        15        21        20        22     9      180.000000       -0.305197         4
        16        15        14        42     9        0.000000        0.048969         1
        16        15        14        42     9      180.000000        2.574109         2
        16        15        14        42     9        0.000000        0.119311         3
        16        15        14        42     9      180.000000        0.332637         4
        16        15        21        20     9        0.000000        0.061058         1
        16        15        21        20     9      180.000000       15.825642         2
        16        15        21        20     9        0.000000       -1.290457         3
        16        15        21        20     9      180.000000       -0.261257         4
        16        15        21        45     9        0.000000        0.100883         1
        16        15        21        45     9      180.000000       12.366594         2
        16        15        21        45     9        0.000000       -0.620673         3
        16        15        21        45     9      180.000000        0.136124         4
        16        17        18        19     9        0.000000        0.456998         1
        16        17        18        19     9      180.000000       23.097809         2
        16        17        18        19     9        0.000000        0.582943         3
        16        17        18        19     9      180.000000       -0.502663         4
        16        17        18        20     9        0.000000       -0.122342         1
        16        17        18        20     9      180.000000       16.712517         2
        16        17        18        20     9        0.000000       -1.306041         3
        16        17        18        20     9      180.000000       -0.279389         4
        17        16        15        21     9        0.000000        0.035605         1
        17        16        15        21     9      180.000000       16.816548         2
        17        16        15        21     9        0.000000       -1.036206         3
        17        16        15        21     9      180.000000       -0.196259         4
        17        18        20        21     9        0.000000       -0.209521         1
        17        18        20        21     9      180.000000       17.154025         2
        17        18        20        21     9        0.000000       -1.093190         3
        17        18        20        21     9      180.000000       -0.299179         4
        17        18        20        22     9        0.000000        0.050664         1
        17        18        20        22     9      180.000000       12.342592         2
        17        18        20        22     9        0.000000       -0.052936         3
        17        18        20        22     9      180.000000       -0.227340         4
        18        17        16        43     9        0.000000        0.224993         1
        18        17        16        43     9      180.000000       14.795039         2
        18        17        16        43     9        0.000000       -0.455377         3
        18        17        16        43     9      180.000000        0.127877         4
        18        20        21        45     9        0.000000        0.130069         1
        18        20        21        45     9      180.000000       14.175726         2
        18        20        21        45     9        0.000000       -0.549682         3
        18        20        21        45     9      180.000000        0.155720         4
        18        20        22        23     9        0.000000        0.323785         1
        18        20        22        23     9      180.000000        0.612960         2
        18        20        22        23     9        0.000000        0.161184         3
        18        20        22        23     9      180.000000        0.104042         4
        18        20        22        24     9        0.000000        0.079099         1
        18        20        22        24     9      180.000000       -0.022275         2
        18        20        22        24     9        0.000000        0.306385         3
        18        20        22        24     9      180.000000        0.089014         4
        18        20        22        32     9        0.000000        1.873900         1
        18        20        22        32     9      180.000000       -0.917360         2
        18        20        22        32     9        0.000000        0.252219         3
        18        20        22        32     9      180.000000        0.227946         4
        19        18        17        44     9        0.000000        0.066046         1
        19        18        17        44     9      180.000000       16.505644         2
        19        18        17        44     9        0.000000        0.278437         3
        19        18        17        44     9      180.000000        0.194758         4
        19        18        20        21     9        0.000000        0.327241         1
        19        18        20        21     9      180.000000       23.184142         2
        19        18        20        21     9        0.000000        0.266650         3
        19        18        20        21     9      180.000000       -0.749377         4
        19        18        20        22     9        0.000000        0.335181         1
        19        18        20        22     9      180.000000       16.721601         2
        19        18        20        22     9        0.000000        0.503620         3
        19        18        20        22     9      180.000000       -0.476435         4
        20        18        17        44     9        0.000000        0.019646         1
        20        18        17        44     9      180.000000       12.772327         2
        20        18        17        44     9        0.000000       -0.530561         3
        20        18        17        44     9      180.000000        0.122106         4
        20        22        23        46     9        0.000000        0.026183         1
        20        22        23        46     9      180.000000       -0.019489         2
        20        22        23        46     9        0.000000        0.553793         3
        20        22        23        46     9      180.000000       -0.014244         4
        20        22        23        47     9        0.000000        0.026183         1
        20        22        23        47     9      180.000000       -0.019489         2
        20        22        23        47     9        0.000000        0.553793         3
        20        22        23        47     9      180.000000       -0.014244         4
        20        22        23        48     9        0.000000        0.026183         1
        20        22        23        48     9      180.000000       -0.019489         2
        20        22        23        48     9        0.000000        0.553793         3
        20        22        23        48     9      180.000000       -0.014244         4
        20        22        24        25     9        0.000000       -1.359703         1
        20        22        24        25     9      180.000000        0.907635         2
        20        22        24        25     9        0.000000        0.300714         3
        20        22        24        25     9      180.000000        0.142439         4
        20        22        24        49     9        0.000000        0.096813         1
        20        22        24        49     9      180.000000       -0.126372         2
        20        22        24        49     9        0.000000        0.275554         3
        20        22        24        49     9      180.000000       -0.040780         4
        20        22        24        50     9        0.000000        0.096813         1
        20        22        24        50     9      180.000000       -0.126372         2
        20        22        24        50     9        0.000000        0.275554         3
        20        22        24        50     9      180.000000       -0.040780         4
        20        22        32        30     9        0.000000       -2.160016         1
        20        22        32        30     9      180.000000       -1.113971         2
        20        22        32        30     9        0.000000        0.134320         3
        20        22        32        30     9      180.000000       -0.187414         4
        20        22        32        58     9        0.000000        1.652839         1
        20        22        32        58     9      180.000000       -1.187107         2
        20        22        32        58     9        0.000000       -0.173641         3
        20        22        32        58     9      180.000000       -0.123919         4
        21        15        14        42     9        0.000000        0.418473         1
        21        15        14        42     9      180.000000        2.728428         2
        21        15        14        42     9        0.000000        0.128365         3
        21        15        14        42     9      180.000000        0.318439         4
        21        15        16        43     9        0.000000        0.082935         1
        21        15        16        43     9      180.000000       13.240860         2
        21        15        16        43     9        0.000000       -0.383421         3
        21        15        16        43     9      180.000000        0.085519         4
        21        20        22        23     9        0.000000       -0.276870         1
        21        20        22        23     9      180.000000        0.915143         2
        21        20        22        23     9        0.000000       -0.332350         3
        21        20        22        23     9      180.000000        0.243910         4
        21        20        22        24     9        0.000000        0.020517         1
        21        20        22        24     9      180.000000        0.445889         2
        21        20        22        24     9        0.000000       -0.206640         3
        21        20        22        24     9      180.000000        0.172333         4
        21        20        22        32     9        0.000000        0.687705         1
        21        20        22        32     9      180.000000        0.972641         2
        21        20        22        32     9        0.000000       -0.348448         3
        21        20        22        32     9      180.000000        0.099018         4
        22        20        21        45     9        0.000000       -0.040448         1
        22        20        21        45     9      180.000000       13.179625         2
        22        20        21        45     9        0.000000       -0.319502         3
        22        20        21        45     9      180.000000        0.053613         4
        22        24        25        26     9        0.000000        5.929282         1
        22        24        25        26     9      180.000000       -0.159420         2
        22        24        25        26     9        0.000000       -0.875461         3
        22        24        25        26     9      180.000000       -0.357524         4
        22        24        25        51     9        0.000000       -0.131590         1
        22        24        25        51     9      180.000000       -0.099631         2
        22        24        25        51     9        0.000000        0.064025         3
        22        24        25        51     9      180.000000        0.113415         4
        22        24        25        52     9        0.000000       -0.131590         1
        22        24        25        52     9      180.000000       -0.099631         2
        22        24        25        52     9        0.000000        0.064025         3
        22        24        25        52     9      180.000000        0.113415         4
        22        32        30        28     9        0.000000        9.884788         1
        22        32        30        28     9      180.000000        9.175647         2
        22        32        30        28     9        0.000000       -0.890292         3
        22        32        30        28     9      180.000000       -0.613733         4
        22        32        30        31     9        0.000000        5.072178         1
        22        32        30        31     9      180.000000       10.723790         2
        22        32        30        31     9        0.000000       -0.198142         3
        22        32        30        31     9      180.000000       -1.574708         4
        23        22        24        25     9        0.000000       -1.314158         1
        23        22        24        25     9      180.000000        1.337922         2
        23        22        24        25     9        0.000000        0.253982         3
        23        22        24        25     9      180.000000        0.061415         4
        23        22        24        49     9        0.000000        0.023291         1
        23        22        24        49     9      180.000000       -0.106277         2
        23        22        24        49     9        0.000000        0.323909         3
        23        22        24        49     9      180.000000       -0.014294         4
        23        22        24        50     9        0.000000        0.023291         1
        23        22        24        50     9      180.000000       -0.106277         2
        23        22        24        50     9        0.000000        0.323909         3
        23        22        24        50     9      180.000000       -0.014294         4
        23        22        32        30     9        0.000000       -2.827363         1
        23        22        32        30     9      180.000000        0.423431         2
        23        22        32        30     9        0.000000        0.139456         3
        23        22        32        30     9      180.000000       -0.197278         4
        23        22        32        58     9        0.000000       -1.114201         1
        23        22        32        58     9      180.000000        0.291184         2
        23        22        32        58     9        0.000000       -0.021508         3
        23        22        32        58     9      180.000000       -0.112097         4
        24        22        23        46     9        0.000000       -0.048882         1
        24        22        23        46     9      180.000000       -0.038488         2
        24        22        23        46     9        0.000000        0.401270         3
        24        22        23        46     9      180.000000        0.052785         4
        24        22        23        47     9        0.000000       -0.048882         1
        24        22        23        47     9      180.000000       -0.038488         2
        24        22        23        47     9        0.000000        0.401270         3
        24        22        23        47     9      180.000000        0.052785         4
        24        22        23        48     9        0.000000       -0.048882         1
        24        22        23        48     9      180.000000       -0.038488         2
        24        22        23        48     9        0.000000        0.401270         3
        24        22        23        48     9      180.000000        0.052785         4
        24        22        32        30     9        0.000000        9.401794         1
        24        22        32        30     9      180.000000       -1.114619         2
        24        22        32        30     9        0.000000       -1.078608         3
        24        22        32        30     9      180.000000        0.425358         4
        24        22        32        58     9        0.000000       -0.904047         1
        24        22        32        58     9      180.000000       -1.299562         2
        24        22        32        58     9        0.000000       -0.139702         3
        24        22        32        58     9      180.000000        0.099523         4
        24        25        26        27     9        0.000000        4.888999         1
        24        25        26        27     9      180.000000       -3.558536         2
        24        25        26        27     9        0.000000       -0.338153         3
        24        25        26        27     9      180.000000        1.116787         4
        24        25        26        28     9        0.000000        1.913607         1
        24        25        26        28     9      180.000000        3.783574         2
        24        25        26        28     9        0.000000       -1.055708         3
        24        25        26        28     9      180.000000       -0.070547         4
        25        24        22        32     9        0.000000        9.511899         1
        25        24        22        32     9      180.000000        2.926033         2
        25        24        22        32     9        0.000000       -0.733311         3
        25        24        22        32     9      180.000000       -0.323491         4
        25        26        28        29     9        0.000000       -1.134546         1
        25        26        28        29     9      180.000000       11.256011         2
        25        26        28        29     9        0.000000       -0.019834         3
        25        26        28        29     9      180.000000       -0.085859         4
        25        26        28        30     9        0.000000        8.856579         1
        25        26        28        30     9      180.000000        7.177668         2
        25        26        28        30     9        0.000000       -1.914687         3
        25        26        28        30     9      180.000000       -0.239160         4
        26        25        24        49     9        0.000000       -0.195440         1
        26        25        24        49     9      180.000000       -0.158483         2
        26        25        24        49     9        0.000000       -0.042847         3
        26        25        24        49     9      180.000000        0.162339         4
        26        25        24        50     9        0.000000       -0.195440         1
        26        25        24        50     9      180.000000       -0.158483         2
        26        25        24        50     9        0.000000       -0.042847         3
        26        25        24        50     9      180.000000        0.162339         4
        26        28        29        53     9        0.000000       -0.002111         1
        26        28        29        53     9      180.000000       -0.020925         2
        26        28        29        53     9        0.000000       -0.207269         3
        26        28        29        53     9      180.000000        0.071289         4
        26        28        29        54     9        0.000000       -0.002111         1
        26        28        29        54     9      180.000000       -0.020925         2
        26        28        29        54     9        0.000000       -0.207269         3
        26        28        29        54     9      180.000000        0.071289         4
        26        28        29        55     9        0.000000       -0.002111         1
        26        28        29        55     9      180.000000       -0.020925         2
        26        28        29        55     9        0.000000       -0.207269         3
        26        28        29        55     9      180.000000        0.071289         4
        26        28        30        31     9        0.000000        3.847739         1
        26        28        30        31     9      180.000000        5.993237         2
        26        28        30        31     9        0.000000       -1.058998         3
        26        28        30        31     9      180.000000       -0.737928         4
        26        28        30        32     9        0.000000       10.079837         1
        26        28        30        32     9      180.000000        3.773926         2
        26        28        30        32     9        0.000000       -1.113517         3
        26        28        30        32     9      180.000000       -0.291901         4
        27        26        25        51     9        0.000000       -0.063763         1
        27        26        25        51     9      180.000000        0.675005         2
        27        26        25        51     9        0.000000       -0.264327         3
        27        26        25        51     9      180.000000        0.086222         4
        27        26        25        52     9        0.000000       -0.063763         1
        27        26        25        52     9      180.000000        0.675005         2
        27        26        25        52     9        0.000000       -0.264327         3
        27        26        25        52     9      180.000000        0.086222         4
        27        26        28        29     9        0.000000       -1.182242         1
        27        26        28        29     9      180.000000        9.745687         2
        27        26        28        29     9        0.000000       -0.518958         3
        27        26        28        29     9      180.000000        0.272219         4
        27        26        28        30     9        0.000000        8.006767         1
        27        26        28        30     9      180.000000        5.038266         2
        27        26        28        30     9        0.000000        0.129692         3
        27        26        28        30     9      180.000000        0.258541         4
        28        26        25        51     9        0.000000       -0.736642         1
        28        26        25        51     9      180.000000        0.384598         2
        28        26        25        51     9        0.000000       -0.302316         3
        28        26        25        51     9      180.000000        0.074284         4
        28        26        25        52     9        0.000000       -0.736642         1
        28        26        25        52     9      180.000000        0.384598         2
        28        26        25        52     9        0.000000       -0.302316         3
        28        26        25        52     9      180.000000        0.074284         4
        28        30        31        56     9        0.000000        3.610224         1
        28        30        31        56     9      180.000000        6.784349         2
        28        30        31        56     9        0.000000        0.133275         3
        28        30        31        56     9      180.000000       -0.514413         4
        28        30        31        57     9        0.000000        3.610224         1
        28        30        31        57     9      180.000000        6.784349         2
        28        30        31        57     9        0.000000        0.133275         3
        28        30        31        57     9      180.000000       -0.514413         4
        28        30        32        58     9        0.000000        2.288122         1
        28        30        32        58     9      180.000000       10.210274         2
        28        30        32        58     9        0.000000        0.053013         3
        28        30        32        58     9      180.000000       -0.556463         4
        29        28        30        31     9        0.000000       -1.728564         1
        29        28        30        31     9      180.000000       10.754038         2
        29        28        30        31     9        0.000000       -1.202519         3
        29        28        30        31     9      180.000000       -0.515544         4
        29        28        30        32     9        0.000000       -2.543254         1
        29        28        30        32     9      180.000000       10.153213         2
        29        28        30        32     9        0.000000       -1.013566         3
        29        28        30        32     9      180.000000       -0.183279         4
        30        28        29        53     9        0.000000       -0.176437         1
        30        28        29        53     9      180.000000        0.098234         2
        30        28        29        53     9        0.000000       -0.332138         3
        30        28        29        53     9      180.000000        0.025059         4
        30        28        29        54     9        0.000000       -0.176437         1
        30        28        29        54     9      180.000000        0.098234         2
        30        28        29        54     9        0.000000       -0.332138         3
        30        28        29        54     9      180.000000        0.025059         4
        30        28        29        55     9        0.000000       -0.176437         1
        30        28        29        55     9      180.000000        0.098234         2
        30        28        29        55     9        0.000000       -0.332138         3
        30        28        29        55     9      180.000000        0.025059         4
        31        30        32        58     9        0.000000        0.468721         1
        31        30        32        58     9      180.000000       13.277688         2
        31        30        32        58     9        0.000000        1.146683         3
        31        30        32        58     9      180.000000       -1.666967         4
        32        22        23        46     9        0.000000       -0.146318         1
        32        22        23        46     9      180.000000       -0.078560         2
        32        22        23        46     9        0.000000        0.435041         3
        32        22        23        46     9      180.000000        0.024773         4
        32        22        23        47     9        0.000000       -0.146318         1
        32        22        23        47     9      180.000000       -0.078560         2
        32        22        23        47     9        0.000000        0.435041         3
        32        22        23        47     9      180.000000        0.024773         4
        32        22        23        48     9        0.000000       -0.146318         1
        32        22        23        48     9      180.000000       -0.078560         2
        32        22        23        48     9        0.000000        0.435041         3
        32        22        23        48     9      180.000000        0.024773         4
        32        22        24        49     9        0.000000       -0.776244         1
        32        22        24        49     9      180.000000       -0.552502         2
        32        22        24        49     9        0.000000       -0.014213         3
        32        22        24        49     9      180.000000        0.287103         4
        32        22        24        50     9        0.000000       -0.776244         1
        32        22        24        50     9      180.000000       -0.552502         2
        32        22        24        50     9        0.000000       -0.014213         3
        32        22        24        50     9      180.000000        0.287103         4
        32        30        31        56     9        0.000000       -1.369708         1
        32        30        31        56     9      180.000000        7.469598         2
        32        30        31        56     9        0.000000       -0.025897         3
        32        30        31        56     9      180.000000       -0.564360         4
        32        30        31        57     9        0.000000       -1.369708         1
        32        30        31        57     9      180.000000        7.469598         2
        32        30        31        57     9        0.000000       -0.025897         3
        32        30        31        57     9      180.000000       -0.564360         4
        36         3         4        38     9        0.000000       -0.033985         1
        36         3         4        38     9      180.000000       -0.001302         2
        36         3         4        38     9        0.000000        0.746465         3
        36         3         4        38     9      180.000000       -0.037815         4
        36         3         4        39     9        0.000000       -0.033985         1
        36         3         4        39     9      180.000000       -0.001302         2
        36         3         4        39     9        0.000000        0.746465         3
        36         3         4        39     9      180.000000       -0.037815         4
        37         3         4        38     9        0.000000       -0.033985         1
        37         3         4        38     9      180.000000       -0.001302         2
        37         3         4        38     9        0.000000        0.746465         3
        37         3         4        38     9      180.000000       -0.037815         4
        37         3         4        39     9        0.000000       -0.033985         1
        37         3         4        39     9      180.000000       -0.001302         2
        37         3         4        39     9        0.000000        0.746465         3
        37         3         4        39     9      180.000000       -0.037815         4
        43        16        17        44     9        0.000000       -0.097174         1
        43        16        17        44     9      180.000000       11.988980         2
        43        16        17        44     9        0.000000       -0.733072         3
        43        16        17        44     9      180.000000        0.259295         4
        49        24        25        51     9        0.000000        0.092626         1
        49        24        25        51     9      180.000000        0.047768         2
        49        24        25        51     9        0.000000        0.390155         3
        49        24        25        51     9      180.000000       -0.008068         4
        49        24        25        52     9        0.000000        0.092626         1
        49        24        25        52     9      180.000000        0.047768         2
        49        24        25        52     9        0.000000        0.390155         3
        49        24        25        52     9      180.000000       -0.008068         4
        50        24        25        51     9        0.000000        0.092626         1
        50        24        25        51     9      180.000000        0.047768         2
        50        24        25        51     9        0.000000        0.390155         3
        50        24        25        51     9      180.000000       -0.008068         4
        50        24        25        52     9        0.000000        0.092626         1
        50        24        25        52     9      180.000000        0.047768         2
        50        24        25        52     9        0.000000        0.390155         3
        50        24        25        52     9      180.000000       -0.008068         4

[ dihedrals ] ; impropers
;       ai        aj        ak        al funct           phase               k        pn
         6         5         7        11     4      180.000000       18.191292         2
         6         7        11         5     4      180.000000       18.191292         2
         6        11         5         7     4      180.000000       18.191292         2
         7         6         8        40     4      180.000000        2.264297         2
         7         8        40         6     4      180.000000        2.264297         2
         7        40         6         8     4      180.000000        2.264297         2
        10         9        11        41     4      180.000000        7.246761         2
        10        11        41         9     4      180.000000        7.246761         2
        10        41         9        11     4      180.000000        7.246761         2
        12         9        13        14     4      180.000000       27.893333         2
        12        13        14         9     4      180.000000       27.893333         2
        12        14         9        13     4      180.000000       27.893333         2
        26        25        27        28     4      180.000000        5.578667         2
        26        27        28        25     4      180.000000        5.578667         2
        26        28        25        27     4      180.000000        5.578667         2

[ pairs ]
;       ai        aj funct
         1         4     1
         1        36     1
         1        37     1
         2         5     1
         2        38     1
         2        39     1
         3         6     1
         3        33     1
         3        34     1
         3        35     1
         4         7     1
         4        11     1
         5         8     1
         5        10     1
         5        36     1
         5        37     1
         5        40     1
         6         9     1
         6        38     1
         6        39     1
         6        41     1
         7        10     1
         7        12     1
         8        11     1
         8        13     1
         8        14     1
         8        41     1
         9        15     1
         9        40     1
         9        42     1
        10        13     1
        10        14     1
        11        12     1
        11        40     1
        12        16     1
        12        21     1
        12        41     1
        13        15     1
        13        42     1
        14        17     1
        14        20     1
        14        43     1
        14        45     1
        15        18     1
        15        22     1
        15        44     1
        16        19     1
        16        20     1
        16        42     1
        16        45     1
        17        21     1
        17        22     1
        18        23     1
        18        24     1
        18        32     1
        18        43     1
        18        45     1
        19        21     1
        19        22     1
        19        44     1
        20        25     1
        20        30     1
        20        44     1
        20        46     1
        20        47     1
        20        48     1
        20        49     1
        20        50     1
        20        58     1
        21        23     1
        21        24     1
        21        32     1
        21        42     1
        21        43     1
        22        26     1
        22        28     1
        22        31     1
        22        45     1
        22        51     1
        22        52     1
        23        25     1
        23        30     1
        23        49     1
        23        50     1
        23        58     1
        24        27     1
        24        28     1
        24        30     1
        24        46     1
        24        47     1
        24        48     1
        24        58     1
        25        29     1
        25        30     1
        25        32     1
        26        31     1
        26        32     1
        26        49     1
        26        50     1
        26        53     1
        26        54     1
        26        55     1
        27        29     1
        27        30     1
        27        51     1
        27        52     1
        28        51     1
        28        52     1
        28        56     1
        28        57     1
        28        58     1
        29        31     1
        29        32     1
        30        53     1
        30        54     1
        30        55     1
        31        58     1
        32        46     1
        32        47     1
        32        48     1
        32        49     1
        32        50     1
        32        56     1
        32        57     1
        36        38     1
        36        39     1
        37        38     1
        37        39     1
        43        44     1
        49        51     1
        49        52     1
        50        51     1
        50        52     1
