; ITP file created by ByteFF-ML, 2025-12-06 06:46:47.744357

[ atomtypes ]
;name           bonded.type        at.num        mass        charge   ptype           sigma         epsilon
 c0bf                                   6      0.0000       0.00000       A     3.39760e-01     4.50369e-01
 c1bf                                   6      0.0000       0.00000       A     3.31516e-01     4.13427e-01
 n2bf                                   7      0.0000       0.00000       A     3.38377e-01     3.90648e-01
 c3bf                                   6      0.0000       0.00000       A     3.31645e-01     4.12126e-01
 c4bf                                   6      0.0000       0.00000       A     3.31739e-01     4.15971e-01
 o5bf                                   8      0.0000       0.00000       A     3.15483e-01     3.08763e-01
 c6bf                                   6      0.0000       0.00000       A     3.31407e-01     4.14249e-01
 o7bf                                   8      0.0000       0.00000       A     3.04598e-01     6.10948e-01
 n8bf                                   7      0.0000       0.00000       A     3.27172e-01     4.89727e-01
 c9bf                                   6      0.0000       0.00000       A     3.31429e-01     4.13010e-01
 c10bf                                  6      0.0000       0.00000       A     3.31507e-01     4.12373e-01
 c11bf                                  6      0.0000       0.00000       A     3.31494e-01     4.13182e-01
 c12bf                                  6      0.0000       0.00000       A     3.31499e-01     4.11593e-01
 f13bf                                  9      0.0000       0.00000       A     3.03477e-01     3.48240e-01
 c14bf                                  6      0.0000       0.00000       A     3.31576e-01     4.14544e-01
 c15bf                                  6      0.0000       0.00000       A     3.31736e-01     4.15353e-01
 c16bf                                  6      0.0000       0.00000       A     3.39981e-01     4.50320e-01
 c17bf                                  6      0.0000       0.00000       A     3.39758e-01     4.48853e-01
 n18bf                                  7      0.0000       0.00000       A     3.26847e-01     6.46643e-01
 c19bf                                  6      0.0000       0.00000       A     3.31301e-01     4.10397e-01
 n20bf                                  7      0.0000       0.00000       A     3.36712e-01     4.77349e-01
 n21bf                                  7      0.0000       0.00000       A     3.18292e-01     7.06281e-01
 c22bf                                  6      0.0000       0.00000       A     3.39916e-01     4.52554e-01
 c23bf                                  6      0.0000       0.00000       A     3.31323e-01     4.14783e-01
 o24bf                                  8      0.0000       0.00000       A     3.04642e-01     6.16040e-01
 h25bf                                  1      0.0000       0.00000       A     2.60057e-01     8.77950e-02
 h26bf                                  1      0.0000       0.00000       A     2.60057e-01     8.77950e-02
 h27bf                                  1      0.0000       0.00000       A     2.60057e-01     8.77950e-02
 h28bf                                  1      0.0000       0.00000       A     2.53851e-01     6.77643e-02
 h29bf                                  1      0.0000       0.00000       A     1.10759e-01     4.02066e-02
 h30bf                                  1      0.0000       0.00000       A     2.62514e-01     6.73797e-02
 h31bf                                  1      0.0000       0.00000       A     2.62617e-01     6.73749e-02
 h32bf                                  1      0.0000       0.00000       A     2.62782e-01     6.80085e-02
 h33bf                                  1      0.0000       0.00000       A     2.59990e-01     8.73194e-02
 h34bf                                  1      0.0000       0.00000       A     2.59990e-01     8.73194e-02
 h35bf                                  1      0.0000       0.00000       A     2.59990e-01     8.73194e-02
 h36bf                                  1      0.0000       0.00000       A     1.10384e-01     3.90095e-02
 h37bf                                  1      0.0000       0.00000       A     1.10384e-01     3.90095e-02
 h38bf                                  1      0.0000       0.00000       A     2.42205e-01     8.61909e-02
 h39bf                                  1      0.0000       0.00000       A     2.42205e-01     8.61909e-02
 h40bf                                  1      0.0000       0.00000       A     2.42205e-01     8.61909e-02
 h41bf                                  1      0.0000       0.00000       A     1.10570e-01     4.04157e-02

[ moleculetype ]
;name             nrexcl
 8a                    3

[ atoms ]
;       nr            type      resi   res      atom      cgnr      charge          mass ; qtot
         1            c0bf         1   UNL        c0         1    -0.12009       12.0110 ; qtot   -0.120
         2            c1bf         1   UNL        c1         2     0.45308       12.0110 ; qtot    0.333
         3            n2bf         1   UNL        n2         3    -0.66313       14.0070 ; qtot   -0.330
         4            c3bf         1   UNL        c3         4     0.17432       12.0110 ; qtot   -0.156
         5            c4bf         1   UNL        c4         5     0.17151       12.0110 ; qtot    0.016
         6            o5bf         1   UNL        o5         6    -0.27061       15.9990 ; qtot   -0.255
         7            c6bf         1   UNL        c6         7     0.54317       12.0110 ; qtot    0.288
         8            o7bf         1   UNL        o7         8    -0.57011       15.9990 ; qtot   -0.282
         9            n8bf         1   UNL        n8         9    -0.14400       14.0070 ; qtot   -0.426
        10            c9bf         1   UNL        c9        10    -0.01509       12.0110 ; qtot   -0.441
        11           c10bf         1   UNL       c10        11    -0.12334       12.0110 ; qtot   -0.564
        12           c11bf         1   UNL       c11        12    -0.09395       12.0110 ; qtot   -0.658
        13           c12bf         1   UNL       c12        13     0.16381       12.0110 ; qtot   -0.494
        14           f13bf         1   UNL       f13        14    -0.17796       18.9980 ; qtot   -0.672
        15           c14bf         1   UNL       c14        15    -0.13168       12.0110 ; qtot   -0.804
        16           c15bf         1   UNL       c15        16    -0.08279       12.0110 ; qtot   -0.887
        17           c16bf         1   UNL       c16        17     0.07985       12.0110 ; qtot   -0.807
        18           c17bf         1   UNL       c17        18    -0.09013       12.0110 ; qtot   -0.897
        19           n18bf         1   UNL       n18        19    -0.63159       14.0070 ; qtot   -1.529
        20           c19bf         1   UNL       c19        20     0.94383       12.0110 ; qtot   -0.585
        21           n20bf         1   UNL       n20        21    -0.59191       14.0070 ; qtot   -1.177
        22           n21bf         1   UNL       n21        22    -0.59261       14.0070 ; qtot   -1.769
        23           c22bf         1   UNL       c22        23     0.07169       12.0110 ; qtot   -1.698
        24           c23bf         1   UNL       c23        24     0.54214       12.0110 ; qtot   -1.156
        25           o24bf         1   UNL       o24        25    -0.37895       15.9990 ; qtot   -1.535
        26           h25bf         1   UNL       h25        26     0.06762        1.0080 ; qtot   -1.467
        27           h26bf         1   UNL       h26        27     0.06762        1.0080 ; qtot   -1.399
        28           h27bf         1   UNL       h27        28     0.06762        1.0080 ; qtot   -1.332
        29           h28bf         1   UNL       h28        29     0.07439        1.0080 ; qtot   -1.257
        30           h29bf         1   UNL       h29        30     0.16693        1.0080 ; qtot   -1.090
        31           h30bf         1   UNL       h30        31     0.13810        1.0080 ; qtot   -0.952
        32           h31bf         1   UNL       h31        32     0.14141        1.0080 ; qtot   -0.811
        33           h32bf         1   UNL       h32        33     0.15047        1.0080 ; qtot   -0.660
        34           h33bf         1   UNL       h33        34     0.07042        1.0080 ; qtot   -0.590
        35           h34bf         1   UNL       h34        35     0.07042        1.0080 ; qtot   -0.520
        36           h35bf         1   UNL       h35        36     0.07042        1.0080 ; qtot   -0.449
        37           h36bf         1   UNL       h36        37     0.38402        1.0080 ; qtot   -0.065
        38           h37bf         1   UNL       h37        38     0.38402        1.0080 ; qtot    0.319
        39           h38bf         1   UNL       h38        39     0.08969        1.0080 ; qtot    0.409
        40           h39bf         1   UNL       h39        40     0.08969        1.0080 ; qtot    0.498
        41           h40bf         1   UNL       h40        41     0.08969        1.0080 ; qtot    0.588
        42           h41bf         1   UNL       h41        42     0.41201        1.0080 ; qtot    1.000

[ bonds ]
;       ai        aj funct               r               k
         1         2     1        0.148789   229730.456934
         1        26     1        0.109289   308044.088770
         1        27     1        0.109289   308044.088770
         1        28     1        0.109289   308044.088770
         2         3     1        0.129783   429332.845117
         2         6     1        0.137363   182369.934009
         3         4     1        0.139756   222769.755957
         4         5     1        0.136275   390767.289893
         4         7     1        0.148841   196903.703076
         5         6     1        0.136707   241123.838281
         5        29     1        0.107900   349950.332031
         7         8     1        0.122953   606537.298633
         7         9     1        0.137433   271568.490576
         9        10     1        0.140775   250515.340088
         9        30     1        0.101308   414501.147363
        10        11     1        0.140487   284493.077002
        10        16     1        0.140395   285297.061816
        11        12     1        0.139445   325177.037598
        11        31     1        0.108346   327116.070312
        12        13     1        0.138764   314481.483301
        12        32     1        0.108484   324632.203369
        13        14     1        0.136440   273896.479004
        13        15     1        0.139704   284812.290869
        15        16     1        0.139916   300810.906836
        15        17     1        0.152214   168512.745117
        16        33     1        0.108293   326798.133301
        17        18     1        0.153767   166501.008252
        17        19     1        0.148655   143933.890234
        17        24     1        0.154570   127648.901123
        18        34     1        0.109163   308958.368359
        18        35     1        0.109163   308958.368359
        18        36     1        0.109163   308958.368359
        19        20     1        0.133256   388039.237109
        19        42     1        0.101372   424026.412549
        20        21     1        0.133064   418457.535107
        20        22     1        0.135566   306947.908350
        21        37     1        0.101330   425081.325000
        21        38     1        0.101330   425081.325000
        22        23     1        0.146714   195444.487109
        22        24     1        0.142287   150670.324316
        23        39     1        0.109021   312395.586670
        23        40     1        0.109021   312395.586670
        23        41     1        0.109021   312395.586670
        24        25     1        0.120308   721943.581836

[ angles ]
;       ai        aj        ak funct           theta             cth
         1         2         3     1      129.348236      286.267325
         1         2         6     1      117.667992      674.202862
         2         1        26     1      110.181679      511.136289
         2         1        27     1      110.181679      511.136289
         2         1        28     1      110.181679      511.136289
         2         3         4     1      105.359398      383.256915
         2         6         5     1      105.020920      473.406742
         3         2         6     1      113.168663      221.144600
         3         4         5     1      108.891212      167.360000
         3         4         7     1      122.837975      452.071860
         4         5         6     1      107.719116      167.360000
         4         5        29     1      134.919556      254.180091
         4         7         8     1      122.009109      632.501210
         4         7         9     1      112.771118      477.817639
         5         4         7     1      128.091843      432.641439
         6         5        29     1      117.458046      458.975243
         7         9        10     1      129.308182      469.453981
         7         9        30     1      114.825600      457.222727
         8         7         9     1      125.539818      608.351531
         9        10        11     1      120.476906      610.853402
         9        10        16     1      119.799210      495.303377
        10         9        30     1      116.018509      427.398192
        10        11        12     1      119.752769      728.566389
        10        11        31     1      120.019859      446.306506
        10        16        15     1      121.190918      695.579594
        10        16        33     1      119.217140      433.391879
        11        10        16     1      119.155861      572.822007
        11        12        13     1      119.244949      696.794458
        11        12        32     1      121.068436      424.754718
        12        11        31     1      120.174316      387.529657
        12        13        14     1      118.472336      549.776042
        12        13        15     1      122.224182      567.978702
        13        12        32     1      119.539207      439.284599
        13        15        16     1      117.727783      647.029782
        13        15        17     1      120.931961      550.111217
        14        13        15     1      119.054161      484.999504
        15        16        33     1      119.615639      390.008927
        15        17        18     1      113.407486      615.903365
        15        17        19     1      111.269249      600.543241
        15        17        24     1      111.934433      574.899578
        16        15        17     1      121.004250      432.802610
        17        18        34     1      110.082191      481.458369
        17        18        35     1      110.082191      481.458369
        17        18        36     1      110.082191      481.458369
        17        19        20     1      111.828979      618.309025
        17        19        42     1      121.293442      371.055157
        17        24        22     1      106.590225      167.360000
        17        24        25     1      127.385330      365.947895
        18        17        19     1      110.438828      626.901432
        18        17        24     1      109.758812      624.225335
        19        17        24     1      100.861259      337.715599
        19        20        21     1      125.474426      616.890439
        19        20        22     1      111.359451      578.377605
        20        19        42     1      123.420799      427.645264
        20        21        37     1      121.315735      451.251033
        20        21        38     1      121.315735      451.251033
        20        22        23     1      126.571388      467.132881
        20        22        24     1      109.825668      828.553237
        21        20        22     1      123.759972      625.684461
        22        23        39     1      109.240211      484.420004
        22        23        40     1      109.240211      484.420004
        22        23        41     1      109.240211      484.420004
        22        24        25     1      124.686424      648.671244
        23        22        24     1      123.233604      530.506953
        26         1        27     1      108.775284      358.939810
        26         1        28     1      108.775284      358.939810
        27         1        28     1      108.775284      358.939810
        34        18        35     1      108.825966      356.972016
        34        18        36     1      108.825966      356.972016
        35        18        36     1      108.825966      356.972016
        37        21        38     1      117.429977      314.388120
        39        23        40     1      109.820786      349.271620
        39        23        41     1      109.820786      349.271588
        40        23        41     1      109.820786      349.271620

[ dihedrals ] ; propers for gromacs 4.5 or higher, use funct 9
;       ai        aj        ak        al funct           phase               k        pn
         1         2         3         4     9        0.000000        0.817778         1
         1         2         3         4     9      180.000000       28.587028         2
         1         2         3         4     9        0.000000        0.966640         3
         1         2         3         4     9      180.000000       -1.065762         4
         1         2         6         5     9        0.000000        0.743781         1
         1         2         6         5     9      180.000000       15.998275         2
         1         2         6         5     9        0.000000        0.620304         3
         1         2         6         5     9      180.000000       -0.841282         4
         2         3         4         5     9        0.000000       -0.228839         1
         2         3         4         5     9      180.000000       27.383385         2
         2         3         4         5     9        0.000000       -5.658729         3
         2         3         4         5     9      180.000000        0.212299         4
         2         3         4         7     9        0.000000        1.607508         1
         2         3         4         7     9      180.000000       15.819660         2
         2         3         4         7     9        0.000000        0.582862         3
         2         3         4         7     9      180.000000       -0.590920         4
         2         6         5         4     9        0.000000       -0.003561         1
         2         6         5         4     9      180.000000       22.269403         2
         2         6         5         4     9        0.000000       -5.225452         3
         2         6         5         4     9      180.000000        0.016653         4
         2         6         5        29     9        0.000000        1.370392         1
         2         6         5        29     9      180.000000        6.644264         2
         2         6         5        29     9        0.000000        0.361767         3
         2         6         5        29     9      180.000000        0.192151         4
         3         2         1        26     9        0.000000        0.009316         1
         3         2         1        26     9      180.000000       -0.078240         2
         3         2         1        26     9        0.000000        0.080536         3
         3         2         1        26     9      180.000000        0.004240         4
         3         2         1        27     9        0.000000        0.009316         1
         3         2         1        27     9      180.000000       -0.078240         2
         3         2         1        27     9        0.000000        0.080536         3
         3         2         1        27     9      180.000000        0.004240         4
         3         2         1        28     9        0.000000        0.009316         1
         3         2         1        28     9      180.000000       -0.078240         2
         3         2         1        28     9        0.000000        0.080536         3
         3         2         1        28     9      180.000000        0.004240         4
         3         2         6         5     9        0.000000       -0.217668         1
         3         2         6         5     9      180.000000       31.571097         2
         3         2         6         5     9        0.000000       -6.793984         3
         3         2         6         5     9      180.000000       -0.039070         4
         3         4         5         6     9        0.000000       -0.559599         1
         3         4         5         6     9      180.000000       38.820432         2
         3         4         5         6     9        0.000000       -8.577190         3
         3         4         5         6     9      180.000000       -0.169318         4
         3         4         5        29     9        0.000000        0.417364         1
         3         4         5        29     9      180.000000       17.537301         2
         3         4         5        29     9        0.000000       -0.166136         3
         3         4         5        29     9      180.000000       -0.702580         4
         3         4         7         8     9        0.000000       -2.974679         1
         3         4         7         8     9      180.000000        5.108117         2
         3         4         7         8     9        0.000000        0.259098         3
         3         4         7         8     9      180.000000        0.486391         4
         3         4         7         9     9        0.000000        1.806917         1
         3         4         7         9     9      180.000000        3.510253         2
         3         4         7         9     9        0.000000        0.517887         3
         3         4         7         9     9      180.000000       -0.197651         4
         4         3         2         6     9        0.000000       -0.147262         1
         4         3         2         6     9      180.000000       42.245757         2
         4         3         2         6     9        0.000000       -5.751621         3
         4         3         2         6     9      180.000000        0.200402         4
         4         7         9        10     9        0.000000        3.469189         1
         4         7         9        10     9      180.000000        8.035048         2
         4         7         9        10     9        0.000000        0.551157         3
         4         7         9        10     9      180.000000       -0.336066         4
         4         7         9        30     9        0.000000        1.697068         1
         4         7         9        30     9      180.000000        7.230793         2
         4         7         9        30     9        0.000000        0.193018         3
         4         7         9        30     9      180.000000        0.244114         4
         5         4         7         8     9        0.000000        1.931164         1
         5         4         7         8     9      180.000000        3.634550         2
         5         4         7         8     9        0.000000       -0.528080         3
         5         4         7         8     9      180.000000        0.674517         4
         5         4         7         9     9        0.000000       -0.307143         1
         5         4         7         9     9      180.000000        2.522787         2
         5         4         7         9     9        0.000000       -0.493165         3
         5         4         7         9     9      180.000000        0.041024         4
         6         2         1        26     9        0.000000        0.013941         1
         6         2         1        26     9      180.000000       -0.038716         2
         6         2         1        26     9        0.000000        0.278174         3
         6         2         1        26     9      180.000000        0.005855         4
         6         2         1        27     9        0.000000        0.013941         1
         6         2         1        27     9      180.000000       -0.038716         2
         6         2         1        27     9        0.000000        0.278174         3
         6         2         1        27     9      180.000000        0.005855         4
         6         2         1        28     9        0.000000        0.013941         1
         6         2         1        28     9      180.000000       -0.038716         2
         6         2         1        28     9        0.000000        0.278174         3
         6         2         1        28     9      180.000000        0.005855         4
         6         5         4         7     9        0.000000        0.567255         1
         6         5         4         7     9      180.000000       17.309264         2
         6         5         4         7     9        0.000000       -0.431551         3
         6         5         4         7     9      180.000000       -1.004157         4
         7         4         5        29     9        0.000000        0.116272         1
         7         4         5        29     9      180.000000       10.683485         2
         7         4         5        29     9        0.000000        0.003191         3
         7         4         5        29     9      180.000000       -0.161422         4
         7         9        10        11     9        0.000000        0.059328         1
         7         9        10        11     9      180.000000        2.554470         2
         7         9        10        11     9        0.000000        0.029117         3
         7         9        10        11     9      180.000000        0.236349         4
         7         9        10        16     9        0.000000       -0.095148         1
         7         9        10        16     9      180.000000        2.596188         2
         7         9        10        16     9        0.000000        0.020642         3
         7         9        10        16     9      180.000000        0.233874         4
         8         7         9        10     9        0.000000       -2.555462         1
         8         7         9        10     9      180.000000        8.729675         2
         8         7         9        10     9        0.000000        0.157792         3
         8         7         9        10     9      180.000000       -0.724711         4
         8         7         9        30     9        0.000000       -0.834146         1
         8         7         9        30     9      180.000000        9.421891         2
         8         7         9        30     9        0.000000        0.609519         3
         8         7         9        30     9      180.000000        0.323155         4
         9        10        11        12     9        0.000000        0.277427         1
         9        10        11        12     9      180.000000       17.645177         2
         9        10        11        12     9        0.000000       -0.007150         3
         9        10        11        12     9      180.000000       -0.265648         4
         9        10        11        31     9        0.000000        0.007058         1
         9        10        11        31     9      180.000000       13.723563         2
         9        10        11        31     9        0.000000       -0.227933         3
         9        10        11        31     9      180.000000        0.233418         4
         9        10        16        15     9        0.000000        0.124032         1
         9        10        16        15     9      180.000000       17.049532         2
         9        10        16        15     9        0.000000       -0.219302         3
         9        10        16        15     9      180.000000       -0.307134         4
         9        10        16        33     9        0.000000       -0.111381         1
         9        10        16        33     9      180.000000       13.780731         2
         9        10        16        33     9        0.000000       -0.288151         3
         9        10        16        33     9      180.000000        0.288775         4
        10        11        12        13     9        0.000000       -0.038763         1
        10        11        12        13     9      180.000000       18.484594         2
        10        11        12        13     9        0.000000       -1.858389         3
        10        11        12        13     9      180.000000       -0.374876         4
        10        11        12        32     9        0.000000        0.137505         1
        10        11        12        32     9      180.000000       14.097029         2
        10        11        12        32     9        0.000000       -0.496403         3
        10        11        12        32     9      180.000000        0.085187         4
        10        16        15        13     9        0.000000       -0.211690         1
        10        16        15        13     9      180.000000       18.424254         2
        10        16        15        13     9        0.000000       -1.877923         3
        10        16        15        13     9      180.000000       -0.404620         4
        10        16        15        17     9        0.000000        0.155916         1
        10        16        15        17     9      180.000000       14.964807         2
        10        16        15        17     9        0.000000       -0.134999         3
        10        16        15        17     9      180.000000       -0.234968         4
        11        10         9        30     9        0.000000       -0.073617         1
        11        10         9        30     9      180.000000        2.523230         2
        11        10         9        30     9        0.000000        0.099290         3
        11        10         9        30     9      180.000000        0.271545         4
        11        10        16        15     9        0.000000        0.115140         1
        11        10        16        15     9      180.000000       16.010893         2
        11        10        16        15     9        0.000000       -1.192614         3
        11        10        16        15     9      180.000000       -0.266208         4
        11        10        16        33     9        0.000000        0.079810         1
        11        10        16        33     9      180.000000       12.638877         2
        11        10        16        33     9        0.000000       -0.637139         3
        11        10        16        33     9      180.000000        0.133835         4
        11        12        13        14     9        0.000000        0.479803         1
        11        12        13        14     9      180.000000       23.510638         2
        11        12        13        14     9        0.000000        0.519034         3
        11        12        13        14     9      180.000000       -0.567393         4
        11        12        13        15     9        0.000000       -0.000203         1
        11        12        13        15     9      180.000000       16.780678         2
        11        12        13        15     9        0.000000       -1.253391         3
        11        12        13        15     9      180.000000       -0.310402         4
        12        11        10        16     9        0.000000        0.032099         1
        12        11        10        16     9      180.000000       16.553928         2
        12        11        10        16     9        0.000000       -1.066963         3
        12        11        10        16     9      180.000000       -0.143358         4
        12        13        15        16     9        0.000000       -0.149615         1
        12        13        15        16     9      180.000000       17.255185         2
        12        13        15        16     9        0.000000       -1.170540         3
        12        13        15        16     9      180.000000       -0.373975         4
        12        13        15        17     9        0.000000       -0.033453         1
        12        13        15        17     9      180.000000       12.579810         2
        12        13        15        17     9        0.000000       -0.170552         3
        12        13        15        17     9      180.000000       -0.144057         4
        13        12        11        31     9        0.000000        0.207989         1
        13        12        11        31     9      180.000000       14.869375         2
        13        12        11        31     9        0.000000       -0.480261         3
        13        12        11        31     9      180.000000        0.129364         4
        13        15        16        33     9        0.000000        0.073703         1
        13        15        16        33     9      180.000000       14.652773         2
        13        15        16        33     9        0.000000       -0.586512         3
        13        15        16        33     9      180.000000        0.110451         4
        13        15        17        18     9        0.000000        0.049175         1
        13        15        17        18     9      180.000000        0.994498         2
        13        15        17        18     9        0.000000        0.422901         3
        13        15        17        18     9      180.000000        0.074924         4
        13        15        17        19     9        0.000000        1.533166         1
        13        15        17        19     9      180.000000       -0.461769         2
        13        15        17        19     9        0.000000        0.357293         3
        13        15        17        19     9      180.000000        0.163375         4
        13        15        17        24     9        0.000000        1.139564         1
        13        15        17        24     9      180.000000       -0.358898         2
        13        15        17        24     9        0.000000        0.065220         3
        13        15        17        24     9      180.000000        0.137299         4
        14        13        12        32     9        0.000000        0.119791         1
        14        13        12        32     9      180.000000       16.654958         2
        14        13        12        32     9        0.000000        0.308637         3
        14        13        12        32     9      180.000000        0.191127         4
        14        13        15        16     9        0.000000        0.435976         1
        14        13        15        16     9      180.000000       22.862165         2
        14        13        15        16     9        0.000000        0.271213         3
        14        13        15        16     9      180.000000       -0.714410         4
        14        13        15        17     9        0.000000        0.455921         1
        14        13        15        17     9      180.000000       16.866938         2
        14        13        15        17     9        0.000000        0.474656         3
        14        13        15        17     9      180.000000       -0.449330         4
        15        13        12        32     9        0.000000       -0.023556         1
        15        13        12        32     9      180.000000       12.721595         2
        15        13        12        32     9        0.000000       -0.564623         3
        15        13        12        32     9      180.000000        0.142975         4
        15        17        18        34     9        0.000000       -0.061050         1
        15        17        18        34     9      180.000000        0.040303         2
        15        17        18        34     9        0.000000        0.637754         3
        15        17        18        34     9      180.000000        0.056714         4
        15        17        18        35     9        0.000000       -0.061050         1
        15        17        18        35     9      180.000000        0.040303         2
        15        17        18        35     9        0.000000        0.637754         3
        15        17        18        35     9      180.000000        0.056714         4
        15        17        18        36     9        0.000000       -0.061050         1
        15        17        18        36     9      180.000000        0.040303         2
        15        17        18        36     9        0.000000        0.637754         3
        15        17        18        36     9      180.000000        0.056714         4
        15        17        19        20     9        0.000000       -0.020483         1
        15        17        19        20     9      180.000000        0.198411         2
        15        17        19        20     9        0.000000        0.276196         3
        15        17        19        20     9      180.000000        0.183631         4
        15        17        19        42     9        0.000000        1.255777         1
        15        17        19        42     9      180.000000        0.271894         2
        15        17        19        42     9        0.000000        0.142494         3
        15        17        19        42     9      180.000000       -0.033935         4
        15        17        24        22     9        0.000000        0.515625         1
        15        17        24        22     9      180.000000        1.383856         2
        15        17        24        22     9        0.000000        0.314773         3
        15        17        24        22     9      180.000000        0.709418         4
        15        17        24        25     9        0.000000        0.717655         1
        15        17        24        25     9      180.000000        1.669794         2
        15        17        24        25     9        0.000000       -0.515925         3
        15        17        24        25     9      180.000000        0.329375         4
        16        10         9        30     9        0.000000        0.126612         1
        16        10         9        30     9      180.000000        2.755072         2
        16        10         9        30     9        0.000000        0.057626         3
        16        10         9        30     9      180.000000        0.211930         4
        16        10        11        31     9        0.000000        0.099956         1
        16        10        11        31     9      180.000000       13.006685         2
        16        10        11        31     9        0.000000       -0.436604         3
        16        10        11        31     9      180.000000        0.152801         4
        16        15        17        18     9        0.000000       -0.327120         1
        16        15        17        18     9      180.000000        1.122162         2
        16        15        17        18     9        0.000000       -0.228870         3
        16        15        17        18     9      180.000000        0.114497         4
        16        15        17        19     9        0.000000        0.514618         1
        16        15        17        19     9      180.000000        0.966113         2
        16        15        17        19     9        0.000000       -0.292407         3
        16        15        17        19     9      180.000000        0.119268         4
        16        15        17        24     9        0.000000       -0.607182         1
        16        15        17        24     9      180.000000       -0.238004         2
        16        15        17        24     9        0.000000       -0.097108         3
        16        15        17        24     9      180.000000        0.218987         4
        17        15        16        33     9        0.000000       -0.042872         1
        17        15        16        33     9      180.000000       12.740256         2
        17        15        16        33     9        0.000000       -0.410365         3
        17        15        16        33     9      180.000000        0.108723         4
        17        19        20        21     9        0.000000        2.198401         1
        17        19        20        21     9      180.000000       18.059896         2
        17        19        20        21     9        0.000000        0.789176         3
        17        19        20        21     9      180.000000       -1.913777         4
        17        19        20        22     9        0.000000       -1.367833         1
        17        19        20        22     9      180.000000       22.403247         2
        17        19        20        22     9        0.000000       -1.367707         3
        17        19        20        22     9      180.000000       -2.690360         4
        17        24        22        20     9        0.000000       -3.215038         1
        17        24        22        20     9      180.000000       11.505432         2
        17        24        22        20     9        0.000000       -1.456301         3
        17        24        22        20     9      180.000000       -0.403047         4
        17        24        22        23     9        0.000000       -1.302992         1
        17        24        22        23     9      180.000000        6.283168         2
        17        24        22        23     9        0.000000        0.203360         3
        17        24        22        23     9      180.000000       -0.119801         4
        18        17        19        20     9        0.000000       -2.282495         1
        18        17        19        20     9      180.000000        1.439377         2
        18        17        19        20     9        0.000000        0.287212         3
        18        17        19        20     9      180.000000        0.161398         4
        18        17        19        42     9        0.000000       -0.523429         1
        18        17        19        42     9      180.000000        0.689486         2
        18        17        19        42     9        0.000000        0.185998         3
        18        17        19        42     9      180.000000       -0.006875         4
        18        17        24        22     9        0.000000       -1.509550         1
        18        17        24        22     9      180.000000        1.790050         2
        18        17        24        22     9        0.000000        0.165433         3
        18        17        24        22     9      180.000000        0.771944         4
        18        17        24        25     9        0.000000       -0.115779         1
        18        17        24        25     9      180.000000        1.398352         2
        18        17        24        25     9        0.000000       -0.582065         3
        18        17        24        25     9      180.000000        0.594232         4
        19        17        18        34     9        0.000000       -0.085960         1
        19        17        18        34     9      180.000000        0.030650         2
        19        17        18        34     9        0.000000        0.660417         3
        19        17        18        34     9      180.000000       -0.014833         4
        19        17        18        35     9        0.000000       -0.085960         1
        19        17        18        35     9      180.000000        0.030650         2
        19        17        18        35     9        0.000000        0.660417         3
        19        17        18        35     9      180.000000       -0.014833         4
        19        17        18        36     9        0.000000       -0.085960         1
        19        17        18        36     9      180.000000        0.030650         2
        19        17        18        36     9        0.000000        0.660417         3
        19        17        18        36     9      180.000000       -0.014833         4
        19        17        24        22     9        0.000000        1.629438         1
        19        17        24        22     9      180.000000        8.216155         2
        19        17        24        22     9        0.000000       -0.299803         3
        19        17        24        22     9      180.000000       -0.363897         4
        19        17        24        25     9        0.000000        8.517346         1
        19        17        24        25     9      180.000000        5.269419         2
        19        17        24        25     9        0.000000       -0.029530         3
        19        17        24        25     9      180.000000        0.420526         4
        19        20        21        37     9        0.000000       -1.960721         1
        19        20        21        37     9      180.000000        6.682941         2
        19        20        21        37     9        0.000000       -0.053859         3
        19        20        21        37     9      180.000000       -0.491559         4
        19        20        21        38     9        0.000000       -1.960721         1
        19        20        21        38     9      180.000000        6.682941         2
        19        20        21        38     9        0.000000       -0.053859         3
        19        20        21        38     9      180.000000       -0.491559         4
        19        20        22        23     9        0.000000       -2.923613         1
        19        20        22        23     9      180.000000        5.868838         2
        19        20        22        23     9        0.000000       -0.269857         3
        19        20        22        23     9      180.000000        0.035690         4
        19        20        22        24     9        0.000000       -1.530322         1
        19        20        22        24     9      180.000000       14.774035         2
        19        20        22        24     9        0.000000       -2.727240         3
        19        20        22        24     9      180.000000       -1.364457         4
        20        19        17        24     9        0.000000       -1.363349         1
        20        19        17        24     9      180.000000        5.565702         2
        20        19        17        24     9        0.000000       -0.332818         3
        20        19        17        24     9      180.000000       -1.415947         4
        20        22        23        39     9        0.000000        0.018150         1
        20        22        23        39     9      180.000000        0.003520         2
        20        22        23        39     9        0.000000        0.166583         3
        20        22        23        39     9      180.000000       -0.014427         4
        20        22        23        40     9        0.000000        0.018150         1
        20        22        23        40     9      180.000000        0.003520         2
        20        22        23        40     9        0.000000        0.166583         3
        20        22        23        40     9      180.000000       -0.014427         4
        20        22        23        41     9        0.000000        0.018150         1
        20        22        23        41     9      180.000000        0.003520         2
        20        22        23        41     9        0.000000        0.166583         3
        20        22        23        41     9      180.000000       -0.014427         4
        20        22        24        25     9        0.000000        1.397900         1
        20        22        24        25     9      180.000000       16.661245         2
        20        22        24        25     9        0.000000       -0.507340         3
        20        22        24        25     9      180.000000       -0.823849         4
        21        20        19        42     9        0.000000       -0.821607         1
        21        20        19        42     9      180.000000        8.114790         2
        21        20        19        42     9        0.000000        0.392186         3
        21        20        19        42     9      180.000000       -0.429850         4
        21        20        22        23     9        0.000000        1.599494         1
        21        20        22        23     9      180.000000        7.578128         2
        21        20        22        23     9        0.000000       -0.093223         3
        21        20        22        23     9      180.000000       -0.115320         4
        21        20        22        24     9        0.000000        1.218707         1
        21        20        22        24     9      180.000000       12.770569         2
        21        20        22        24     9        0.000000       -0.294969         3
        21        20        22        24     9      180.000000       -0.757301         4
        22        20        19        42     9        0.000000       -0.204262         1
        22        20        19        42     9      180.000000        8.685807         2
        22        20        19        42     9        0.000000        0.182518         3
        22        20        19        42     9      180.000000       -0.741260         4
        22        20        21        37     9        0.000000       -0.591063         1
        22        20        21        37     9      180.000000        6.284741         2
        22        20        21        37     9        0.000000        0.292039         3
        22        20        21        37     9      180.000000       -0.656688         4
        22        20        21        38     9        0.000000       -0.591063         1
        22        20        21        38     9      180.000000        6.284741         2
        22        20        21        38     9        0.000000        0.292039         3
        22        20        21        38     9      180.000000       -0.656688         4
        23        22        24        25     9        0.000000       -0.460703         1
        23        22        24        25     9      180.000000        9.293865         2
        23        22        24        25     9        0.000000       -0.402775         3
        23        22        24        25     9      180.000000        0.295991         4
        24        17        18        34     9        0.000000        0.004007         1
        24        17        18        34     9      180.000000        0.053059         2
        24        17        18        34     9        0.000000        0.403325         3
        24        17        18        34     9      180.000000        0.009410         4
        24        17        18        35     9        0.000000        0.004007         1
        24        17        18        35     9      180.000000        0.053059         2
        24        17        18        35     9        0.000000        0.403325         3
        24        17        18        35     9      180.000000        0.009410         4
        24        17        18        36     9        0.000000        0.004007         1
        24        17        18        36     9      180.000000        0.053059         2
        24        17        18        36     9        0.000000        0.403325         3
        24        17        18        36     9      180.000000        0.009410         4
        24        17        19        42     9        0.000000        0.036660         1
        24        17        19        42     9      180.000000       -0.486735         2
        24        17        19        42     9        0.000000        0.212987         3
        24        17        19        42     9      180.000000        0.212351         4
        24        22        23        39     9        0.000000       -0.068797         1
        24        22        23        39     9      180.000000       -0.069228         2
        24        22        23        39     9        0.000000       -0.295898         3
        24        22        23        39     9      180.000000        0.049318         4
        24        22        23        40     9        0.000000       -0.068797         1
        24        22        23        40     9      180.000000       -0.069228         2
        24        22        23        40     9        0.000000       -0.295898         3
        24        22        23        40     9      180.000000        0.049318         4
        24        22        23        41     9        0.000000       -0.068797         1
        24        22        23        41     9      180.000000       -0.069228         2
        24        22        23        41     9        0.000000       -0.295898         3
        24        22        23        41     9      180.000000        0.049318         4
        31        11        12        32     9        0.000000       -0.095808         1
        31        11        12        32     9      180.000000       11.921620         2
        31        11        12        32     9        0.000000       -0.744287         3
        31        11        12        32     9      180.000000        0.257290         4

[ dihedrals ] ; impropers
;       ai        aj        ak        al funct           phase               k        pn
         2         1         3         6     4      180.000000        5.477756         2
         2         3         6         1     4      180.000000        5.477756         2
         2         6         1         3     4      180.000000        5.477756         2
         7         4         8         9     4      180.000000       27.893333         2
         7         8         9         4     4      180.000000       27.893333         2
         7         9         4         8     4      180.000000       27.893333         2
        20        19        21        22     4      180.000000       11.127061         2
        20        21        22        19     4      180.000000       11.127061         2
        20        22        19        21     4      180.000000       11.127061         2
        24        17        22        25     4      180.000000       25.851487         2
        24        22        25        17     4      180.000000       25.851487         2
        24        25        17        22     4      180.000000       25.851487         2

[ pairs ]
;       ai        aj funct
         1         4     1
         1         5     1
         2         7     1
         2        29     1
         3         8     1
         3         9     1
         3        26     1
         3        27     1
         3        28     1
         3        29     1
         4        10     1
         4        30     1
         5         8     1
         5         9     1
         6         7     1
         6        26     1
         6        27     1
         6        28     1
         7        11     1
         7        16     1
         7        29     1
         8        10     1
         8        30     1
         9        12     1
         9        15     1
         9        31     1
         9        33     1
        10        13     1
        10        17     1
        10        32     1
        11        14     1
        11        15     1
        11        30     1
        11        33     1
        12        16     1
        12        17     1
        13        18     1
        13        19     1
        13        24     1
        13        31     1
        13        33     1
        14        16     1
        14        17     1
        14        32     1
        15        20     1
        15        22     1
        15        25     1
        15        32     1
        15        34     1
        15        35     1
        15        36     1
        15        42     1
        16        18     1
        16        19     1
        16        24     1
        16        30     1
        16        31     1
        17        21     1
        17        23     1
        17        33     1
        18        20     1
        18        22     1
        18        25     1
        18        42     1
        19        23     1
        19        25     1
        19        34     1
        19        35     1
        19        36     1
        19        37     1
        19        38     1
        20        25     1
        20        39     1
        20        40     1
        20        41     1
        21        23     1
        21        24     1
        21        42     1
        22        37     1
        22        38     1
        22        42     1
        23        25     1
        24        34     1
        24        35     1
        24        36     1
        24        39     1
        24        40     1
        24        41     1
        24        42     1
        31        32     1
