; ITP file created by ByteFF-ML, 2025-12-06 06:47:32.335655

[ atomtypes ]
;name           bonded.type        at.num        mass        charge   ptype           sigma         epsilon
 c0bf                                   6      0.0000       0.00000       A     3.39916e-01     4.52554e-01
 n1bf                                   7      0.0000       0.00000       A     3.18292e-01     7.06281e-01
 c2bf                                   6      0.0000       0.00000       A     3.31301e-01     4.10397e-01
 n3bf                                   7      0.0000       0.00000       A     3.36712e-01     4.77349e-01
 n4bf                                   7      0.0000       0.00000       A     3.26847e-01     6.46643e-01
 c5bf                                   6      0.0000       0.00000       A     3.39981e-01     4.50320e-01
 c6bf                                   6      0.0000       0.00000       A     3.39758e-01     4.48853e-01
 c7bf                                   6      0.0000       0.00000       A     3.31323e-01     4.14783e-01
 o8bf                                   8      0.0000       0.00000       A     3.04642e-01     6.16040e-01
 c9bf                                   6      0.0000       0.00000       A     3.31576e-01     4.14544e-01
 c10bf                                  6      0.0000       0.00000       A     3.31737e-01     4.15442e-01
 c11bf                                  6      0.0000       0.00000       A     3.31462e-01     4.13706e-01
 c12bf                                  6      0.0000       0.00000       A     3.31506e-01     4.12386e-01
 c13bf                                  6      0.0000       0.00000       A     3.31494e-01     4.13182e-01
 c14bf                                  6      0.0000       0.00000       A     3.31499e-01     4.11593e-01
 f15bf                                  9      0.0000       0.00000       A     3.03477e-01     3.48240e-01
 n16bf                                  7      0.0000       0.00000       A     3.26836e-01     4.86769e-01
 c17bf                                  6      0.0000       0.00000       A     3.31068e-01     4.05858e-01
 o18bf                                  8      0.0000       0.00000       A     3.04750e-01     6.08999e-01
 c19bf                                  6      0.0000       0.00000       A     3.31474e-01     4.10421e-01
 c20bf                                  6      0.0000       0.00000       A     3.31406e-01     4.13537e-01
 c21bf                                  6      0.0000       0.00000       A     3.31503e-01     4.13361e-01
 c22bf                                  6      0.0000       0.00000       A     3.31526e-01     4.13433e-01
 cl23bf                                17      0.0000       0.00000       A     3.46679e-01     1.10358e+00
 c24bf                                  6      0.0000       0.00000       A     3.31552e-01     4.13289e-01
 n25bf                                  7      0.0000       0.00000       A     3.38340e-01     3.92424e-01
 h26bf                                  1      0.0000       0.00000       A     2.42205e-01     8.61909e-02
 h27bf                                  1      0.0000       0.00000       A     2.42205e-01     8.61909e-02
 h28bf                                  1      0.0000       0.00000       A     2.42205e-01     8.61909e-02
 h29bf                                  1      0.0000       0.00000       A     1.10384e-01     3.90095e-02
 h30bf                                  1      0.0000       0.00000       A     1.10384e-01     3.90095e-02
 h31bf                                  1      0.0000       0.00000       A     2.59990e-01     8.73194e-02
 h32bf                                  1      0.0000       0.00000       A     2.59990e-01     8.73194e-02
 h33bf                                  1      0.0000       0.00000       A     2.59990e-01     8.73194e-02
 h34bf                                  1      0.0000       0.00000       A     2.62782e-01     6.80085e-02
 h35bf                                  1      0.0000       0.00000       A     2.62514e-01     6.73797e-02
 h36bf                                  1      0.0000       0.00000       A     2.62617e-01     6.73749e-02
 h37bf                                  1      0.0000       0.00000       A     1.10735e-01     3.92473e-02
 h38bf                                  1      0.0000       0.00000       A     2.62422e-01     6.68593e-02
 h39bf                                  1      0.0000       0.00000       A     2.62500e-01     6.75042e-02
 h40bf                                  1      0.0000       0.00000       A     2.53508e-01     6.71434e-02
 h41bf                                  1      0.0000       0.00000       A     1.10570e-01     4.04157e-02

[ moleculetype ]
;name             nrexcl
 8b                    3

[ atoms ]
;       nr            type      resi   res      atom      cgnr      charge          mass ; qtot
         1            c0bf         1   UNL        c0         1     0.07169       12.0110 ; qtot    0.072
         2            n1bf         1   UNL        n1         2    -0.59261       14.0070 ; qtot   -0.521
         3            c2bf         1   UNL        c2         3     0.94383       12.0110 ; qtot    0.423
         4            n3bf         1   UNL        n3         4    -0.59191       14.0070 ; qtot   -0.169
         5            n4bf         1   UNL        n4         5    -0.63159       14.0070 ; qtot   -0.801
         6            c5bf         1   UNL        c5         6     0.07985       12.0110 ; qtot   -0.721
         7            c6bf         1   UNL        c6         7    -0.09013       12.0110 ; qtot   -0.811
         8            c7bf         1   UNL        c7         8     0.54214       12.0110 ; qtot   -0.269
         9            o8bf         1   UNL        o8         9    -0.37895       15.9990 ; qtot   -0.648
        10            c9bf         1   UNL        c9        10    -0.13159       12.0110 ; qtot   -0.779
        11           c10bf         1   UNL       c10        11    -0.08194       12.0110 ; qtot   -0.861
        12           c11bf         1   UNL       c11        12    -0.01913       12.0110 ; qtot   -0.880
        13           c12bf         1   UNL       c12        13    -0.12265       12.0110 ; qtot   -1.003
        14           c13bf         1   UNL       c13        14    -0.09389       12.0110 ; qtot   -1.097
        15           c14bf         1   UNL       c14        15     0.16381       12.0110 ; qtot   -0.933
        16           f15bf         1   UNL       f15        16    -0.17796       18.9980 ; qtot   -1.111
        17           n16bf         1   UNL       n16        17    -0.13222       14.0070 ; qtot   -1.243
        18           c17bf         1   UNL       c17        18     0.51305       12.0110 ; qtot   -0.730
        19           o18bf         1   UNL       o18        19    -0.58389       15.9990 ; qtot   -1.314
        20           c19bf         1   UNL       c19        20     0.27302       12.0110 ; qtot   -1.041
        21           c20bf         1   UNL       c20        21    -0.08776       12.0110 ; qtot   -1.129
        22           c21bf         1   UNL       c21        22    -0.07414       12.0110 ; qtot   -1.203
        23           c22bf         1   UNL       c22        23     0.08531       12.0110 ; qtot   -1.118
        24          cl23bf         1   UNL      cl23        24    -0.18688       35.4530 ; qtot   -1.305
        25           c24bf         1   UNL       c24        25     0.34577       12.0110 ; qtot   -0.959
        26           n25bf         1   UNL       n25        26    -0.65597       14.0070 ; qtot   -1.615
        27           h26bf         1   UNL       h26        27     0.08969        1.0080 ; qtot   -1.525
        28           h27bf         1   UNL       h27        28     0.08969        1.0080 ; qtot   -1.435
        29           h28bf         1   UNL       h28        29     0.08969        1.0080 ; qtot   -1.346
        30           h29bf         1   UNL       h29        30     0.38402        1.0080 ; qtot   -0.962
        31           h30bf         1   UNL       h30        31     0.38402        1.0080 ; qtot   -0.578
        32           h31bf         1   UNL       h31        32     0.07042        1.0080 ; qtot   -0.507
        33           h32bf         1   UNL       h32        33     0.07042        1.0080 ; qtot   -0.437
        34           h33bf         1   UNL       h33        34     0.07042        1.0080 ; qtot   -0.366
        35           h34bf         1   UNL       h34        35     0.15060        1.0080 ; qtot   -0.216
        36           h35bf         1   UNL       h35        36     0.13828        1.0080 ; qtot   -0.077
        37           h36bf         1   UNL       h36        37     0.14141        1.0080 ; qtot    0.064
        38           h37bf         1   UNL       h37        38     0.18488        1.0080 ; qtot    0.249
        39           h38bf         1   UNL       h38        39     0.15415        1.0080 ; qtot    0.403
        40           h39bf         1   UNL       h39        40     0.14177        1.0080 ; qtot    0.545
        41           h40bf         1   UNL       h40        41     0.04330        1.0080 ; qtot    0.588
        42           h41bf         1   UNL       h41        42     0.41198        1.0080 ; qtot    1.000

[ bonds ]
;       ai        aj funct               r               k
         1         2     1        0.146714   195444.487109
         1        27     1        0.109021   312395.586670
         1        28     1        0.109021   312395.586670
         1        29     1        0.109021   312395.586670
         2         3     1        0.135566   306947.882812
         2         8     1        0.142287   150670.349854
         3         4     1        0.133064   418457.535107
         3         5     1        0.133256   388039.237109
         4        30     1        0.101330   425081.325000
         4        31     1        0.101330   425081.325000
         5         6     1        0.148655   143933.890234
         5        42     1        0.101372   424026.412549
         6         7     1        0.153767   166501.008252
         6         8     1        0.154570   127648.901123
         6        10     1        0.152214   168512.745117
         7        32     1        0.109163   308958.368359
         7        33     1        0.109163   308958.342822
         7        34     1        0.109163   308958.342822
         8         9     1        0.120308   721943.581836
        10        11     1        0.139916   300782.049902
        10        15     1        0.139704   284812.316406
        11        12     1        0.140375   285706.855811
        11        35     1        0.108294   326777.984521
        12        13     1        0.140462   285017.558154
        12        17     1        0.140641   251341.899707
        13        14     1        0.139445   325229.695117
        13        36     1        0.108344   327149.447314
        14        15     1        0.138764   314481.508838
        14        37     1        0.108484   324632.203369
        15        16     1        0.136440   273896.479004
        17        18     1        0.136607   285567.244434
        17        38     1        0.101740   401069.240723
        18        19     1        0.123259   595726.929492
        18        20     1        0.151262   168813.929785
        20        21     1        0.139806   286661.458496
        20        26     1        0.134292   299653.335205
        21        22     1        0.139300   326591.206104
        21        39     1        0.108388   327629.723730
        22        23     1        0.139530   307026.894629
        22        40     1        0.108496   325437.873633
        23        24     1        0.174972   156506.460376
        23        25     1        0.140012   282162.126270
        25        26     1        0.133320   330499.788379
        25        41     1        0.108700   319702.187793

[ angles ]
;       ai        aj        ak funct           theta             cth
         1         2         3     1      126.571388      467.132881
         1         2         8     1      123.233597      530.506953
         2         1        27     1      109.240211      484.420004
         2         1        28     1      109.240211      484.420004
         2         1        29     1      109.240211      484.420004
         2         3         4     1      123.759987      625.684461
         2         3         5     1      111.359451      578.377605
         2         8         6     1      106.590225      167.360000
         2         8         9     1      124.686424      648.671371
         3         2         8     1      109.825668      828.553046
         3         4        30     1      121.315735      451.251097
         3         4        31     1      121.315735      451.251097
         3         5         6     1      111.828995      618.308961
         3         5        42     1      123.420799      427.645264
         4         3         5     1      125.474426      616.890439
         5         6         7     1      110.438828      626.901432
         5         6         8     1      100.861259      337.715631
         5         6        10     1      111.269249      600.543113
         6         5        42     1      121.293442      371.055157
         6         7        32     1      110.082191      481.458433
         6         7        33     1      110.082191      481.458369
         6         7        34     1      110.082191      481.458369
         6         8         9     1      127.385330      365.947927
         6        10        11     1      121.006004      432.389548
         6        10        15     1      120.931961      550.111217
         7         6         8     1      109.758812      624.225399
         7         6        10     1      113.407486      615.903365
         8         6        10     1      111.934433      574.899578
        10        11        12     1      121.162643      693.322241
        10        11        35     1      119.608627      390.075068
        10        15        14     1      122.224182      567.978702
        10        15        16     1      119.054161      484.999441
        11        10        15     1      117.726944      647.104031
        11        12        13     1      119.199059      574.830756
        11        12        17     1      119.967186      493.844697
        12        11        35     1      119.233658      433.124506
        12        13        14     1      119.717796      725.834748
        12        13        36     1      120.032249      446.585467
        12        17        18     1      129.249619      473.806845
        12        17        38     1      117.373497      392.561202
        13        12        17     1      120.527206      592.023104
        13        14        15     1      119.245583      696.598844
        13        14        37     1      121.065163      424.886490
        14        13        36     1      120.181984      387.275818
        14        15        16     1      118.472336      549.776042
        15        14        37     1      119.539207      439.284599
        17        18        19     1      126.038124      590.883000
        17        18        20     1      112.864639      479.646767
        18        17        38     1      113.548477      466.101597
        18        20        21     1      119.114868      500.567948
        18        20        26     1      117.691673      498.033996
        19        18        20     1      121.047684      678.234087
        20        21        22     1      118.715698      724.904686
        20        21        39     1      119.466087      389.077621
        20        26        25     1      118.590149      651.447957
        21        20        26     1      122.799133      638.251911
        21        22        23     1      117.826012      738.436545
        21        22        40     1      121.480270      424.532290
        22        21        39     1      121.899231      400.925658
        22        23        24     1      120.556580      394.757201
        22        23        25     1      119.505020      632.836257
        23        22        40     1      120.693016      433.779118
        23        25        26     1      122.102905      640.887341
        23        25        41     1      120.463303      417.107822
        24        23        25     1      119.825439      375.950876
        26        25        41     1      117.352371      377.652924
        27         1        28     1      109.820786      349.271620
        27         1        29     1      109.820786      349.271620
        28         1        29     1      109.820786      349.271620
        30         4        31     1      117.429977      314.388120
        32         7        33     1      108.825966      356.972016
        32         7        34     1      108.825966      356.972016
        33         7        34     1      108.825966      356.972016

[ dihedrals ] ; propers for gromacs 4.5 or higher, use funct 9
;       ai        aj        ak        al funct           phase               k        pn
         1         2         3         4     9        0.000000        1.599495         1
         1         2         3         4     9      180.000000        7.578126         2
         1         2         3         4     9        0.000000       -0.093223         3
         1         2         3         4     9      180.000000       -0.115320         4
         1         2         3         5     9        0.000000       -2.923610         1
         1         2         3         5     9      180.000000        5.868836         2
         1         2         3         5     9        0.000000       -0.269856         3
         1         2         3         5     9      180.000000        0.035689         4
         1         2         8         6     9        0.000000       -1.302991         1
         1         2         8         6     9      180.000000        6.283166         2
         1         2         8         6     9        0.000000        0.203360         3
         1         2         8         6     9      180.000000       -0.119801         4
         1         2         8         9     9        0.000000       -0.460703         1
         1         2         8         9     9      180.000000        9.293864         2
         1         2         8         9     9        0.000000       -0.402775         3
         1         2         8         9     9      180.000000        0.295992         4
         2         3         4        30     9        0.000000       -0.591065         1
         2         3         4        30     9      180.000000        6.284743         2
         2         3         4        30     9        0.000000        0.292040         3
         2         3         4        30     9      180.000000       -0.656689         4
         2         3         4        31     9        0.000000       -0.591065         1
         2         3         4        31     9      180.000000        6.284743         2
         2         3         4        31     9        0.000000        0.292040         3
         2         3         4        31     9      180.000000       -0.656689         4
         2         3         5         6     9        0.000000       -1.367834         1
         2         3         5         6     9      180.000000       22.403243         2
         2         3         5         6     9        0.000000       -1.367706         3
         2         3         5         6     9      180.000000       -2.690361         4
         2         3         5        42     9        0.000000       -0.204263         1
         2         3         5        42     9      180.000000        8.685806         2
         2         3         5        42     9        0.000000        0.182519         3
         2         3         5        42     9      180.000000       -0.741259         4
         2         8         6         5     9        0.000000        1.629437         1
         2         8         6         5     9      180.000000        8.216158         2
         2         8         6         5     9        0.000000       -0.299804         3
         2         8         6         5     9      180.000000       -0.363897         4
         2         8         6         7     9        0.000000       -1.509550         1
         2         8         6         7     9      180.000000        1.790050         2
         2         8         6         7     9        0.000000        0.165432         3
         2         8         6         7     9      180.000000        0.771944         4
         2         8         6        10     9        0.000000        0.515624         1
         2         8         6        10     9      180.000000        1.383855         2
         2         8         6        10     9        0.000000        0.314773         3
         2         8         6        10     9      180.000000        0.709418         4
         3         2         1        27     9        0.000000        0.018149         1
         3         2         1        27     9      180.000000        0.003520         2
         3         2         1        27     9        0.000000        0.166582         3
         3         2         1        27     9      180.000000       -0.014426         4
         3         2         1        28     9        0.000000        0.018149         1
         3         2         1        28     9      180.000000        0.003520         2
         3         2         1        28     9        0.000000        0.166582         3
         3         2         1        28     9      180.000000       -0.014426         4
         3         2         1        29     9        0.000000        0.018149         1
         3         2         1        29     9      180.000000        0.003520         2
         3         2         1        29     9        0.000000        0.166582         3
         3         2         1        29     9      180.000000       -0.014426         4
         3         2         8         6     9        0.000000       -3.215038         1
         3         2         8         6     9      180.000000       11.505431         2
         3         2         8         6     9        0.000000       -1.456301         3
         3         2         8         6     9      180.000000       -0.403047         4
         3         2         8         9     9        0.000000        1.397901         1
         3         2         8         9     9      180.000000       16.661243         2
         3         2         8         9     9        0.000000       -0.507341         3
         3         2         8         9     9      180.000000       -0.823848         4
         3         5         6         7     9        0.000000       -2.282497         1
         3         5         6         7     9      180.000000        1.439376         2
         3         5         6         7     9        0.000000        0.287212         3
         3         5         6         7     9      180.000000        0.161398         4
         3         5         6         8     9        0.000000       -1.363353         1
         3         5         6         8     9      180.000000        5.565697         2
         3         5         6         8     9        0.000000       -0.332818         3
         3         5         6         8     9      180.000000       -1.415947         4
         3         5         6        10     9        0.000000       -0.020486         1
         3         5         6        10     9      180.000000        0.198410         2
         3         5         6        10     9        0.000000        0.276196         3
         3         5         6        10     9      180.000000        0.183631         4
         4         3         2         8     9        0.000000        1.218708         1
         4         3         2         8     9      180.000000       12.770568         2
         4         3         2         8     9        0.000000       -0.294969         3
         4         3         2         8     9      180.000000       -0.757301         4
         4         3         5         6     9        0.000000        2.198400         1
         4         3         5         6     9      180.000000       18.059894         2
         4         3         5         6     9        0.000000        0.789177         3
         4         3         5         6     9      180.000000       -1.913777         4
         4         3         5        42     9        0.000000       -0.821607         1
         4         3         5        42     9      180.000000        8.114786         2
         4         3         5        42     9        0.000000        0.392186         3
         4         3         5        42     9      180.000000       -0.429850         4
         5         3         2         8     9        0.000000       -1.530321         1
         5         3         2         8     9      180.000000       14.774035         2
         5         3         2         8     9        0.000000       -2.727240         3
         5         3         2         8     9      180.000000       -1.364456         4
         5         3         4        30     9        0.000000       -1.960720         1
         5         3         4        30     9      180.000000        6.682940         2
         5         3         4        30     9        0.000000       -0.053858         3
         5         3         4        30     9      180.000000       -0.491559         4
         5         3         4        31     9        0.000000       -1.960720         1
         5         3         4        31     9      180.000000        6.682940         2
         5         3         4        31     9        0.000000       -0.053858         3
         5         3         4        31     9      180.000000       -0.491559         4
         5         6         7        32     9        0.000000       -0.085961         1
         5         6         7        32     9      180.000000        0.030649         2
         5         6         7        32     9        0.000000        0.660417         3
         5         6         7        32     9      180.000000       -0.014833         4
         5         6         7        33     9        0.000000       -0.085960         1
         5         6         7        33     9      180.000000        0.030650         2
         5         6         7        33     9        0.000000        0.660417         3
         5         6         7        33     9      180.000000       -0.014833         4
         5         6         7        34     9        0.000000       -0.085960         1
         5         6         7        34     9      180.000000        0.030650         2
         5         6         7        34     9        0.000000        0.660417         3
         5         6         7        34     9      180.000000       -0.014833         4
         5         6         8         9     9        0.000000        8.517339         1
         5         6         8         9     9      180.000000        5.269418         2
         5         6         8         9     9        0.000000       -0.029531         3
         5         6         8         9     9      180.000000        0.420526         4
         5         6        10        11     9        0.000000        0.502052         1
         5         6        10        11     9      180.000000        0.969835         2
         5         6        10        11     9        0.000000       -0.294484         3
         5         6        10        11     9      180.000000        0.119679         4
         5         6        10        15     9        0.000000        1.533166         1
         5         6        10        15     9      180.000000       -0.461769         2
         5         6        10        15     9        0.000000        0.357293         3
         5         6        10        15     9      180.000000        0.163375         4
         6        10        11        12     9        0.000000        0.165028         1
         6        10        11        12     9      180.000000       14.993239         2
         6        10        11        12     9        0.000000       -0.129239         3
         6        10        11        12     9      180.000000       -0.239569         4
         6        10        11        35     9        0.000000       -0.044270         1
         6        10        11        35     9      180.000000       12.743415         2
         6        10        11        35     9        0.000000       -0.415143         3
         6        10        11        35     9      180.000000        0.108809         4
         6        10        15        14     9        0.000000       -0.033452         1
         6        10        15        14     9      180.000000       12.579810         2
         6        10        15        14     9        0.000000       -0.170552         3
         6        10        15        14     9      180.000000       -0.144057         4
         6        10        15        16     9        0.000000        0.455922         1
         6        10        15        16     9      180.000000       16.866942         2
         6        10        15        16     9        0.000000        0.474656         3
         6        10        15        16     9      180.000000       -0.449330         4
         7         6         5        42     9        0.000000       -0.523429         1
         7         6         5        42     9      180.000000        0.689486         2
         7         6         5        42     9        0.000000        0.185998         3
         7         6         5        42     9      180.000000       -0.006876         4
         7         6         8         9     9        0.000000       -0.115781         1
         7         6         8         9     9      180.000000        1.398352         2
         7         6         8         9     9        0.000000       -0.582065         3
         7         6         8         9     9      180.000000        0.594232         4
         7         6        10        11     9        0.000000       -0.325501         1
         7         6        10        11     9      180.000000        1.123008         2
         7         6        10        11     9        0.000000       -0.230286         3
         7         6        10        11     9      180.000000        0.114809         4
         7         6        10        15     9        0.000000        0.049173         1
         7         6        10        15     9      180.000000        0.994497         2
         7         6        10        15     9        0.000000        0.422901         3
         7         6        10        15     9      180.000000        0.074925         4
         8         2         1        27     9        0.000000       -0.068797         1
         8         2         1        27     9      180.000000       -0.069227         2
         8         2         1        27     9        0.000000       -0.295898         3
         8         2         1        27     9      180.000000        0.049318         4
         8         2         1        28     9        0.000000       -0.068797         1
         8         2         1        28     9      180.000000       -0.069227         2
         8         2         1        28     9        0.000000       -0.295898         3
         8         2         1        28     9      180.000000        0.049318         4
         8         2         1        29     9        0.000000       -0.068797         1
         8         2         1        29     9      180.000000       -0.069227         2
         8         2         1        29     9        0.000000       -0.295898         3
         8         2         1        29     9      180.000000        0.049318         4
         8         6         5        42     9        0.000000        0.036658         1
         8         6         5        42     9      180.000000       -0.486736         2
         8         6         5        42     9        0.000000        0.212987         3
         8         6         5        42     9      180.000000        0.212351         4
         8         6         7        32     9        0.000000        0.004006         1
         8         6         7        32     9      180.000000        0.053059         2
         8         6         7        32     9        0.000000        0.403325         3
         8         6         7        32     9      180.000000        0.009410         4
         8         6         7        33     9        0.000000        0.004006         1
         8         6         7        33     9      180.000000        0.053059         2
         8         6         7        33     9        0.000000        0.403325         3
         8         6         7        33     9      180.000000        0.009410         4
         8         6         7        34     9        0.000000        0.004006         1
         8         6         7        34     9      180.000000        0.053059         2
         8         6         7        34     9        0.000000        0.403325         3
         8         6         7        34     9      180.000000        0.009410         4
         8         6        10        11     9        0.000000       -0.607728         1
         8         6        10        11     9      180.000000       -0.235253         2
         8         6        10        11     9        0.000000       -0.099207         3
         8         6        10        11     9      180.000000        0.218484         4
         8         6        10        15     9        0.000000        1.139563         1
         8         6        10        15     9      180.000000       -0.358900         2
         8         6        10        15     9        0.000000        0.065221         3
         8         6        10        15     9      180.000000        0.137299         4
         9         8         6        10     9        0.000000        0.717654         1
         9         8         6        10     9      180.000000        1.669794         2
         9         8         6        10     9        0.000000       -0.515925         3
         9         8         6        10     9      180.000000        0.329374         4
        10         6         5        42     9        0.000000        1.255775         1
        10         6         5        42     9      180.000000        0.271894         2
        10         6         5        42     9        0.000000        0.142494         3
        10         6         5        42     9      180.000000       -0.033936         4
        10         6         7        32     9        0.000000       -0.061051         1
        10         6         7        32     9      180.000000        0.040302         2
        10         6         7        32     9        0.000000        0.637754         3
        10         6         7        32     9      180.000000        0.056714         4
        10         6         7        33     9        0.000000       -0.061051         1
        10         6         7        33     9      180.000000        0.040302         2
        10         6         7        33     9        0.000000        0.637754         3
        10         6         7        33     9      180.000000        0.056715         4
        10         6         7        34     9        0.000000       -0.061051         1
        10         6         7        34     9      180.000000        0.040302         2
        10         6         7        34     9        0.000000        0.637754         3
        10         6         7        34     9      180.000000        0.056715         4
        10        11        12        13     9        0.000000        0.105347         1
        10        11        12        13     9      180.000000       16.095151         2
        10        11        12        13     9        0.000000       -1.220409         3
        10        11        12        13     9      180.000000       -0.280296         4
        10        11        12        17     9        0.000000        0.028212         1
        10        11        12        17     9      180.000000       17.446805         2
        10        11        12        17     9        0.000000       -0.209780         3
        10        11        12        17     9      180.000000       -0.352987         4
        10        15        14        13     9        0.000000       -0.003413         1
        10        15        14        13     9      180.000000       16.777625         2
        10        15        14        13     9        0.000000       -1.249201         3
        10        15        14        13     9      180.000000       -0.311406         4
        10        15        14        37     9        0.000000       -0.023555         1
        10        15        14        37     9      180.000000       12.721594         2
        10        15        14        37     9        0.000000       -0.564623         3
        10        15        14        37     9      180.000000        0.142975         4
        11        10        15        14     9        0.000000       -0.150147         1
        11        10        15        14     9      180.000000       17.246174         2
        11        10        15        14     9        0.000000       -1.168047         3
        11        10        15        14     9      180.000000       -0.373540         4
        11        10        15        16     9        0.000000        0.434843         1
        11        10        15        16     9      180.000000       22.849241         2
        11        10        15        16     9        0.000000        0.269891         3
        11        10        15        16     9      180.000000       -0.713510         4
        11        12        13        14     9        0.000000        0.029199         1
        11        12        13        14     9      180.000000       16.623568         2
        11        12        13        14     9        0.000000       -1.098236         3
        11        12        13        14     9      180.000000       -0.154414         4
        11        12        13        36     9        0.000000        0.106821         1
        11        12        13        36     9      180.000000       13.045076         2
        11        12        13        36     9        0.000000       -0.430187         3
        11        12        13        36     9      180.000000        0.152603         4
        11        12        17        18     9        0.000000        0.020210         1
        11        12        17        18     9      180.000000        2.535369         2
        11        12        17        18     9        0.000000        0.051609         3
        11        12        17        18     9      180.000000        0.050574         4
        11        12        17        38     9        0.000000        0.148540         1
        11        12        17        38     9      180.000000        2.816931         2
        11        12        17        38     9        0.000000        0.040316         3
        11        12        17        38     9      180.000000        0.309559         4
        12        11        10        15     9        0.000000       -0.200505         1
        12        11        10        15     9      180.000000       18.452251         2
        12        11        10        15     9        0.000000       -1.855904         3
        12        11        10        15     9      180.000000       -0.403516         4
        12        13        14        15     9        0.000000       -0.027450         1
        12        13        14        15     9      180.000000       18.548059         2
        12        13        14        15     9        0.000000       -1.842291         3
        12        13        14        15     9      180.000000       -0.376928         4
        12        13        14        37     9        0.000000        0.137039         1
        12        13        14        37     9      180.000000       14.120303         2
        12        13        14        37     9        0.000000       -0.494889         3
        12        13        14        37     9      180.000000        0.087535         4
        12        17        18        19     9        0.000000       -0.975501         1
        12        17        18        19     9      180.000000       11.118332         2
        12        17        18        19     9        0.000000        0.353990         3
        12        17        18        19     9      180.000000       -0.867694         4
        12        17        18        20     9        0.000000        2.398008         1
        12        17        18        20     9      180.000000        8.996963         2
        12        17        18        20     9        0.000000        0.477541         3
        12        17        18        20     9      180.000000       -0.805328         4
        13        12        11        35     9        0.000000        0.079303         1
        13        12        11        35     9      180.000000       12.660684         2
        13        12        11        35     9        0.000000       -0.636056         3
        13        12        11        35     9      180.000000        0.129885         4
        13        12        17        18     9        0.000000        0.133789         1
        13        12        17        18     9      180.000000        2.494091         2
        13        12        17        18     9        0.000000        0.090607         3
        13        12        17        18     9      180.000000        0.049114         4
        13        12        17        38     9        0.000000       -0.024782         1
        13        12        17        38     9      180.000000        2.617951         2
        13        12        17        38     9        0.000000        0.099789         3
        13        12        17        38     9      180.000000        0.337822         4
        13        14        15        16     9        0.000000        0.477148         1
        13        14        15        16     9      180.000000       23.472783         2
        13        14        15        16     9        0.000000        0.516963         3
        13        14        15        16     9      180.000000       -0.560604         4
        14        13        12        17     9        0.000000        0.227359         1
        14        13        12        17     9      180.000000       18.207652         2
        14        13        12        17     9        0.000000        0.059645         3
        14        13        12        17     9      180.000000       -0.291101         4
        15        10        11        35     9        0.000000        0.073242         1
        15        10        11        35     9      180.000000       14.655217         2
        15        10        11        35     9        0.000000       -0.589062         3
        15        10        11        35     9      180.000000        0.110738         4
        15        14        13        36     9        0.000000        0.209604         1
        15        14        13        36     9      180.000000       14.873967         2
        15        14        13        36     9        0.000000       -0.478474         3
        15        14        13        36     9      180.000000        0.131121         4
        16        15        14        37     9        0.000000        0.119792         1
        16        15        14        37     9      180.000000       16.654960         2
        16        15        14        37     9        0.000000        0.308636         3
        16        15        14        37     9      180.000000        0.191127         4
        17        12        11        35     9        0.000000       -0.114787         1
        17        12        11        35     9      180.000000       14.126786         2
        17        12        11        35     9        0.000000       -0.219390         3
        17        12        11        35     9      180.000000        0.294059         4
        17        12        13        36     9        0.000000       -0.012936         1
        17        12        13        36     9      180.000000       14.070666         2
        17        12        13        36     9        0.000000       -0.164360         3
        17        12        13        36     9      180.000000        0.223490         4
        17        18        20        21     9        0.000000       -0.336625         1
        17        18        20        21     9      180.000000        3.368937         2
        17        18        20        21     9        0.000000       -0.088083         3
        17        18        20        21     9      180.000000       -0.011254         4
        17        18        20        26     9        0.000000        2.140826         1
        17        18        20        26     9      180.000000        3.353793         2
        17        18        20        26     9        0.000000        0.477077         3
        17        18        20        26     9      180.000000       -0.208551         4
        18        20        21        22     9        0.000000        0.193162         1
        18        20        21        22     9      180.000000       13.476437         2
        18        20        21        22     9        0.000000       -0.042148         3
        18        20        21        22     9      180.000000       -0.427793         4
        18        20        21        39     9        0.000000        0.182015         1
        18        20        21        39     9      180.000000       11.282973         2
        18        20        21        39     9        0.000000       -0.290164         3
        18        20        21        39     9      180.000000        0.024974         4
        18        20        26        25     9        0.000000        1.191093         1
        18        20        26        25     9      180.000000       20.903343         2
        18        20        26        25     9        0.000000        1.083083         3
        18        20        26        25     9      180.000000       -0.961601         4
        19        18        17        38     9        0.000000       -0.149038         1
        19        18        17        38     9      180.000000       11.018219         2
        19        18        17        38     9        0.000000        0.292309         3
        19        18        17        38     9      180.000000        0.783210         4
        19        18        20        21     9        0.000000        1.352112         1
        19        18        20        21     9      180.000000        4.031287         2
        19        18        20        21     9        0.000000       -0.573991         3
        19        18        20        21     9      180.000000        0.338800         4
        19        18        20        26     9        0.000000       -4.257099         1
        19        18        20        26     9      180.000000        4.325311         2
        19        18        20        26     9        0.000000        0.524128         3
        19        18        20        26     9      180.000000        0.098346         4
        20        18        17        38     9        0.000000        0.404585         1
        20        18        17        38     9      180.000000        7.902130         2
        20        18        17        38     9        0.000000        0.042774         3
        20        18        17        38     9      180.000000        0.365359         4
        20        21        22        23     9        0.000000       -0.037519         1
        20        21        22        23     9      180.000000       18.852982         2
        20        21        22        23     9        0.000000       -1.738957         3
        20        21        22        23     9      180.000000       -0.513371         4
        20        21        22        40     9        0.000000        0.109468         1
        20        21        22        40     9      180.000000       14.133885         2
        20        21        22        40     9        0.000000       -0.461160         3
        20        21        22        40     9      180.000000        0.187324         4
        20        26        25        23     9        0.000000        0.188897         1
        20        26        25        23     9      180.000000       24.002580         2
        20        26        25        23     9        0.000000       -0.676230         3
        20        26        25        23     9      180.000000       -0.300939         4
        20        26        25        41     9        0.000000        1.097627         1
        20        26        25        41     9      180.000000       21.498076         2
        20        26        25        41     9        0.000000        0.134139         3
        20        26        25        41     9      180.000000       -0.524029         4
        21        20        26        25     9        0.000000       -0.623464         1
        21        20        26        25     9      180.000000       21.930667         2
        21        20        26        25     9        0.000000       -0.740234         3
        21        20        26        25     9      180.000000       -0.038723         4
        21        22        23        24     9        0.000000        0.445058         1
        21        22        23        24     9      180.000000       18.976397         2
        21        22        23        24     9        0.000000        0.209847         3
        21        22        23        24     9      180.000000       -0.556946         4
        21        22        23        25     9        0.000000        0.007093         1
        21        22        23        25     9      180.000000       17.404390         2
        21        22        23        25     9        0.000000       -1.405356         3
        21        22        23        25     9      180.000000       -0.361905         4
        22        21        20        26     9        0.000000       -0.184768         1
        22        21        20        26     9      180.000000       17.392739         2
        22        21        20        26     9        0.000000       -0.970252         3
        22        21        20        26     9      180.000000       -0.377210         4
        22        23        25        26     9        0.000000       -0.043797         1
        22        23        25        26     9      180.000000       16.191137         2
        22        23        25        26     9        0.000000       -0.872244         3
        22        23        25        26     9      180.000000       -0.272783         4
        22        23        25        41     9        0.000000        0.060684         1
        22        23        25        41     9      180.000000       12.887890         2
        22        23        25        41     9        0.000000       -0.502691         3
        22        23        25        41     9      180.000000        0.111900         4
        23        22        21        39     9        0.000000        0.040251         1
        23        22        21        39     9      180.000000       14.724340         2
        23        22        21        39     9        0.000000       -0.546088         3
        23        22        21        39     9      180.000000        0.111097         4
        24        23        22        40     9        0.000000        0.290607         1
        24        23        22        40     9      180.000000       13.104031         2
        24        23        22        40     9        0.000000       -0.056210         3
        24        23        22        40     9      180.000000        0.317964         4
        24        23        25        26     9        0.000000       -0.117377         1
        24        23        25        26     9      180.000000       17.622086         2
        24        23        25        26     9        0.000000       -0.027526         3
        24        23        25        26     9      180.000000       -0.773424         4
        24        23        25        41     9        0.000000        0.299218         1
        24        23        25        41     9      180.000000       12.634690         2
        24        23        25        41     9        0.000000       -0.109898         3
        24        23        25        41     9      180.000000        0.276007         4
        25        23        22        40     9        0.000000        0.022024         1
        25        23        22        40     9      180.000000       13.462497         2
        25        23        22        40     9        0.000000       -0.521638         3
        25        23        22        40     9      180.000000        0.104972         4
        26        20        21        39     9        0.000000        0.126475         1
        26        20        21        39     9      180.000000       12.741812         2
        26        20        21        39     9        0.000000       -0.280689         3
        26        20        21        39     9      180.000000       -0.096806         4
        36        13        14        37     9        0.000000       -0.092304         1
        36        13        14        37     9      180.000000       11.930862         2
        36        13        14        37     9        0.000000       -0.744482         3
        36        13        14        37     9      180.000000        0.257666         4
        39        21        22        40     9        0.000000       -0.381762         1
        39        21        22        40     9      180.000000       11.662326         2
        39        21        22        40     9        0.000000       -0.870814         3
        39        21        22        40     9      180.000000        0.336846         4

[ dihedrals ] ; impropers
;       ai        aj        ak        al funct           phase               k        pn
         3         2         4         5     4      180.000000       11.127059         2
         3         4         5         2     4      180.000000       11.127059         2
         3         5         2         4     4      180.000000       11.127059         2
         8         2         6         9     4      180.000000       25.851492         2
         8         6         9         2     4      180.000000       25.851492         2
         8         9         2         6     4      180.000000       25.851492         2
        18        17        19        20     4      180.000000       27.893333         2
        18        19        20        17     4      180.000000       27.893333         2
        18        20        17        19     4      180.000000       27.893333         2
        23        22        24        25     4      180.000000        0.170766         2
        23        24        25        22     4      180.000000        0.170766         2
        23        25        22        24     4      180.000000        0.170766         2
        25        23        26        41     4      180.000000        4.378302         2
        25        26        41        23     4      180.000000        4.378302         2
        25        41        23        26     4      180.000000        4.378302         2

[ pairs ]
;       ai        aj funct
         1         4     1
         1         5     1
         1         6     1
         1         9     1
         2         7     1
         2        10     1
         2        30     1
         2        31     1
         2        42     1
         3         7     1
         3         9     1
         3        10     1
         3        27     1
         3        28     1
         3        29     1
         4         6     1
         4         8     1
         4        42     1
         5         9     1
         5        11     1
         5        15     1
         5        30     1
         5        31     1
         5        32     1
         5        33     1
         5        34     1
         6        12     1
         6        14     1
         6        16     1
         6        35     1
         7         9     1
         7        11     1
         7        15     1
         7        42     1
         8        11     1
         8        15     1
         8        27     1
         8        28     1
         8        29     1
         8        32     1
         8        33     1
         8        34     1
         8        42     1
         9        10     1
        10        13     1
        10        17     1
        10        32     1
        10        33     1
        10        34     1
        10        37     1
        10        42     1
        11        14     1
        11        16     1
        11        18     1
        11        36     1
        11        38     1
        12        15     1
        12        19     1
        12        20     1
        12        37     1
        13        16     1
        13        18     1
        13        35     1
        13        38     1
        14        17     1
        15        35     1
        15        36     1
        16        37     1
        17        21     1
        17        26     1
        17        35     1
        17        36     1
        18        22     1
        18        25     1
        18        39     1
        19        21     1
        19        26     1
        19        38     1
        20        23     1
        20        38     1
        20        40     1
        20        41     1
        21        24     1
        21        25     1
        22        26     1
        22        41     1
        23        39     1
        24        26     1
        24        40     1
        24        41     1
        25        40     1
        26        39     1
        36        37     1
        39        40     1
