; ITP file created by ByteFF-ML, 2025-12-06 06:44:35.341987

[ atomtypes ]
;name           bonded.type        at.num        mass        charge   ptype           sigma         epsilon
 c0bf                                   6      0.0000       0.00000       A     3.39916e-01     4.52554e-01
 n1bf                                   7      0.0000       0.00000       A     3.18292e-01     7.06281e-01
 c2bf                                   6      0.0000       0.00000       A     3.31301e-01     4.10397e-01
 n3bf                                   7      0.0000       0.00000       A     3.36712e-01     4.77349e-01
 n4bf                                   7      0.0000       0.00000       A     3.26847e-01     6.46643e-01
 c5bf                                   6      0.0000       0.00000       A     3.39981e-01     4.50320e-01
 c6bf                                   6      0.0000       0.00000       A     3.39758e-01     4.48853e-01
 c7bf                                   6      0.0000       0.00000       A     3.31323e-01     4.14783e-01
 o8bf                                   8      0.0000       0.00000       A     3.04642e-01     6.16040e-01
 c9bf                                   6      0.0000       0.00000       A     3.31576e-01     4.14544e-01
 c10bf                                  6      0.0000       0.00000       A     3.31737e-01     4.15442e-01
 c11bf                                  6      0.0000       0.00000       A     3.31462e-01     4.13706e-01
 c12bf                                  6      0.0000       0.00000       A     3.31506e-01     4.12386e-01
 c13bf                                  6      0.0000       0.00000       A     3.31494e-01     4.13182e-01
 c14bf                                  6      0.0000       0.00000       A     3.31499e-01     4.11593e-01
 f15bf                                  9      0.0000       0.00000       A     3.03477e-01     3.48240e-01
 n16bf                                  7      0.0000       0.00000       A     3.26836e-01     4.86769e-01
 c17bf                                  6      0.0000       0.00000       A     3.31068e-01     4.05858e-01
 o18bf                                  8      0.0000       0.00000       A     3.04750e-01     6.08999e-01
 c19bf                                  6      0.0000       0.00000       A     3.31536e-01     4.10697e-01
 c20bf                                  6      0.0000       0.00000       A     3.31497e-01     4.13200e-01
 c21bf                                  6      0.0000       0.00000       A     3.31503e-01     4.14193e-01
 c22bf                                  6      0.0000       0.00000       A     3.31456e-01     4.13074e-01
 c23bf                                  6      0.0000       0.00000       A     3.48297e-01     6.69666e-01
 n24bf                                  7      0.0000       0.00000       A     3.27395e-01     4.58168e-01
 c25bf                                  6      0.0000       0.00000       A     3.31482e-01     4.13376e-01
 n26bf                                  7      0.0000       0.00000       A     3.38298e-01     3.91632e-01
 h27bf                                  1      0.0000       0.00000       A     2.42205e-01     8.61909e-02
 h28bf                                  1      0.0000       0.00000       A     2.42205e-01     8.61909e-02
 h29bf                                  1      0.0000       0.00000       A     2.42205e-01     8.61909e-02
 h30bf                                  1      0.0000       0.00000       A     1.10384e-01     3.90095e-02
 h31bf                                  1      0.0000       0.00000       A     1.10384e-01     3.90095e-02
 h32bf                                  1      0.0000       0.00000       A     2.59990e-01     8.73194e-02
 h33bf                                  1      0.0000       0.00000       A     2.59990e-01     8.73194e-02
 h34bf                                  1      0.0000       0.00000       A     2.59990e-01     8.73194e-02
 h35bf                                  1      0.0000       0.00000       A     2.62782e-01     6.80085e-02
 h36bf                                  1      0.0000       0.00000       A     2.62514e-01     6.73797e-02
 h37bf                                  1      0.0000       0.00000       A     2.62617e-01     6.73749e-02
 h38bf                                  1      0.0000       0.00000       A     1.10735e-01     3.92473e-02
 h39bf                                  1      0.0000       0.00000       A     2.62347e-01     6.67827e-02
 h40bf                                  1      0.0000       0.00000       A     2.62457e-01     6.75696e-02
 h41bf                                  1      0.0000       0.00000       A     2.53506e-01     6.73398e-02
 h42bf                                  1      0.0000       0.00000       A     1.10570e-01     4.04157e-02

[ moleculetype ]
;name             nrexcl
 8c                    3

[ atoms ]
;       nr            type      resi   res      atom      cgnr      charge          mass ; qtot
         1            c0bf         1   UNL        c0         1     0.07169       12.0110 ; qtot    0.072
         2            n1bf         1   UNL        n1         2    -0.59261       14.0070 ; qtot   -0.521
         3            c2bf         1   UNL        c2         3     0.94383       12.0110 ; qtot    0.423
         4            n3bf         1   UNL        n3         4    -0.59191       14.0070 ; qtot   -0.169
         5            n4bf         1   UNL        n4         5    -0.63159       14.0070 ; qtot   -0.801
         6            c5bf         1   UNL        c5         6     0.07985       12.0110 ; qtot   -0.721
         7            c6bf         1   UNL        c6         7    -0.09013       12.0110 ; qtot   -0.811
         8            c7bf         1   UNL        c7         8     0.54214       12.0110 ; qtot   -0.269
         9            o8bf         1   UNL        o8         9    -0.37895       15.9990 ; qtot   -0.648
        10            c9bf         1   UNL        c9        10    -0.13159       12.0110 ; qtot   -0.779
        11           c10bf         1   UNL       c10        11    -0.08194       12.0110 ; qtot   -0.861
        12           c11bf         1   UNL       c11        12    -0.01913       12.0110 ; qtot   -0.880
        13           c12bf         1   UNL       c12        13    -0.12265       12.0110 ; qtot   -1.003
        14           c13bf         1   UNL       c13        14    -0.09389       12.0110 ; qtot   -1.097
        15           c14bf         1   UNL       c14        15     0.16381       12.0110 ; qtot   -0.933
        16           f15bf         1   UNL       f15        16    -0.17796       18.9980 ; qtot   -1.111
        17           n16bf         1   UNL       n16        17    -0.13222       14.0070 ; qtot   -1.243
        18           c17bf         1   UNL       c17        18     0.51104       12.0110 ; qtot   -0.732
        19           o18bf         1   UNL       o18        19    -0.58389       15.9990 ; qtot   -1.316
        20           c19bf         1   UNL       c19        20     0.29898       12.0110 ; qtot   -1.017
        21           c20bf         1   UNL       c20        21    -0.10766       12.0110 ; qtot   -1.125
        22           c21bf         1   UNL       c21        22    -0.04533       12.0110 ; qtot   -1.170
        23           c22bf         1   UNL       c22        23    -0.04913       12.0110 ; qtot   -1.219
        24           c23bf         1   UNL       c23        24     0.31781       12.0110 ; qtot   -0.901
        25           n24bf         1   UNL       n24        25    -0.43585       14.0070 ; qtot   -1.337
        26           c25bf         1   UNL       c25        26     0.37182       12.0110 ; qtot   -0.965
        27           n26bf         1   UNL       n26        27    -0.65611       14.0070 ; qtot   -1.622
        28           h27bf         1   UNL       h27        28     0.08969        1.0080 ; qtot   -1.532
        29           h28bf         1   UNL       h28        29     0.08969        1.0080 ; qtot   -1.442
        30           h29bf         1   UNL       h29        30     0.08969        1.0080 ; qtot   -1.353
        31           h30bf         1   UNL       h30        31     0.38402        1.0080 ; qtot   -0.968
        32           h31bf         1   UNL       h31        32     0.38402        1.0080 ; qtot   -0.584
        33           h32bf         1   UNL       h32        33     0.07042        1.0080 ; qtot   -0.514
        34           h33bf         1   UNL       h33        34     0.07042        1.0080 ; qtot   -0.444
        35           h34bf         1   UNL       h34        35     0.07042        1.0080 ; qtot   -0.373
        36           h35bf         1   UNL       h35        36     0.15060        1.0080 ; qtot   -0.223
        37           h36bf         1   UNL       h36        37     0.13828        1.0080 ; qtot   -0.084
        38           h37bf         1   UNL       h37        38     0.14141        1.0080 ; qtot    0.057
        39           h38bf         1   UNL       h38        39     0.18488        1.0080 ; qtot    0.242
        40           h39bf         1   UNL       h39        40     0.16003        1.0080 ; qtot    0.402
        41           h40bf         1   UNL       h40        41     0.14257        1.0080 ; qtot    0.545
        42           h41bf         1   UNL       h41        42     0.04346        1.0080 ; qtot    0.588
        43           h42bf         1   UNL       h42        43     0.41197        1.0080 ; qtot    1.000

[ bonds ]
;       ai        aj funct               r               k
         1         2     1        0.146714   195444.487109
         1        28     1        0.109021   312395.586670
         1        29     1        0.109021   312395.586670
         1        30     1        0.109021   312395.586670
         2         3     1        0.135566   306947.882812
         2         8     1        0.142287   150670.349854
         3         4     1        0.133064   418457.535107
         3         5     1        0.133256   388039.237109
         4        31     1        0.101330   425081.325000
         4        32     1        0.101330   425081.325000
         5         6     1        0.148655   143933.890234
         5        43     1        0.101372   424026.412549
         6         7     1        0.153767   166501.008252
         6         8     1        0.154570   127648.901123
         6        10     1        0.152214   168512.745117
         7        33     1        0.109163   308958.368359
         7        34     1        0.109163   308958.342822
         7        35     1        0.109163   308958.342822
         8         9     1        0.120308   721943.581836
        10        11     1        0.139916   300782.049902
        10        15     1        0.139704   284812.316406
        11        12     1        0.140375   285706.855811
        11        36     1        0.108294   326777.958984
        12        13     1        0.140462   285017.558154
        12        17     1        0.140641   251341.899707
        13        14     1        0.139445   325229.695117
        13        37     1        0.108344   327149.447314
        14        15     1        0.138764   314481.508838
        14        38     1        0.108484   324632.203369
        15        16     1        0.136440   273896.479004
        17        18     1        0.136607   285567.244434
        17        39     1        0.101740   401069.240723
        18        19     1        0.123259   595726.929492
        18        20     1        0.151449   167636.656274
        20        21     1        0.139962   283713.531201
        20        27     1        0.134387   296345.411279
        21        22     1        0.139053   329663.856641
        21        40     1        0.108339   329792.870117
        22        23     1        0.140439   295905.151514
        22        41     1        0.108508   326417.451611
        23        24     1        0.143326   275094.807861
        23        26     1        0.140829   273225.772363
        24        25     1        0.116520  1106811.825000
        26        27     1        0.133090   336966.193066
        26        42     1        0.108689   321894.599707

[ angles ]
;       ai        aj        ak funct           theta             cth
         1         2         3     1      126.571388      467.132881
         1         2         8     1      123.233597      530.506953
         2         1        28     1      109.240211      484.420004
         2         1        29     1      109.240211      484.420004
         2         1        30     1      109.240211      484.420004
         2         3         4     1      123.759987      625.684461
         2         3         5     1      111.359451      578.377605
         2         8         6     1      106.590225      167.360000
         2         8         9     1      124.686424      648.671371
         3         2         8     1      109.825668      828.553046
         3         4        31     1      121.315735      451.251097
         3         4        32     1      121.315735      451.251097
         3         5         6     1      111.828995      618.308961
         3         5        43     1      123.420799      427.645264
         4         3         5     1      125.474426      616.890439
         5         6         7     1      110.438828      626.901432
         5         6         8     1      100.861259      337.715631
         5         6        10     1      111.269249      600.543113
         6         5        43     1      121.293442      371.055157
         6         7        33     1      110.082191      481.458433
         6         7        34     1      110.082191      481.458369
         6         7        35     1      110.082191      481.458369
         6         8         9     1      127.385330      365.947927
         6        10        11     1      121.006004      432.389548
         6        10        15     1      120.931961      550.111217
         7         6         8     1      109.758812      624.225399
         7         6        10     1      113.407486      615.903365
         8         6        10     1      111.934433      574.899578
        10        11        12     1      121.162643      693.322241
        10        11        36     1      119.608627      390.075068
        10        15        14     1      122.224182      567.978702
        10        15        16     1      119.054161      484.999441
        11        10        15     1      117.726944      647.104031
        11        12        13     1      119.199059      574.830756
        11        12        17     1      119.967186      493.844697
        12        11        36     1      119.233658      433.124506
        12        13        14     1      119.717796      725.834748
        12        13        37     1      120.032249      446.585467
        12        17        18     1      129.249619      473.806845
        12        17        39     1      117.373497      392.561202
        13        12        17     1      120.527206      592.023104
        13        14        15     1      119.245583      696.598844
        13        14        38     1      121.065163      424.886490
        14        13        37     1      120.181984      387.275818
        14        15        16     1      118.472336      549.776042
        15        14        38     1      119.539207      439.284599
        17        18        19     1      126.038124      590.883000
        17        18        20     1      112.875626      480.543598
        18        17        39     1      113.548477      466.101597
        18        20        21     1      118.896469      506.814931
        18        20        27     1      117.622047      503.100208
        19        18        20     1      120.897263      673.006385
        20        21        22     1      118.483475      761.993954
        20        21        40     1      119.396988      395.488169
        20        27        26     1      118.254089      685.530230
        21        20        27     1      123.123314      660.183819
        21        22        23     1      118.474915      748.490441
        21        22        41     1      121.302048      417.515937
        22        21        40     1      122.156151      400.450125
        22        23        24     1      121.180702      486.721727
        22        23        26     1      118.378624      704.320755
        23        22        41     1      120.235802      424.557572
        23        24        25     1      179.665939      167.360000
        23        26        27     1      122.832031      679.513240
        23        26        42     1      120.077354      403.117093
        24        23        26     1      120.304604      506.701610
        27        26        42     1      117.119186      379.445789
        28         1        29     1      109.820786      349.271620
        28         1        30     1      109.820786      349.271620
        29         1        30     1      109.820786      349.271620
        31         4        32     1      117.429977      314.388120
        33         7        34     1      108.825966      356.972016
        33         7        35     1      108.825966      356.971984
        34         7        35     1      108.825966      356.972016

[ dihedrals ] ; propers for gromacs 4.5 or higher, use funct 9
;       ai        aj        ak        al funct           phase               k        pn
         1         2         3         4     9        0.000000        1.599495         1
         1         2         3         4     9      180.000000        7.578126         2
         1         2         3         4     9        0.000000       -0.093223         3
         1         2         3         4     9      180.000000       -0.115320         4
         1         2         3         5     9        0.000000       -2.923610         1
         1         2         3         5     9      180.000000        5.868836         2
         1         2         3         5     9        0.000000       -0.269856         3
         1         2         3         5     9      180.000000        0.035689         4
         1         2         8         6     9        0.000000       -1.302991         1
         1         2         8         6     9      180.000000        6.283166         2
         1         2         8         6     9        0.000000        0.203360         3
         1         2         8         6     9      180.000000       -0.119801         4
         1         2         8         9     9        0.000000       -0.460703         1
         1         2         8         9     9      180.000000        9.293864         2
         1         2         8         9     9        0.000000       -0.402775         3
         1         2         8         9     9      180.000000        0.295992         4
         2         3         4        31     9        0.000000       -0.591065         1
         2         3         4        31     9      180.000000        6.284743         2
         2         3         4        31     9        0.000000        0.292040         3
         2         3         4        31     9      180.000000       -0.656689         4
         2         3         4        32     9        0.000000       -0.591065         1
         2         3         4        32     9      180.000000        6.284743         2
         2         3         4        32     9        0.000000        0.292040         3
         2         3         4        32     9      180.000000       -0.656689         4
         2         3         5         6     9        0.000000       -1.367834         1
         2         3         5         6     9      180.000000       22.403243         2
         2         3         5         6     9        0.000000       -1.367706         3
         2         3         5         6     9      180.000000       -2.690361         4
         2         3         5        43     9        0.000000       -0.204263         1
         2         3         5        43     9      180.000000        8.685806         2
         2         3         5        43     9        0.000000        0.182519         3
         2         3         5        43     9      180.000000       -0.741259         4
         2         8         6         5     9        0.000000        1.629437         1
         2         8         6         5     9      180.000000        8.216158         2
         2         8         6         5     9        0.000000       -0.299804         3
         2         8         6         5     9      180.000000       -0.363897         4
         2         8         6         7     9        0.000000       -1.509550         1
         2         8         6         7     9      180.000000        1.790050         2
         2         8         6         7     9        0.000000        0.165432         3
         2         8         6         7     9      180.000000        0.771944         4
         2         8         6        10     9        0.000000        0.515624         1
         2         8         6        10     9      180.000000        1.383855         2
         2         8         6        10     9        0.000000        0.314773         3
         2         8         6        10     9      180.000000        0.709418         4
         3         2         1        28     9        0.000000        0.018149         1
         3         2         1        28     9      180.000000        0.003520         2
         3         2         1        28     9        0.000000        0.166582         3
         3         2         1        28     9      180.000000       -0.014426         4
         3         2         1        29     9        0.000000        0.018149         1
         3         2         1        29     9      180.000000        0.003520         2
         3         2         1        29     9        0.000000        0.166582         3
         3         2         1        29     9      180.000000       -0.014426         4
         3         2         1        30     9        0.000000        0.018149         1
         3         2         1        30     9      180.000000        0.003520         2
         3         2         1        30     9        0.000000        0.166582         3
         3         2         1        30     9      180.000000       -0.014426         4
         3         2         8         6     9        0.000000       -3.215038         1
         3         2         8         6     9      180.000000       11.505431         2
         3         2         8         6     9        0.000000       -1.456301         3
         3         2         8         6     9      180.000000       -0.403047         4
         3         2         8         9     9        0.000000        1.397901         1
         3         2         8         9     9      180.000000       16.661243         2
         3         2         8         9     9        0.000000       -0.507341         3
         3         2         8         9     9      180.000000       -0.823848         4
         3         5         6         7     9        0.000000       -2.282497         1
         3         5         6         7     9      180.000000        1.439376         2
         3         5         6         7     9        0.000000        0.287212         3
         3         5         6         7     9      180.000000        0.161398         4
         3         5         6         8     9        0.000000       -1.363353         1
         3         5         6         8     9      180.000000        5.565697         2
         3         5         6         8     9        0.000000       -0.332818         3
         3         5         6         8     9      180.000000       -1.415947         4
         3         5         6        10     9        0.000000       -0.020486         1
         3         5         6        10     9      180.000000        0.198410         2
         3         5         6        10     9        0.000000        0.276196         3
         3         5         6        10     9      180.000000        0.183631         4
         4         3         2         8     9        0.000000        1.218708         1
         4         3         2         8     9      180.000000       12.770568         2
         4         3         2         8     9        0.000000       -0.294969         3
         4         3         2         8     9      180.000000       -0.757301         4
         4         3         5         6     9        0.000000        2.198400         1
         4         3         5         6     9      180.000000       18.059894         2
         4         3         5         6     9        0.000000        0.789177         3
         4         3         5         6     9      180.000000       -1.913777         4
         4         3         5        43     9        0.000000       -0.821607         1
         4         3         5        43     9      180.000000        8.114786         2
         4         3         5        43     9        0.000000        0.392186         3
         4         3         5        43     9      180.000000       -0.429850         4
         5         3         2         8     9        0.000000       -1.530321         1
         5         3         2         8     9      180.000000       14.774035         2
         5         3         2         8     9        0.000000       -2.727240         3
         5         3         2         8     9      180.000000       -1.364456         4
         5         3         4        31     9        0.000000       -1.960720         1
         5         3         4        31     9      180.000000        6.682940         2
         5         3         4        31     9        0.000000       -0.053858         3
         5         3         4        31     9      180.000000       -0.491559         4
         5         3         4        32     9        0.000000       -1.960720         1
         5         3         4        32     9      180.000000        6.682940         2
         5         3         4        32     9        0.000000       -0.053858         3
         5         3         4        32     9      180.000000       -0.491559         4
         5         6         7        33     9        0.000000       -0.085961         1
         5         6         7        33     9      180.000000        0.030649         2
         5         6         7        33     9        0.000000        0.660417         3
         5         6         7        33     9      180.000000       -0.014833         4
         5         6         7        34     9        0.000000       -0.085960         1
         5         6         7        34     9      180.000000        0.030650         2
         5         6         7        34     9        0.000000        0.660417         3
         5         6         7        34     9      180.000000       -0.014833         4
         5         6         7        35     9        0.000000       -0.085960         1
         5         6         7        35     9      180.000000        0.030650         2
         5         6         7        35     9        0.000000        0.660417         3
         5         6         7        35     9      180.000000       -0.014833         4
         5         6         8         9     9        0.000000        8.517339         1
         5         6         8         9     9      180.000000        5.269418         2
         5         6         8         9     9        0.000000       -0.029531         3
         5         6         8         9     9      180.000000        0.420526         4
         5         6        10        11     9        0.000000        0.502052         1
         5         6        10        11     9      180.000000        0.969835         2
         5         6        10        11     9        0.000000       -0.294484         3
         5         6        10        11     9      180.000000        0.119679         4
         5         6        10        15     9        0.000000        1.533166         1
         5         6        10        15     9      180.000000       -0.461769         2
         5         6        10        15     9        0.000000        0.357293         3
         5         6        10        15     9      180.000000        0.163375         4
         6        10        11        12     9        0.000000        0.165028         1
         6        10        11        12     9      180.000000       14.993239         2
         6        10        11        12     9        0.000000       -0.129239         3
         6        10        11        12     9      180.000000       -0.239569         4
         6        10        11        36     9        0.000000       -0.044270         1
         6        10        11        36     9      180.000000       12.743415         2
         6        10        11        36     9        0.000000       -0.415143         3
         6        10        11        36     9      180.000000        0.108809         4
         6        10        15        14     9        0.000000       -0.033452         1
         6        10        15        14     9      180.000000       12.579810         2
         6        10        15        14     9        0.000000       -0.170552         3
         6        10        15        14     9      180.000000       -0.144057         4
         6        10        15        16     9        0.000000        0.455922         1
         6        10        15        16     9      180.000000       16.866942         2
         6        10        15        16     9        0.000000        0.474656         3
         6        10        15        16     9      180.000000       -0.449330         4
         7         6         5        43     9        0.000000       -0.523429         1
         7         6         5        43     9      180.000000        0.689486         2
         7         6         5        43     9        0.000000        0.185998         3
         7         6         5        43     9      180.000000       -0.006876         4
         7         6         8         9     9        0.000000       -0.115781         1
         7         6         8         9     9      180.000000        1.398352         2
         7         6         8         9     9        0.000000       -0.582065         3
         7         6         8         9     9      180.000000        0.594232         4
         7         6        10        11     9        0.000000       -0.325501         1
         7         6        10        11     9      180.000000        1.123008         2
         7         6        10        11     9        0.000000       -0.230286         3
         7         6        10        11     9      180.000000        0.114809         4
         7         6        10        15     9        0.000000        0.049173         1
         7         6        10        15     9      180.000000        0.994497         2
         7         6        10        15     9        0.000000        0.422901         3
         7         6        10        15     9      180.000000        0.074925         4
         8         2         1        28     9        0.000000       -0.068797         1
         8         2         1        28     9      180.000000       -0.069227         2
         8         2         1        28     9        0.000000       -0.295898         3
         8         2         1        28     9      180.000000        0.049318         4
         8         2         1        29     9        0.000000       -0.068797         1
         8         2         1        29     9      180.000000       -0.069227         2
         8         2         1        29     9        0.000000       -0.295898         3
         8         2         1        29     9      180.000000        0.049318         4
         8         2         1        30     9        0.000000       -0.068797         1
         8         2         1        30     9      180.000000       -0.069227         2
         8         2         1        30     9        0.000000       -0.295898         3
         8         2         1        30     9      180.000000        0.049318         4
         8         6         5        43     9        0.000000        0.036658         1
         8         6         5        43     9      180.000000       -0.486736         2
         8         6         5        43     9        0.000000        0.212987         3
         8         6         5        43     9      180.000000        0.212351         4
         8         6         7        33     9        0.000000        0.004006         1
         8         6         7        33     9      180.000000        0.053059         2
         8         6         7        33     9        0.000000        0.403325         3
         8         6         7        33     9      180.000000        0.009410         4
         8         6         7        34     9        0.000000        0.004006         1
         8         6         7        34     9      180.000000        0.053059         2
         8         6         7        34     9        0.000000        0.403325         3
         8         6         7        34     9      180.000000        0.009410         4
         8         6         7        35     9        0.000000        0.004006         1
         8         6         7        35     9      180.000000        0.053059         2
         8         6         7        35     9        0.000000        0.403325         3
         8         6         7        35     9      180.000000        0.009410         4
         8         6        10        11     9        0.000000       -0.607728         1
         8         6        10        11     9      180.000000       -0.235253         2
         8         6        10        11     9        0.000000       -0.099207         3
         8         6        10        11     9      180.000000        0.218484         4
         8         6        10        15     9        0.000000        1.139563         1
         8         6        10        15     9      180.000000       -0.358900         2
         8         6        10        15     9        0.000000        0.065221         3
         8         6        10        15     9      180.000000        0.137299         4
         9         8         6        10     9        0.000000        0.717654         1
         9         8         6        10     9      180.000000        1.669794         2
         9         8         6        10     9        0.000000       -0.515925         3
         9         8         6        10     9      180.000000        0.329374         4
        10         6         5        43     9        0.000000        1.255775         1
        10         6         5        43     9      180.000000        0.271894         2
        10         6         5        43     9        0.000000        0.142494         3
        10         6         5        43     9      180.000000       -0.033936         4
        10         6         7        33     9        0.000000       -0.061051         1
        10         6         7        33     9      180.000000        0.040302         2
        10         6         7        33     9        0.000000        0.637754         3
        10         6         7        33     9      180.000000        0.056714         4
        10         6         7        34     9        0.000000       -0.061051         1
        10         6         7        34     9      180.000000        0.040302         2
        10         6         7        34     9        0.000000        0.637754         3
        10         6         7        34     9      180.000000        0.056715         4
        10         6         7        35     9        0.000000       -0.061051         1
        10         6         7        35     9      180.000000        0.040302         2
        10         6         7        35     9        0.000000        0.637754         3
        10         6         7        35     9      180.000000        0.056715         4
        10        11        12        13     9        0.000000        0.105347         1
        10        11        12        13     9      180.000000       16.095151         2
        10        11        12        13     9        0.000000       -1.220409         3
        10        11        12        13     9      180.000000       -0.280296         4
        10        11        12        17     9        0.000000        0.028212         1
        10        11        12        17     9      180.000000       17.446805         2
        10        11        12        17     9        0.000000       -0.209780         3
        10        11        12        17     9      180.000000       -0.352987         4
        10        15        14        13     9        0.000000       -0.003413         1
        10        15        14        13     9      180.000000       16.777625         2
        10        15        14        13     9        0.000000       -1.249201         3
        10        15        14        13     9      180.000000       -0.311406         4
        10        15        14        38     9        0.000000       -0.023555         1
        10        15        14        38     9      180.000000       12.721594         2
        10        15        14        38     9        0.000000       -0.564623         3
        10        15        14        38     9      180.000000        0.142975         4
        11        10        15        14     9        0.000000       -0.150147         1
        11        10        15        14     9      180.000000       17.246174         2
        11        10        15        14     9        0.000000       -1.168047         3
        11        10        15        14     9      180.000000       -0.373540         4
        11        10        15        16     9        0.000000        0.434843         1
        11        10        15        16     9      180.000000       22.849241         2
        11        10        15        16     9        0.000000        0.269891         3
        11        10        15        16     9      180.000000       -0.713510         4
        11        12        13        14     9        0.000000        0.029199         1
        11        12        13        14     9      180.000000       16.623568         2
        11        12        13        14     9        0.000000       -1.098236         3
        11        12        13        14     9      180.000000       -0.154414         4
        11        12        13        37     9        0.000000        0.106821         1
        11        12        13        37     9      180.000000       13.045076         2
        11        12        13        37     9        0.000000       -0.430187         3
        11        12        13        37     9      180.000000        0.152603         4
        11        12        17        18     9        0.000000        0.020210         1
        11        12        17        18     9      180.000000        2.535369         2
        11        12        17        18     9        0.000000        0.051609         3
        11        12        17        18     9      180.000000        0.050574         4
        11        12        17        39     9        0.000000        0.148540         1
        11        12        17        39     9      180.000000        2.816931         2
        11        12        17        39     9        0.000000        0.040316         3
        11        12        17        39     9      180.000000        0.309559         4
        12        11        10        15     9        0.000000       -0.200505         1
        12        11        10        15     9      180.000000       18.452251         2
        12        11        10        15     9        0.000000       -1.855904         3
        12        11        10        15     9      180.000000       -0.403516         4
        12        13        14        15     9        0.000000       -0.027450         1
        12        13        14        15     9      180.000000       18.548059         2
        12        13        14        15     9        0.000000       -1.842291         3
        12        13        14        15     9      180.000000       -0.376928         4
        12        13        14        38     9        0.000000        0.137039         1
        12        13        14        38     9      180.000000       14.120303         2
        12        13        14        38     9        0.000000       -0.494889         3
        12        13        14        38     9      180.000000        0.087535         4
        12        17        18        19     9        0.000000       -0.975501         1
        12        17        18        19     9      180.000000       11.118332         2
        12        17        18        19     9        0.000000        0.353990         3
        12        17        18        19     9      180.000000       -0.867694         4
        12        17        18        20     9        0.000000        2.443651         1
        12        17        18        20     9      180.000000        9.112076         2
        12        17        18        20     9        0.000000        0.504371         3
        12        17        18        20     9      180.000000       -0.797643         4
        13        12        11        36     9        0.000000        0.079303         1
        13        12        11        36     9      180.000000       12.660684         2
        13        12        11        36     9        0.000000       -0.636056         3
        13        12        11        36     9      180.000000        0.129885         4
        13        12        17        18     9        0.000000        0.133789         1
        13        12        17        18     9      180.000000        2.494091         2
        13        12        17        18     9        0.000000        0.090607         3
        13        12        17        18     9      180.000000        0.049114         4
        13        12        17        39     9        0.000000       -0.024782         1
        13        12        17        39     9      180.000000        2.617951         2
        13        12        17        39     9        0.000000        0.099789         3
        13        12        17        39     9      180.000000        0.337822         4
        13        14        15        16     9        0.000000        0.477148         1
        13        14        15        16     9      180.000000       23.472783         2
        13        14        15        16     9        0.000000        0.516963         3
        13        14        15        16     9      180.000000       -0.560604         4
        14        13        12        17     9        0.000000        0.227359         1
        14        13        12        17     9      180.000000       18.207652         2
        14        13        12        17     9        0.000000        0.059645         3
        14        13        12        17     9      180.000000       -0.291101         4
        15        10        11        36     9        0.000000        0.073242         1
        15        10        11        36     9      180.000000       14.655217         2
        15        10        11        36     9        0.000000       -0.589062         3
        15        10        11        36     9      180.000000        0.110738         4
        15        14        13        37     9        0.000000        0.209604         1
        15        14        13        37     9      180.000000       14.873967         2
        15        14        13        37     9        0.000000       -0.478474         3
        15        14        13        37     9      180.000000        0.131121         4
        16        15        14        38     9        0.000000        0.119792         1
        16        15        14        38     9      180.000000       16.654960         2
        16        15        14        38     9        0.000000        0.308636         3
        16        15        14        38     9      180.000000        0.191127         4
        17        12        11        36     9        0.000000       -0.114787         1
        17        12        11        36     9      180.000000       14.126786         2
        17        12        11        36     9        0.000000       -0.219390         3
        17        12        11        36     9      180.000000        0.294059         4
        17        12        13        37     9        0.000000       -0.012936         1
        17        12        13        37     9      180.000000       14.070666         2
        17        12        13        37     9        0.000000       -0.164360         3
        17        12        13        37     9      180.000000        0.223490         4
        17        18        20        21     9        0.000000       -0.200361         1
        17        18        20        21     9      180.000000        3.095767         2
        17        18        20        21     9        0.000000       -0.035641         3
        17        18        20        21     9      180.000000       -0.000082         4
        17        18        20        27     9        0.000000        2.345951         1
        17        18        20        27     9      180.000000        3.196464         2
        17        18        20        27     9        0.000000        0.455634         3
        17        18        20        27     9      180.000000       -0.198972         4
        18        20        21        22     9        0.000000        0.140408         1
        18        20        21        22     9      180.000000       13.229086         2
        18        20        21        22     9        0.000000        0.041659         3
        18        20        21        22     9      180.000000       -0.465410         4
        18        20        21        40     9        0.000000        0.144569         1
        18        20        21        40     9      180.000000       11.199797         2
        18        20        21        40     9        0.000000       -0.355488         3
        18        20        21        40     9      180.000000        0.007616         4
        18        20        27        26     9        0.000000        1.360479         1
        18        20        27        26     9      180.000000       19.688692         2
        18        20        27        26     9        0.000000        1.164482         3
        18        20        27        26     9      180.000000       -0.930724         4
        19        18        17        39     9        0.000000       -0.149038         1
        19        18        17        39     9      180.000000       11.018219         2
        19        18        17        39     9        0.000000        0.292309         3
        19        18        17        39     9      180.000000        0.783210         4
        19        18        20        21     9        0.000000        1.464050         1
        19        18        20        21     9      180.000000        3.663103         2
        19        18        20        21     9        0.000000       -0.509159         3
        19        18        20        21     9      180.000000        0.289044         4
        19        18        20        27     9        0.000000       -4.063314         1
        19        18        20        27     9      180.000000        4.026250         2
        19        18        20        27     9        0.000000        0.538275         3
        19        18        20        27     9      180.000000        0.091187         4
        20        18        17        39     9        0.000000        0.369309         1
        20        18        17        39     9      180.000000        7.930342         2
        20        18        17        39     9        0.000000        0.066030         3
        20        18        17        39     9      180.000000        0.397957         4
        20        21        22        23     9        0.000000       -0.150418         1
        20        21        22        23     9      180.000000       18.722570         2
        20        21        22        23     9        0.000000       -1.685045         3
        20        21        22        23     9      180.000000       -0.507583         4
        20        21        22        41     9        0.000000        0.188323         1
        20        21        22        41     9      180.000000       14.059852         2
        20        21        22        41     9        0.000000       -0.400013         3
        20        21        22        41     9      180.000000        0.165519         4
        20        27        26        23     9        0.000000       -0.178112         1
        20        27        26        23     9      180.000000       24.715936         2
        20        27        26        23     9        0.000000       -0.413933         3
        20        27        26        23     9      180.000000       -0.405181         4
        20        27        26        42     9        0.000000        1.153584         1
        20        27        26        42     9      180.000000       22.289320         2
        20        27        26        42     9        0.000000        0.324326         3
        20        27        26        42     9      180.000000       -0.702377         4
        21        20        27        26     9        0.000000       -0.314197         1
        21        20        27        26     9      180.000000       21.007858         2
        21        20        27        26     9        0.000000       -0.567202         3
        21        20        27        26     9      180.000000       -0.082949         4
        21        22        23        24     9        0.000000        0.089192         1
        21        22        23        24     9      180.000000       16.713645         2
        21        22        23        24     9        0.000000       -0.248768         3
        21        22        23        24     9      180.000000       -0.281099         4
        21        22        23        26     9        0.000000       -0.060002         1
        21        22        23        26     9      180.000000       17.472829         2
        21        22        23        26     9        0.000000       -1.700869         3
        21        22        23        26     9      180.000000       -0.406140         4
        22        21        20        27     9        0.000000       -0.184679         1
        22        21        20        27     9      180.000000       16.471624         2
        22        21        20        27     9        0.000000       -0.728924         3
        22        21        20        27     9      180.000000       -0.367800         4
        22        23        24        25     9        0.000000        0.000000         1
        22        23        24        25     9      180.000000        0.000000         2
        22        23        24        25     9        0.000000        0.000000         3
        22        23        24        25     9      180.000000        0.000000         4
        22        23        26        27     9        0.000000       -0.049966         1
        22        23        26        27     9      180.000000       16.586134         2
        22        23        26        27     9        0.000000       -0.915810         3
        22        23        26        27     9      180.000000       -0.372501         4
        22        23        26        42     9        0.000000       -0.019153         1
        22        23        26        42     9      180.000000       12.980072         2
        22        23        26        42     9        0.000000       -0.559698         3
        22        23        26        42     9      180.000000        0.044912         4
        23        22        21        40     9        0.000000       -0.041360         1
        23        22        21        40     9      180.000000       14.631228         2
        23        22        21        40     9        0.000000       -0.380130         3
        23        22        21        40     9      180.000000        0.024568         4
        24        23        22        41     9        0.000000        0.170623         1
        24        23        22        41     9      180.000000       12.690376         2
        24        23        22        41     9        0.000000       -0.207423         3
        24        23        22        41     9      180.000000        0.078609         4
        24        23        26        27     9        0.000000       -0.370060         1
        24        23        26        27     9      180.000000       15.079219         2
        24        23        26        27     9        0.000000       -0.157706         3
        24        23        26        27     9      180.000000       -0.513768         4
        24        23        26        42     9        0.000000        0.253832         1
        24        23        26        42     9      180.000000       12.498323         2
        24        23        26        42     9        0.000000       -0.153843         3
        24        23        26        42     9      180.000000        0.008586         4
        25        24        23        26     9        0.000000        0.000000         1
        25        24        23        26     9      180.000000        0.000000         2
        25        24        23        26     9        0.000000        0.000000         3
        25        24        23        26     9      180.000000        0.000000         4
        26        23        22        41     9        0.000000        0.053545         1
        26        23        22        41     9      180.000000       13.523605         2
        26        23        22        41     9        0.000000       -0.661342         3
        26        23        22        41     9      180.000000        0.090764         4
        27        20        21        40     9        0.000000       -0.046073         1
        27        20        21        40     9      180.000000       12.354145         2
        27        20        21        40     9        0.000000       -0.247063         3
        27        20        21        40     9      180.000000       -0.140129         4
        37        13        14        38     9        0.000000       -0.092304         1
        37        13        14        38     9      180.000000       11.930863         2
        37        13        14        38     9        0.000000       -0.744482         3
        37        13        14        38     9      180.000000        0.257666         4
        40        21        22        41     9        0.000000       -0.441275         1
        40        21        22        41     9      180.000000       11.910340         2
        40        21        22        41     9        0.000000       -0.799467         3
        40        21        22        41     9      180.000000        0.340893         4

[ dihedrals ] ; impropers
;       ai        aj        ak        al funct           phase               k        pn
         3         2         4         5     4      180.000000       11.127059         2
         3         4         5         2     4      180.000000       11.127059         2
         3         5         2         4     4      180.000000       11.127059         2
         8         2         6         9     4      180.000000       25.851492         2
         8         6         9         2     4      180.000000       25.851492         2
         8         9         2         6     4      180.000000       25.851492         2
        18        17        19        20     4      180.000000       27.893333         2
        18        19        20        17     4      180.000000       27.893333         2
        18        20        17        19     4      180.000000       27.893333         2
        20        18        21        27     4      180.000000        0.303112         2
        20        21        27        18     4      180.000000        0.303112         2
        20        27        18        21     4      180.000000        0.303112         2
        26        23        27        42     4      180.000000        7.020642         2
        26        27        42        23     4      180.000000        7.020642         2
        26        42        23        27     4      180.000000        7.020642         2

[ pairs ]
;       ai        aj funct
         1         4     1
         1         5     1
         1         6     1
         1         9     1
         2         7     1
         2        10     1
         2        31     1
         2        32     1
         2        43     1
         3         7     1
         3         9     1
         3        10     1
         3        28     1
         3        29     1
         3        30     1
         4         6     1
         4         8     1
         4        43     1
         5         9     1
         5        11     1
         5        15     1
         5        31     1
         5        32     1
         5        33     1
         5        34     1
         5        35     1
         6        12     1
         6        14     1
         6        16     1
         6        36     1
         7         9     1
         7        11     1
         7        15     1
         7        43     1
         8        11     1
         8        15     1
         8        28     1
         8        29     1
         8        30     1
         8        33     1
         8        34     1
         8        35     1
         8        43     1
         9        10     1
        10        13     1
        10        17     1
        10        33     1
        10        34     1
        10        35     1
        10        38     1
        10        43     1
        11        14     1
        11        16     1
        11        18     1
        11        37     1
        11        39     1
        12        15     1
        12        19     1
        12        20     1
        12        38     1
        13        16     1
        13        18     1
        13        36     1
        13        39     1
        14        17     1
        15        36     1
        15        37     1
        16        38     1
        17        21     1
        17        27     1
        17        36     1
        17        37     1
        18        22     1
        18        26     1
        18        40     1
        19        21     1
        19        27     1
        19        39     1
        20        23     1
        20        39     1
        20        41     1
        20        42     1
        21        24     1
        21        26     1
        22        25     1
        22        27     1
        22        42     1
        23        40     1
        24        27     1
        24        41     1
        24        42     1
        25        26     1
        26        41     1
        27        40     1
        37        38     1
        40        41     1
