; ITP file created by ByteFF-ML, 2025-12-06 06:47:22.047856

[ atomtypes ]
;name           bonded.type        at.num        mass        charge   ptype           sigma         epsilon
 c0bf                                   6      0.0000       0.00000       A     3.39916e-01     4.52554e-01
 n1bf                                   7      0.0000       0.00000       A     3.18292e-01     7.06281e-01
 c2bf                                   6      0.0000       0.00000       A     3.31301e-01     4.10397e-01
 n3bf                                   7      0.0000       0.00000       A     3.36712e-01     4.77349e-01
 n4bf                                   7      0.0000       0.00000       A     3.26847e-01     6.46643e-01
 c5bf                                   6      0.0000       0.00000       A     3.39981e-01     4.50320e-01
 c6bf                                   6      0.0000       0.00000       A     3.39758e-01     4.48853e-01
 c7bf                                   6      0.0000       0.00000       A     3.31323e-01     4.14783e-01
 o8bf                                   8      0.0000       0.00000       A     3.04642e-01     6.16040e-01
 c9bf                                   6      0.0000       0.00000       A     3.31576e-01     4.14544e-01
 c10bf                                  6      0.0000       0.00000       A     3.31737e-01     4.15442e-01
 c11bf                                  6      0.0000       0.00000       A     3.31462e-01     4.13706e-01
 c12bf                                  6      0.0000       0.00000       A     3.31506e-01     4.12386e-01
 c13bf                                  6      0.0000       0.00000       A     3.31494e-01     4.13182e-01
 c14bf                                  6      0.0000       0.00000       A     3.31499e-01     4.11593e-01
 f15bf                                  9      0.0000       0.00000       A     3.03477e-01     3.48240e-01
 n16bf                                  7      0.0000       0.00000       A     3.27006e-01     4.86854e-01
 c17bf                                  6      0.0000       0.00000       A     3.31148e-01     4.05346e-01
 o18bf                                  8      0.0000       0.00000       A     3.04717e-01     6.06795e-01
 c19bf                                  6      0.0000       0.00000       A     3.31452e-01     4.10539e-01
 c20bf                                  6      0.0000       0.00000       A     3.31330e-01     4.13850e-01
 n21bf                                  7      0.0000       0.00000       A     3.38343e-01     3.96108e-01
 c22bf                                  6      0.0000       0.00000       A     3.31516e-01     4.11985e-01
 c23bf                                  6      0.0000       0.00000       A     3.31630e-01     4.14648e-01
 n24bf                                  7      0.0000       0.00000       A     3.38496e-01     3.92572e-01
 o25bf                                  8      0.0000       0.00000       A     3.15975e-01     3.03577e-01
 c26bf                                  6      0.0000       0.00000       A     3.39600e-01     4.53344e-01
 c27bf                                  6      0.0000       0.00000       A     3.40147e-01     4.51858e-01
 f28bf                                  9      0.0000       0.00000       A     3.03571e-01     3.48476e-01
 f29bf                                  9      0.0000       0.00000       A     3.03571e-01     3.48476e-01
 f30bf                                  9      0.0000       0.00000       A     3.03571e-01     3.48476e-01
 h31bf                                  1      0.0000       0.00000       A     2.42205e-01     8.61909e-02
 h32bf                                  1      0.0000       0.00000       A     2.42205e-01     8.61909e-02
 h33bf                                  1      0.0000       0.00000       A     2.42205e-01     8.61909e-02
 h34bf                                  1      0.0000       0.00000       A     1.10384e-01     3.90095e-02
 h35bf                                  1      0.0000       0.00000       A     1.10384e-01     3.90095e-02
 h36bf                                  1      0.0000       0.00000       A     2.59990e-01     8.73194e-02
 h37bf                                  1      0.0000       0.00000       A     2.59990e-01     8.73194e-02
 h38bf                                  1      0.0000       0.00000       A     2.59990e-01     8.73194e-02
 h39bf                                  1      0.0000       0.00000       A     2.62782e-01     6.80085e-02
 h40bf                                  1      0.0000       0.00000       A     2.62514e-01     6.73797e-02
 h41bf                                  1      0.0000       0.00000       A     2.62617e-01     6.73749e-02
 h42bf                                  1      0.0000       0.00000       A     1.10735e-01     3.92473e-02
 h43bf                                  1      0.0000       0.00000       A     2.53990e-01     6.69471e-02
 h44bf                                  1      0.0000       0.00000       A     2.53458e-01     6.72408e-02
 h45bf                                  1      0.0000       0.00000       A     2.41860e-01     8.80631e-02
 h46bf                                  1      0.0000       0.00000       A     2.41860e-01     8.80631e-02
 h47bf                                  1      0.0000       0.00000       A     1.10570e-01     4.04157e-02

[ moleculetype ]
;name             nrexcl
 8e                    3

[ atoms ]
;       nr            type      resi   res      atom      cgnr      charge          mass ; qtot
         1            c0bf         1   UNL        c0         1     0.07169       12.0110 ; qtot    0.072
         2            n1bf         1   UNL        n1         2    -0.59261       14.0070 ; qtot   -0.521
         3            c2bf         1   UNL        c2         3     0.94383       12.0110 ; qtot    0.423
         4            n3bf         1   UNL        n3         4    -0.59191       14.0070 ; qtot   -0.169
         5            n4bf         1   UNL        n4         5    -0.63159       14.0070 ; qtot   -0.801
         6            c5bf         1   UNL        c5         6     0.07985       12.0110 ; qtot   -0.721
         7            c6bf         1   UNL        c6         7    -0.09013       12.0110 ; qtot   -0.811
         8            c7bf         1   UNL        c7         8     0.54214       12.0110 ; qtot   -0.269
         9            o8bf         1   UNL        o8         9    -0.37895       15.9990 ; qtot   -0.648
        10            c9bf         1   UNL        c9        10    -0.13159       12.0110 ; qtot   -0.779
        11           c10bf         1   UNL       c10        11    -0.08194       12.0110 ; qtot   -0.861
        12           c11bf         1   UNL       c11        12    -0.01872       12.0110 ; qtot   -0.880
        13           c12bf         1   UNL       c12        13    -0.12265       12.0110 ; qtot   -1.003
        14           c13bf         1   UNL       c13        14    -0.09389       12.0110 ; qtot   -1.096
        15           c14bf         1   UNL       c14        15     0.16381       12.0110 ; qtot   -0.933
        16           f15bf         1   UNL       f15        16    -0.17796       18.9980 ; qtot   -1.111
        17           n16bf         1   UNL       n16        17    -0.13079       14.0070 ; qtot   -1.241
        18           c17bf         1   UNL       c17        18     0.52253       12.0110 ; qtot   -0.719
        19           o18bf         1   UNL       o18        19    -0.57505       15.9990 ; qtot   -1.294
        20           c19bf         1   UNL       c19        20     0.18226       12.0110 ; qtot   -1.112
        21           c20bf         1   UNL       c20        21     0.39640       12.0110 ; qtot   -0.715
        22           n21bf         1   UNL       n21        22    -0.71669       14.0070 ; qtot   -1.432
        23           c22bf         1   UNL       c22        23     0.55607       12.0110 ; qtot   -0.876
        24           c23bf         1   UNL       c23        24     0.26634       12.0110 ; qtot   -0.610
        25           n24bf         1   UNL       n24        25    -0.59739       14.0070 ; qtot   -1.207
        26           o25bf         1   UNL       o25        26    -0.43490       15.9990 ; qtot   -1.642
        27           c26bf         1   UNL       c26        27     0.10130       12.0110 ; qtot   -1.541
        28           c27bf         1   UNL       c27        28     0.27282       12.0110 ; qtot   -1.268
        29           f28bf         1   UNL       f28        29    -0.09827       18.9980 ; qtot   -1.366
        30           f29bf         1   UNL       f29        30    -0.09827       18.9980 ; qtot   -1.464
        31           f30bf         1   UNL       f30        31    -0.09827       18.9980 ; qtot   -1.563
        32           h31bf         1   UNL       h31        32     0.08969        1.0080 ; qtot   -1.473
        33           h32bf         1   UNL       h32        33     0.08969        1.0080 ; qtot   -1.383
        34           h33bf         1   UNL       h33        34     0.08969        1.0080 ; qtot   -1.293
        35           h34bf         1   UNL       h34        35     0.38402        1.0080 ; qtot   -0.909
        36           h35bf         1   UNL       h35        36     0.38402        1.0080 ; qtot   -0.525
        37           h36bf         1   UNL       h36        37     0.07042        1.0080 ; qtot   -0.455
        38           h37bf         1   UNL       h37        38     0.07042        1.0080 ; qtot   -0.385
        39           h38bf         1   UNL       h38        39     0.07042        1.0080 ; qtot   -0.314
        40           h39bf         1   UNL       h39        40     0.15060        1.0080 ; qtot   -0.164
        41           h40bf         1   UNL       h40        41     0.13828        1.0080 ; qtot   -0.025
        42           h41bf         1   UNL       h41        42     0.14141        1.0080 ; qtot    0.116
        43           h42bf         1   UNL       h42        43     0.18214        1.0080 ; qtot    0.298
        44           h43bf         1   UNL       h43        44     0.05518        1.0080 ; qtot    0.353
        45           h44bf         1   UNL       h44        45     0.05009        1.0080 ; qtot    0.404
        46           h45bf         1   UNL       h45        46     0.09224        1.0080 ; qtot    0.496
        47           h46bf         1   UNL       h46        47     0.09224        1.0080 ; qtot    0.588
        48           h47bf         1   UNL       h47        48     0.41198        1.0080 ; qtot    1.000

[ bonds ]
;       ai        aj funct               r               k
         1         2     1        0.146714   195444.487109
         1        32     1        0.109021   312395.586670
         1        33     1        0.109021   312395.586670
         1        34     1        0.109021   312395.586670
         2         3     1        0.135566   306947.882812
         2         8     1        0.142287   150670.349854
         3         4     1        0.133064   418457.535107
         3         5     1        0.133256   388039.237109
         4        35     1        0.101330   425081.325000
         4        36     1        0.101330   425081.325000
         5         6     1        0.148655   143933.890234
         5        48     1        0.101372   424026.412549
         6         7     1        0.153767   166501.008252
         6         8     1        0.154570   127648.901123
         6        10     1        0.152214   168512.745117
         7        37     1        0.109163   308958.342822
         7        38     1        0.109163   308958.342822
         7        39     1        0.109163   308958.342822
         8         9     1        0.120308   721943.581836
        10        11     1        0.139916   300782.049902
        10        15     1        0.139704   284812.316406
        11        12     1        0.140375   285706.855811
        11        40     1        0.108294   326777.958984
        12        13     1        0.140462   285017.558154
        12        17     1        0.140725   250016.012988
        13        14     1        0.139445   325229.720654
        13        41     1        0.108344   327149.447314
        14        15     1        0.138764   314481.508838
        14        42     1        0.108484   324632.203369
        15        16     1        0.136440   273896.479004
        17        18     1        0.136555   288362.638574
        17        43     1        0.101676   403619.197705
        18        19     1        0.123138   599485.379102
        18        20     1        0.150636   172131.085376
        20        21     1        0.139738   275366.446094
        20        25     1        0.134577   291942.992383
        21        22     1        0.134104   333491.818262
        21        44     1        0.108576   323728.087549
        22        23     1        0.132907   308219.784082
        23        24     1        0.141357   242602.590137
        23        26     1        0.135697   273422.305957
        24        25     1        0.132499   360539.039062
        24        45     1        0.108600   321907.930078
        26        27     1        0.142398   199130.998682
        27        28     1        0.152358   198531.859790
        27        46     1        0.109140   309198.417187
        27        47     1        0.109140   309198.417187
        28        29     1        0.135220   238241.464746
        28        30     1        0.135220   238241.490283
        28        31     1        0.135220   238241.490283

[ angles ]
;       ai        aj        ak funct           theta             cth
         1         2         3     1      126.571388      467.132881
         1         2         8     1      123.233597      530.506953
         2         1        32     1      109.240211      484.420004
         2         1        33     1      109.240211      484.420004
         2         1        34     1      109.240211      484.420004
         2         3         4     1      123.759987      625.684461
         2         3         5     1      111.359451      578.377605
         2         8         6     1      106.590225      167.360000
         2         8         9     1      124.686424      648.671371
         3         2         8     1      109.825668      828.553046
         3         4        35     1      121.315735      451.251097
         3         4        36     1      121.315735      451.251097
         3         5         6     1      111.828995      618.308961
         3         5        48     1      123.420799      427.645264
         4         3         5     1      125.474426      616.890439
         5         6         7     1      110.438828      626.901432
         5         6         8     1      100.861259      337.715631
         5         6        10     1      111.269249      600.543113
         6         5        48     1      121.293442      371.055157
         6         7        37     1      110.082191      481.458369
         6         7        38     1      110.082191      481.458369
         6         7        39     1      110.082191      481.458369
         6         8         9     1      127.385330      365.947927
         6        10        11     1      121.006004      432.389548
         6        10        15     1      120.931961      550.111217
         7         6         8     1      109.758812      624.225399
         7         6        10     1      113.407486      615.903365
         8         6        10     1      111.934433      574.899578
        10        11        12     1      121.162643      693.322241
        10        11        40     1      119.608627      390.075068
        10        15        14     1      122.224182      567.978702
        10        15        16     1      119.054161      484.999441
        11        10        15     1      117.726944      647.104031
        11        12        13     1      119.199059      574.830756
        11        12        17     1      119.923485      494.500522
        12        11        40     1      119.233658      433.124506
        12        13        14     1      119.717796      725.834748
        12        13        41     1      120.032249      446.585467
        12        17        18     1      129.124100      471.220287
        12        17        43     1      117.184875      395.921343
        13        12        17     1      120.532669      594.768535
        13        14        15     1      119.245583      696.598844
        13        14        42     1      121.065163      424.886490
        14        13        41     1      120.181984      387.275818
        14        15        16     1      118.472336      549.776042
        15        14        42     1      119.539207      439.284599
        17        18        19     1      126.178810      588.533458
        17        18        20     1      112.908447      483.548741
        18        17        43     1      113.908752      463.718665
        18        20        21     1      120.185524      556.533927
        18        20        25     1      118.528160      492.369610
        19        18        20     1      121.038818      683.784067
        20        21        22     1      122.028564      662.836423
        20        21        44     1      120.284828      371.133205
        20        25        24     1      117.592323      739.894459
        21        20        25     1      120.819031      564.260499
        21        22        23     1      116.457870      910.071457
        22        21        44     1      117.149452      373.310722
        22        23        24     1      122.026184      580.588863
        22        23        26     1      119.689011      627.066402
        23        24        25     1      120.835876      764.180122
        23        24        45     1      120.677170      405.171554
        23        26        27     1      117.433853      539.805078
        24        23        26     1      118.125900      550.473844
        25        24        45     1      118.297363      383.922955
        26        27        28     1      108.920326      528.976769
        26        27        46     1      110.153969      456.857099
        26        27        47     1      110.153969      456.857099
        27        28        29     1      111.178238      539.054861
        27        28        30     1      111.178238      539.054861
        27        28        31     1      111.178238      539.054861
        28        27        46     1      108.466049      500.091489
        28        27        47     1      108.466049      500.091489
        29        28        30     1      107.584755      715.218461
        29        28        31     1      107.584755      715.218461
        30        28        31     1      107.584755      715.218461
        32         1        33     1      109.820786      349.271620
        32         1        34     1      109.820786      349.271620
        33         1        34     1      109.820786      349.271620
        35         4        36     1      117.429977      314.388120
        37         7        38     1      108.825966      356.972016
        37         7        39     1      108.825966      356.972016
        38         7        39     1      108.825966      356.972016
        46        27        47     1      109.812119      337.888964

[ dihedrals ] ; propers for gromacs 4.5 or higher, use funct 9
;       ai        aj        ak        al funct           phase               k        pn
         1         2         3         4     9        0.000000        1.599495         1
         1         2         3         4     9      180.000000        7.578126         2
         1         2         3         4     9        0.000000       -0.093223         3
         1         2         3         4     9      180.000000       -0.115320         4
         1         2         3         5     9        0.000000       -2.923610         1
         1         2         3         5     9      180.000000        5.868836         2
         1         2         3         5     9        0.000000       -0.269856         3
         1         2         3         5     9      180.000000        0.035689         4
         1         2         8         6     9        0.000000       -1.302991         1
         1         2         8         6     9      180.000000        6.283166         2
         1         2         8         6     9        0.000000        0.203360         3
         1         2         8         6     9      180.000000       -0.119801         4
         1         2         8         9     9        0.000000       -0.460703         1
         1         2         8         9     9      180.000000        9.293864         2
         1         2         8         9     9        0.000000       -0.402775         3
         1         2         8         9     9      180.000000        0.295992         4
         2         3         4        35     9        0.000000       -0.591065         1
         2         3         4        35     9      180.000000        6.284743         2
         2         3         4        35     9        0.000000        0.292040         3
         2         3         4        35     9      180.000000       -0.656689         4
         2         3         4        36     9        0.000000       -0.591065         1
         2         3         4        36     9      180.000000        6.284743         2
         2         3         4        36     9        0.000000        0.292040         3
         2         3         4        36     9      180.000000       -0.656689         4
         2         3         5         6     9        0.000000       -1.367834         1
         2         3         5         6     9      180.000000       22.403243         2
         2         3         5         6     9        0.000000       -1.367706         3
         2         3         5         6     9      180.000000       -2.690361         4
         2         3         5        48     9        0.000000       -0.204263         1
         2         3         5        48     9      180.000000        8.685806         2
         2         3         5        48     9        0.000000        0.182519         3
         2         3         5        48     9      180.000000       -0.741259         4
         2         8         6         5     9        0.000000        1.629437         1
         2         8         6         5     9      180.000000        8.216158         2
         2         8         6         5     9        0.000000       -0.299804         3
         2         8         6         5     9      180.000000       -0.363897         4
         2         8         6         7     9        0.000000       -1.509550         1
         2         8         6         7     9      180.000000        1.790050         2
         2         8         6         7     9        0.000000        0.165432         3
         2         8         6         7     9      180.000000        0.771944         4
         2         8         6        10     9        0.000000        0.515624         1
         2         8         6        10     9      180.000000        1.383855         2
         2         8         6        10     9        0.000000        0.314773         3
         2         8         6        10     9      180.000000        0.709418         4
         3         2         1        32     9        0.000000        0.018149         1
         3         2         1        32     9      180.000000        0.003520         2
         3         2         1        32     9        0.000000        0.166582         3
         3         2         1        32     9      180.000000       -0.014426         4
         3         2         1        33     9        0.000000        0.018149         1
         3         2         1        33     9      180.000000        0.003520         2
         3         2         1        33     9        0.000000        0.166582         3
         3         2         1        33     9      180.000000       -0.014426         4
         3         2         1        34     9        0.000000        0.018149         1
         3         2         1        34     9      180.000000        0.003520         2
         3         2         1        34     9        0.000000        0.166582         3
         3         2         1        34     9      180.000000       -0.014426         4
         3         2         8         6     9        0.000000       -3.215038         1
         3         2         8         6     9      180.000000       11.505431         2
         3         2         8         6     9        0.000000       -1.456301         3
         3         2         8         6     9      180.000000       -0.403047         4
         3         2         8         9     9        0.000000        1.397901         1
         3         2         8         9     9      180.000000       16.661243         2
         3         2         8         9     9        0.000000       -0.507341         3
         3         2         8         9     9      180.000000       -0.823848         4
         3         5         6         7     9        0.000000       -2.282497         1
         3         5         6         7     9      180.000000        1.439376         2
         3         5         6         7     9        0.000000        0.287212         3
         3         5         6         7     9      180.000000        0.161398         4
         3         5         6         8     9        0.000000       -1.363353         1
         3         5         6         8     9      180.000000        5.565697         2
         3         5         6         8     9        0.000000       -0.332818         3
         3         5         6         8     9      180.000000       -1.415947         4
         3         5         6        10     9        0.000000       -0.020486         1
         3         5         6        10     9      180.000000        0.198410         2
         3         5         6        10     9        0.000000        0.276196         3
         3         5         6        10     9      180.000000        0.183631         4
         4         3         2         8     9        0.000000        1.218708         1
         4         3         2         8     9      180.000000       12.770568         2
         4         3         2         8     9        0.000000       -0.294969         3
         4         3         2         8     9      180.000000       -0.757301         4
         4         3         5         6     9        0.000000        2.198400         1
         4         3         5         6     9      180.000000       18.059894         2
         4         3         5         6     9        0.000000        0.789177         3
         4         3         5         6     9      180.000000       -1.913777         4
         4         3         5        48     9        0.000000       -0.821607         1
         4         3         5        48     9      180.000000        8.114786         2
         4         3         5        48     9        0.000000        0.392186         3
         4         3         5        48     9      180.000000       -0.429850         4
         5         3         2         8     9        0.000000       -1.530321         1
         5         3         2         8     9      180.000000       14.774035         2
         5         3         2         8     9        0.000000       -2.727240         3
         5         3         2         8     9      180.000000       -1.364456         4
         5         3         4        35     9        0.000000       -1.960720         1
         5         3         4        35     9      180.000000        6.682940         2
         5         3         4        35     9        0.000000       -0.053858         3
         5         3         4        35     9      180.000000       -0.491559         4
         5         3         4        36     9        0.000000       -1.960720         1
         5         3         4        36     9      180.000000        6.682940         2
         5         3         4        36     9        0.000000       -0.053858         3
         5         3         4        36     9      180.000000       -0.491559         4
         5         6         7        37     9        0.000000       -0.085960         1
         5         6         7        37     9      180.000000        0.030650         2
         5         6         7        37     9        0.000000        0.660417         3
         5         6         7        37     9      180.000000       -0.014833         4
         5         6         7        38     9        0.000000       -0.085960         1
         5         6         7        38     9      180.000000        0.030650         2
         5         6         7        38     9        0.000000        0.660417         3
         5         6         7        38     9      180.000000       -0.014833         4
         5         6         7        39     9        0.000000       -0.085960         1
         5         6         7        39     9      180.000000        0.030650         2
         5         6         7        39     9        0.000000        0.660417         3
         5         6         7        39     9      180.000000       -0.014833         4
         5         6         8         9     9        0.000000        8.517339         1
         5         6         8         9     9      180.000000        5.269418         2
         5         6         8         9     9        0.000000       -0.029531         3
         5         6         8         9     9      180.000000        0.420526         4
         5         6        10        11     9        0.000000        0.502052         1
         5         6        10        11     9      180.000000        0.969835         2
         5         6        10        11     9        0.000000       -0.294484         3
         5         6        10        11     9      180.000000        0.119679         4
         5         6        10        15     9        0.000000        1.533166         1
         5         6        10        15     9      180.000000       -0.461769         2
         5         6        10        15     9        0.000000        0.357293         3
         5         6        10        15     9      180.000000        0.163375         4
         6        10        11        12     9        0.000000        0.165028         1
         6        10        11        12     9      180.000000       14.993239         2
         6        10        11        12     9        0.000000       -0.129239         3
         6        10        11        12     9      180.000000       -0.239569         4
         6        10        11        40     9        0.000000       -0.044270         1
         6        10        11        40     9      180.000000       12.743415         2
         6        10        11        40     9        0.000000       -0.415143         3
         6        10        11        40     9      180.000000        0.108809         4
         6        10        15        14     9        0.000000       -0.033452         1
         6        10        15        14     9      180.000000       12.579810         2
         6        10        15        14     9        0.000000       -0.170552         3
         6        10        15        14     9      180.000000       -0.144057         4
         6        10        15        16     9        0.000000        0.455922         1
         6        10        15        16     9      180.000000       16.866942         2
         6        10        15        16     9        0.000000        0.474656         3
         6        10        15        16     9      180.000000       -0.449330         4
         7         6         5        48     9        0.000000       -0.523429         1
         7         6         5        48     9      180.000000        0.689486         2
         7         6         5        48     9        0.000000        0.185998         3
         7         6         5        48     9      180.000000       -0.006876         4
         7         6         8         9     9        0.000000       -0.115781         1
         7         6         8         9     9      180.000000        1.398352         2
         7         6         8         9     9        0.000000       -0.582065         3
         7         6         8         9     9      180.000000        0.594232         4
         7         6        10        11     9        0.000000       -0.325501         1
         7         6        10        11     9      180.000000        1.123008         2
         7         6        10        11     9        0.000000       -0.230286         3
         7         6        10        11     9      180.000000        0.114809         4
         7         6        10        15     9        0.000000        0.049173         1
         7         6        10        15     9      180.000000        0.994497         2
         7         6        10        15     9        0.000000        0.422901         3
         7         6        10        15     9      180.000000        0.074925         4
         8         2         1        32     9        0.000000       -0.068797         1
         8         2         1        32     9      180.000000       -0.069227         2
         8         2         1        32     9        0.000000       -0.295898         3
         8         2         1        32     9      180.000000        0.049318         4
         8         2         1        33     9        0.000000       -0.068797         1
         8         2         1        33     9      180.000000       -0.069227         2
         8         2         1        33     9        0.000000       -0.295898         3
         8         2         1        33     9      180.000000        0.049318         4
         8         2         1        34     9        0.000000       -0.068797         1
         8         2         1        34     9      180.000000       -0.069227         2
         8         2         1        34     9        0.000000       -0.295898         3
         8         2         1        34     9      180.000000        0.049318         4
         8         6         5        48     9        0.000000        0.036658         1
         8         6         5        48     9      180.000000       -0.486736         2
         8         6         5        48     9        0.000000        0.212987         3
         8         6         5        48     9      180.000000        0.212351         4
         8         6         7        37     9        0.000000        0.004006         1
         8         6         7        37     9      180.000000        0.053059         2
         8         6         7        37     9        0.000000        0.403325         3
         8         6         7        37     9      180.000000        0.009410         4
         8         6         7        38     9        0.000000        0.004006         1
         8         6         7        38     9      180.000000        0.053059         2
         8         6         7        38     9        0.000000        0.403325         3
         8         6         7        38     9      180.000000        0.009410         4
         8         6         7        39     9        0.000000        0.004006         1
         8         6         7        39     9      180.000000        0.053059         2
         8         6         7        39     9        0.000000        0.403325         3
         8         6         7        39     9      180.000000        0.009410         4
         8         6        10        11     9        0.000000       -0.607728         1
         8         6        10        11     9      180.000000       -0.235253         2
         8         6        10        11     9        0.000000       -0.099207         3
         8         6        10        11     9      180.000000        0.218484         4
         8         6        10        15     9        0.000000        1.139563         1
         8         6        10        15     9      180.000000       -0.358900         2
         8         6        10        15     9        0.000000        0.065221         3
         8         6        10        15     9      180.000000        0.137299         4
         9         8         6        10     9        0.000000        0.717654         1
         9         8         6        10     9      180.000000        1.669794         2
         9         8         6        10     9        0.000000       -0.515925         3
         9         8         6        10     9      180.000000        0.329374         4
        10         6         5        48     9        0.000000        1.255775         1
        10         6         5        48     9      180.000000        0.271894         2
        10         6         5        48     9        0.000000        0.142494         3
        10         6         5        48     9      180.000000       -0.033936         4
        10         6         7        37     9        0.000000       -0.061051         1
        10         6         7        37     9      180.000000        0.040302         2
        10         6         7        37     9        0.000000        0.637754         3
        10         6         7        37     9      180.000000        0.056715         4
        10         6         7        38     9        0.000000       -0.061051         1
        10         6         7        38     9      180.000000        0.040302         2
        10         6         7        38     9        0.000000        0.637754         3
        10         6         7        38     9      180.000000        0.056715         4
        10         6         7        39     9        0.000000       -0.061051         1
        10         6         7        39     9      180.000000        0.040302         2
        10         6         7        39     9        0.000000        0.637754         3
        10         6         7        39     9      180.000000        0.056715         4
        10        11        12        13     9        0.000000        0.105347         1
        10        11        12        13     9      180.000000       16.095151         2
        10        11        12        13     9        0.000000       -1.220409         3
        10        11        12        13     9      180.000000       -0.280296         4
        10        11        12        17     9        0.000000        0.028438         1
        10        11        12        17     9      180.000000       17.459732         2
        10        11        12        17     9        0.000000       -0.216725         3
        10        11        12        17     9      180.000000       -0.346716         4
        10        15        14        13     9        0.000000       -0.003413         1
        10        15        14        13     9      180.000000       16.777625         2
        10        15        14        13     9        0.000000       -1.249201         3
        10        15        14        13     9      180.000000       -0.311406         4
        10        15        14        42     9        0.000000       -0.023555         1
        10        15        14        42     9      180.000000       12.721594         2
        10        15        14        42     9        0.000000       -0.564623         3
        10        15        14        42     9      180.000000        0.142975         4
        11        10        15        14     9        0.000000       -0.150147         1
        11        10        15        14     9      180.000000       17.246174         2
        11        10        15        14     9        0.000000       -1.168047         3
        11        10        15        14     9      180.000000       -0.373540         4
        11        10        15        16     9        0.000000        0.434843         1
        11        10        15        16     9      180.000000       22.849241         2
        11        10        15        16     9        0.000000        0.269891         3
        11        10        15        16     9      180.000000       -0.713510         4
        11        12        13        14     9        0.000000        0.029199         1
        11        12        13        14     9      180.000000       16.623568         2
        11        12        13        14     9        0.000000       -1.098236         3
        11        12        13        14     9      180.000000       -0.154414         4
        11        12        13        41     9        0.000000        0.106821         1
        11        12        13        41     9      180.000000       13.045076         2
        11        12        13        41     9        0.000000       -0.430187         3
        11        12        13        41     9      180.000000        0.152603         4
        11        12        17        18     9        0.000000        0.001639         1
        11        12        17        18     9      180.000000        2.532177         2
        11        12        17        18     9        0.000000        0.038402         3
        11        12        17        18     9      180.000000        0.064065         4
        11        12        17        43     9        0.000000        0.187515         1
        11        12        17        43     9      180.000000        2.766510         2
        11        12        17        43     9        0.000000        0.052890         3
        11        12        17        43     9      180.000000        0.298058         4
        12        11        10        15     9        0.000000       -0.200505         1
        12        11        10        15     9      180.000000       18.452251         2
        12        11        10        15     9        0.000000       -1.855904         3
        12        11        10        15     9      180.000000       -0.403516         4
        12        13        14        15     9        0.000000       -0.027450         1
        12        13        14        15     9      180.000000       18.548059         2
        12        13        14        15     9        0.000000       -1.842291         3
        12        13        14        15     9      180.000000       -0.376928         4
        12        13        14        42     9        0.000000        0.137039         1
        12        13        14        42     9      180.000000       14.120303         2
        12        13        14        42     9        0.000000       -0.494889         3
        12        13        14        42     9      180.000000        0.087535         4
        12        17        18        19     9        0.000000       -0.971125         1
        12        17        18        19     9      180.000000       11.017134         2
        12        17        18        19     9        0.000000        0.341913         3
        12        17        18        19     9      180.000000       -0.860145         4
        12        17        18        20     9        0.000000        2.400743         1
        12        17        18        20     9      180.000000        8.528044         2
        12        17        18        20     9        0.000000        0.456115         3
        12        17        18        20     9      180.000000       -0.752266         4
        13        12        11        40     9        0.000000        0.079303         1
        13        12        11        40     9      180.000000       12.660684         2
        13        12        11        40     9        0.000000       -0.636056         3
        13        12        11        40     9      180.000000        0.129885         4
        13        12        17        18     9        0.000000        0.129104         1
        13        12        17        18     9      180.000000        2.527596         2
        13        12        17        18     9        0.000000        0.093618         3
        13        12        17        18     9      180.000000        0.053058         4
        13        12        17        43     9        0.000000        0.018810         1
        13        12        17        43     9      180.000000        2.577881         2
        13        12        17        43     9        0.000000        0.111591         3
        13        12        17        43     9      180.000000        0.331806         4
        13        14        15        16     9        0.000000        0.477148         1
        13        14        15        16     9      180.000000       23.472783         2
        13        14        15        16     9        0.000000        0.516963         3
        13        14        15        16     9      180.000000       -0.560604         4
        14        13        12        17     9        0.000000        0.227666         1
        14        13        12        17     9      180.000000       18.131906         2
        14        13        12        17     9        0.000000        0.047869         3
        14        13        12        17     9      180.000000       -0.281060         4
        15        10        11        40     9        0.000000        0.073242         1
        15        10        11        40     9      180.000000       14.655217         2
        15        10        11        40     9        0.000000       -0.589062         3
        15        10        11        40     9      180.000000        0.110738         4
        15        14        13        41     9        0.000000        0.209604         1
        15        14        13        41     9      180.000000       14.873967         2
        15        14        13        41     9        0.000000       -0.478474         3
        15        14        13        41     9      180.000000        0.131121         4
        16        15        14        42     9        0.000000        0.119792         1
        16        15        14        42     9      180.000000       16.654960         2
        16        15        14        42     9        0.000000        0.308636         3
        16        15        14        42     9      180.000000        0.191127         4
        17        12        11        40     9        0.000000       -0.117051         1
        17        12        11        40     9      180.000000       14.103079         2
        17        12        11        40     9        0.000000       -0.218396         3
        17        12        11        40     9      180.000000        0.291669         4
        17        12        13        41     9        0.000000       -0.010557         1
        17        12        13        41     9      180.000000       14.039979         2
        17        12        13        41     9        0.000000       -0.158607         3
        17        12        13        41     9      180.000000        0.220954         4
        17        18        20        21     9        0.000000       -0.401426         1
        17        18        20        21     9      180.000000        3.558737         2
        17        18        20        21     9        0.000000       -0.258854         3
        17        18        20        21     9      180.000000       -0.045035         4
        17        18        20        25     9        0.000000        1.600804         1
        17        18        20        25     9      180.000000        3.803173         2
        17        18        20        25     9        0.000000        0.514187         3
        17        18        20        25     9      180.000000       -0.201238         4
        18        20        21        22     9        0.000000       -0.160520         1
        18        20        21        22     9      180.000000       12.886722         2
        18        20        21        22     9        0.000000        0.109801         3
        18        20        21        22     9      180.000000       -0.613506         4
        18        20        21        44     9        0.000000        0.171151         1
        18        20        21        44     9      180.000000       11.100508         2
        18        20        21        44     9        0.000000       -0.370177         3
        18        20        21        44     9      180.000000        0.036745         4
        18        20        25        24     9        0.000000        0.634218         1
        18        20        25        24     9      180.000000       20.017523         2
        18        20        25        24     9        0.000000        0.872430         3
        18        20        25        24     9      180.000000       -0.865466         4
        19        18        17        43     9        0.000000       -0.172045         1
        19        18        17        43     9      180.000000       11.062711         2
        19        18        17        43     9        0.000000        0.302749         3
        19        18        17        43     9      180.000000        0.825114         4
        19        18        20        21     9        0.000000        1.442797         1
        19        18        20        21     9      180.000000        4.344900         2
        19        18        20        21     9        0.000000       -0.634888         3
        19        18        20        21     9      180.000000        0.322917         4
        19        18        20        25     9        0.000000       -4.067854         1
        19        18        20        25     9      180.000000        4.651405         2
        19        18        20        25     9        0.000000        0.557911         3
        19        18        20        25     9      180.000000        0.106111         4
        20        18        17        43     9        0.000000        0.689635         1
        20        18        17        43     9      180.000000        7.661763         2
        20        18        17        43     9        0.000000       -0.021838         3
        20        18        17        43     9      180.000000        0.353040         4
        20        21        22        23     9        0.000000       -0.002350         1
        20        21        22        23     9      180.000000       21.900326         2
        20        21        22        23     9        0.000000       -0.980403         3
        20        21        22        23     9      180.000000       -0.469596         4
        20        25        24        23     9        0.000000       -0.245458         1
        20        25        24        23     9      180.000000       24.527961         2
        20        25        24        23     9        0.000000       -0.709021         3
        20        25        24        23     9      180.000000       -0.472767         4
        20        25        24        45     9        0.000000        0.640965         1
        20        25        24        45     9      180.000000       21.460712         2
        20        25        24        45     9        0.000000        0.188942         3
        20        25        24        45     9      180.000000       -0.515198         4
        21        20        25        24     9        0.000000       -0.658664         1
        21        20        25        24     9      180.000000       20.704287         2
        21        20        25        24     9        0.000000       -0.675973         3
        21        20        25        24     9      180.000000       -0.107470         4
        21        22        23        24     9        0.000000        0.183099         1
        21        22        23        24     9      180.000000       18.275864         2
        21        22        23        24     9        0.000000        0.321420         3
        21        22        23        24     9      180.000000       -0.252162         4
        21        22        23        26     9        0.000000        1.327929         1
        21        22        23        26     9      180.000000       26.268043         2
        21        22        23        26     9        0.000000        1.133466         3
        21        22        23        26     9      180.000000       -0.901393         4
        22        21        20        25     9        0.000000       -0.349408         1
        22        21        20        25     9      180.000000       16.303013         2
        22        21        20        25     9        0.000000       -0.059212         3
        22        21        20        25     9      180.000000       -0.699416         4
        22        23        24        25     9        0.000000       -1.589599         1
        22        23        24        25     9      180.000000        9.619143         2
        22        23        24        25     9        0.000000        0.076803         3
        22        23        24        25     9      180.000000       -0.709629         4
        22        23        24        45     9        0.000000       -0.334739         1
        22        23        24        45     9      180.000000        8.237160         2
        22        23        24        45     9        0.000000       -0.248389         3
        22        23        24        45     9      180.000000       -0.159459         4
        22        23        26        27     9        0.000000        1.518497         1
        22        23        26        27     9      180.000000        7.577770         2
        22        23        26        27     9        0.000000        0.391304         3
        22        23        26        27     9      180.000000       -0.003202         4
        23        22        21        44     9        0.000000        0.853299         1
        23        22        21        44     9      180.000000       18.237921         2
        23        22        21        44     9        0.000000        0.324192         3
        23        22        21        44     9      180.000000       -0.237028         4
        23        26        27        28     9        0.000000        2.448775         1
        23        26        27        28     9      180.000000       -1.713556         2
        23        26        27        28     9        0.000000       -0.073004         3
        23        26        27        28     9      180.000000        0.074686         4
        23        26        27        46     9        0.000000        0.284256         1
        23        26        27        46     9      180.000000        0.044093         2
        23        26        27        46     9        0.000000        0.129768         3
        23        26        27        46     9      180.000000        0.004835         4
        23        26        27        47     9        0.000000        0.284256         1
        23        26        27        47     9      180.000000        0.044093         2
        23        26        27        47     9        0.000000        0.129768         3
        23        26        27        47     9      180.000000        0.004835         4
        24        23        26        27     9        0.000000        0.816999         1
        24        23        26        27     9      180.000000        6.669642         2
        24        23        26        27     9        0.000000        0.204393         3
        24        23        26        27     9      180.000000        0.143064         4
        25        20        21        44     9        0.000000        0.137933         1
        25        20        21        44     9      180.000000       12.095593         2
        25        20        21        44     9        0.000000       -0.103619         3
        25        20        21        44     9      180.000000       -0.287737         4
        25        24        23        26     9        0.000000       -0.384276         1
        25        24        23        26     9      180.000000       12.585602         2
        25        24        23        26     9        0.000000        0.428384         3
        25        24        23        26     9      180.000000       -0.747452         4
        26        23        24        45     9        0.000000        0.022941         1
        26        23        24        45     9      180.000000       10.710063         2
        26        23        24        45     9        0.000000       -0.043625         3
        26        23        24        45     9      180.000000       -0.047011         4
        26        27        28        29     9        0.000000        0.137832         1
        26        27        28        29     9      180.000000        0.127823         2
        26        27        28        29     9        0.000000        0.472670         3
        26        27        28        29     9      180.000000       -0.016748         4
        26        27        28        30     9        0.000000        0.137832         1
        26        27        28        30     9      180.000000        0.127823         2
        26        27        28        30     9        0.000000        0.472670         3
        26        27        28        30     9      180.000000       -0.016748         4
        26        27        28        31     9        0.000000        0.137832         1
        26        27        28        31     9      180.000000        0.127823         2
        26        27        28        31     9        0.000000        0.472670         3
        26        27        28        31     9      180.000000       -0.016748         4
        29        28        27        46     9        0.000000       -0.015104         1
        29        28        27        46     9      180.000000       -0.019407         2
        29        28        27        46     9        0.000000        0.491643         3
        29        28        27        46     9      180.000000       -0.015886         4
        29        28        27        47     9        0.000000       -0.015104         1
        29        28        27        47     9      180.000000       -0.019407         2
        29        28        27        47     9        0.000000        0.491643         3
        29        28        27        47     9      180.000000       -0.015886         4
        30        28        27        46     9        0.000000       -0.015104         1
        30        28        27        46     9      180.000000       -0.019407         2
        30        28        27        46     9        0.000000        0.491643         3
        30        28        27        46     9      180.000000       -0.015886         4
        30        28        27        47     9        0.000000       -0.015104         1
        30        28        27        47     9      180.000000       -0.019407         2
        30        28        27        47     9        0.000000        0.491643         3
        30        28        27        47     9      180.000000       -0.015886         4
        31        28        27        46     9        0.000000       -0.015104         1
        31        28        27        46     9      180.000000       -0.019407         2
        31        28        27        46     9        0.000000        0.491643         3
        31        28        27        46     9      180.000000       -0.015886         4
        31        28        27        47     9        0.000000       -0.015104         1
        31        28        27        47     9      180.000000       -0.019407         2
        31        28        27        47     9        0.000000        0.491643         3
        31        28        27        47     9      180.000000       -0.015886         4
        41        13        14        42     9        0.000000       -0.092304         1
        41        13        14        42     9      180.000000       11.930863         2
        41        13        14        42     9        0.000000       -0.744482         3
        41        13        14        42     9      180.000000        0.257666         4

[ dihedrals ] ; impropers
;       ai        aj        ak        al funct           phase               k        pn
         3         2         4         5     4      180.000000       11.127059         2
         3         4         5         2     4      180.000000       11.127059         2
         3         5         2         4     4      180.000000       11.127059         2
         8         2         6         9     4      180.000000       25.851492         2
         8         6         9         2     4      180.000000       25.851492         2
         8         9         2         6     4      180.000000       25.851492         2
        18        17        19        20     4      180.000000       27.893333         2
        18        19        20        17     4      180.000000       27.893333         2
        18        20        17        19     4      180.000000       27.893333         2
        21        20        22        44     4      180.000000        7.246760         2
        21        22        44        20     4      180.000000        7.246760         2
        21        44        20        22     4      180.000000        7.246760         2
        23        22        24        26     4      180.000000       17.332310         2
        23        24        26        22     4      180.000000       17.332310         2
        23        26        22        24     4      180.000000       17.332310         2
        24        23        25        45     4      180.000000        2.220674         2
        24        25        45        23     4      180.000000        2.220674         2
        24        45        23        25     4      180.000000        2.220674         2

[ pairs ]
;       ai        aj funct
         1         4     1
         1         5     1
         1         6     1
         1         9     1
         2         7     1
         2        10     1
         2        35     1
         2        36     1
         2        48     1
         3         7     1
         3         9     1
         3        10     1
         3        32     1
         3        33     1
         3        34     1
         4         6     1
         4         8     1
         4        48     1
         5         9     1
         5        11     1
         5        15     1
         5        35     1
         5        36     1
         5        37     1
         5        38     1
         5        39     1
         6        12     1
         6        14     1
         6        16     1
         6        40     1
         7         9     1
         7        11     1
         7        15     1
         7        48     1
         8        11     1
         8        15     1
         8        32     1
         8        33     1
         8        34     1
         8        37     1
         8        38     1
         8        39     1
         8        48     1
         9        10     1
        10        13     1
        10        17     1
        10        37     1
        10        38     1
        10        39     1
        10        42     1
        10        48     1
        11        14     1
        11        16     1
        11        18     1
        11        41     1
        11        43     1
        12        15     1
        12        19     1
        12        20     1
        12        42     1
        13        16     1
        13        18     1
        13        40     1
        13        43     1
        14        17     1
        15        40     1
        15        41     1
        16        42     1
        17        21     1
        17        25     1
        17        40     1
        17        41     1
        18        22     1
        18        24     1
        18        44     1
        19        21     1
        19        25     1
        19        43     1
        20        23     1
        20        43     1
        20        45     1
        21        24     1
        21        26     1
        22        25     1
        22        27     1
        22        45     1
        23        28     1
        23        44     1
        23        46     1
        23        47     1
        24        27     1
        25        26     1
        25        44     1
        26        29     1
        26        30     1
        26        31     1
        26        45     1
        29        46     1
        29        47     1
        30        46     1
        30        47     1
        31        46     1
        31        47     1
        41        42     1
