; ITP file created by ByteFF-ML, 2025-12-06 06:45:54.444414

[ atomtypes ]
;name           bonded.type        at.num        mass        charge   ptype           sigma         epsilon
 c0bf                                   6      0.0000       0.00000       A     3.39770e-01     4.50036e-01
 o1bf                                   8      0.0000       0.00000       A     3.15820e-01     3.02873e-01
 c2bf                                   6      0.0000       0.00000       A     3.39748e-01     4.51263e-01
 c3bf                                   6      0.0000       0.00000       A     3.39767e-01     4.49934e-01
 o4bf                                   8      0.0000       0.00000       A     3.15893e-01     3.03073e-01
 c5bf                                   6      0.0000       0.00000       A     3.31466e-01     4.11321e-01
 c6bf                                   6      0.0000       0.00000       A     3.31630e-01     4.14648e-01
 n7bf                                   7      0.0000       0.00000       A     3.38496e-01     3.92572e-01
 c8bf                                   6      0.0000       0.00000       A     3.31452e-01     4.10539e-01
 c9bf                                   6      0.0000       0.00000       A     3.31330e-01     4.13851e-01
 n10bf                                  7      0.0000       0.00000       A     3.38343e-01     3.96108e-01
 c11bf                                  6      0.0000       0.00000       A     3.31148e-01     4.05346e-01
 o12bf                                  8      0.0000       0.00000       A     3.04717e-01     6.06795e-01
 n13bf                                  7      0.0000       0.00000       A     3.27006e-01     4.86854e-01
 c14bf                                  6      0.0000       0.00000       A     3.31462e-01     4.13706e-01
 c15bf                                  6      0.0000       0.00000       A     3.31506e-01     4.12386e-01
 c16bf                                  6      0.0000       0.00000       A     3.31494e-01     4.13182e-01
 c17bf                                  6      0.0000       0.00000       A     3.31499e-01     4.11593e-01
 f18bf                                  9      0.0000       0.00000       A     3.03477e-01     3.48240e-01
 c19bf                                  6      0.0000       0.00000       A     3.31576e-01     4.14544e-01
 c20bf                                  6      0.0000       0.00000       A     3.31737e-01     4.15442e-01
 c21bf                                  6      0.0000       0.00000       A     3.39981e-01     4.50320e-01
 c22bf                                  6      0.0000       0.00000       A     3.39758e-01     4.48853e-01
 n23bf                                  7      0.0000       0.00000       A     3.26847e-01     6.46643e-01
 c24bf                                  6      0.0000       0.00000       A     3.31301e-01     4.10397e-01
 n25bf                                  7      0.0000       0.00000       A     3.36712e-01     4.77349e-01
 n26bf                                  7      0.0000       0.00000       A     3.18292e-01     7.06281e-01
 c27bf                                  6      0.0000       0.00000       A     3.39916e-01     4.52554e-01
 c28bf                                  6      0.0000       0.00000       A     3.31323e-01     4.14783e-01
 o29bf                                  8      0.0000       0.00000       A     3.04642e-01     6.16040e-01
 h30bf                                  1      0.0000       0.00000       A     2.42032e-01     8.71661e-02
 h31bf                                  1      0.0000       0.00000       A     2.42032e-01     8.71661e-02
 h32bf                                  1      0.0000       0.00000       A     2.42032e-01     8.71661e-02
 h33bf                                  1      0.0000       0.00000       A     2.42008e-01     8.73433e-02
 h34bf                                  1      0.0000       0.00000       A     2.42008e-01     8.73433e-02
 h35bf                                  1      0.0000       0.00000       A     2.42132e-01     8.76146e-02
 h36bf                                  1      0.0000       0.00000       A     2.42132e-01     8.76146e-02
 h37bf                                  1      0.0000       0.00000       A     2.53458e-01     6.72408e-02
 h38bf                                  1      0.0000       0.00000       A     2.53990e-01     6.69471e-02
 h39bf                                  1      0.0000       0.00000       A     1.10735e-01     3.92473e-02
 h40bf                                  1      0.0000       0.00000       A     2.62514e-01     6.73797e-02
 h41bf                                  1      0.0000       0.00000       A     2.62617e-01     6.73749e-02
 h42bf                                  1      0.0000       0.00000       A     2.62782e-01     6.80085e-02
 h43bf                                  1      0.0000       0.00000       A     2.59990e-01     8.73194e-02
 h44bf                                  1      0.0000       0.00000       A     2.59990e-01     8.73194e-02
 h45bf                                  1      0.0000       0.00000       A     2.59990e-01     8.73194e-02
 h46bf                                  1      0.0000       0.00000       A     1.10384e-01     3.90095e-02
 h47bf                                  1      0.0000       0.00000       A     1.10384e-01     3.90095e-02
 h48bf                                  1      0.0000       0.00000       A     2.42205e-01     8.61909e-02
 h49bf                                  1      0.0000       0.00000       A     2.42205e-01     8.61909e-02
 h50bf                                  1      0.0000       0.00000       A     2.42205e-01     8.61909e-02
 h51bf                                  1      0.0000       0.00000       A     1.10570e-01     4.04157e-02

[ moleculetype ]
;name             nrexcl
 8f                    3

[ atoms ]
;       nr            type      resi   res      atom      cgnr      charge          mass ; qtot
         1            c0bf         1   UNL        c0         1     0.14056       12.0110 ; qtot    0.141
         2            o1bf         1   UNL        o1         2    -0.45910       15.9990 ; qtot   -0.319
         3            c2bf         1   UNL        c2         3     0.13920       12.0110 ; qtot   -0.179
         4            c3bf         1   UNL        c3         4     0.14897       12.0110 ; qtot   -0.030
         5            o4bf         1   UNL        o4         5    -0.45528       15.9990 ; qtot   -0.486
         6            c5bf         1   UNL        c5         6     0.56092       12.0110 ; qtot    0.075
         7            c6bf         1   UNL        c6         7     0.26209       12.0110 ; qtot    0.337
         8            n7bf         1   UNL        n7         8    -0.59739       14.0070 ; qtot   -0.260
         9            c8bf         1   UNL        c8         9     0.18226       12.0110 ; qtot   -0.078
        10            c9bf         1   UNL        c9        10     0.39640       12.0110 ; qtot    0.319
        11           n10bf         1   UNL       n10        11    -0.72108       14.0070 ; qtot   -0.402
        12           c11bf         1   UNL       c11        12     0.52253       12.0110 ; qtot    0.120
        13           o12bf         1   UNL       o12        13    -0.57505       15.9990 ; qtot   -0.455
        14           n13bf         1   UNL       n13        14    -0.13079       14.0070 ; qtot   -0.586
        15           c14bf         1   UNL       c14        15    -0.01872       12.0110 ; qtot   -0.604
        16           c15bf         1   UNL       c15        16    -0.12265       12.0110 ; qtot   -0.727
        17           c16bf         1   UNL       c16        17    -0.09389       12.0110 ; qtot   -0.821
        18           c17bf         1   UNL       c17        18     0.16381       12.0110 ; qtot   -0.657
        19           f18bf         1   UNL       f18        19    -0.17796       18.9980 ; qtot   -0.835
        20           c19bf         1   UNL       c19        20    -0.13159       12.0110 ; qtot   -0.967
        21           c20bf         1   UNL       c20        21    -0.08194       12.0110 ; qtot   -1.049
        22           c21bf         1   UNL       c21        22     0.07985       12.0110 ; qtot   -0.969
        23           c22bf         1   UNL       c22        23    -0.09013       12.0110 ; qtot   -1.059
        24           n23bf         1   UNL       n23        24    -0.63159       14.0070 ; qtot   -1.691
        25           c24bf         1   UNL       c24        25     0.94383       12.0110 ; qtot   -0.747
        26           n25bf         1   UNL       n25        26    -0.59191       14.0070 ; qtot   -1.339
        27           n26bf         1   UNL       n26        27    -0.59261       14.0070 ; qtot   -1.931
        28           c27bf         1   UNL       c27        28     0.07169       12.0110 ; qtot   -1.860
        29           c28bf         1   UNL       c28        29     0.54214       12.0110 ; qtot   -1.317
        30           o29bf         1   UNL       o29        30    -0.37895       15.9990 ; qtot   -1.696
        31           h30bf         1   UNL       h30        31     0.03283        1.0080 ; qtot   -1.664
        32           h31bf         1   UNL       h31        32     0.03283        1.0080 ; qtot   -1.631
        33           h32bf         1   UNL       h32        33     0.03283        1.0080 ; qtot   -1.598
        34           h33bf         1   UNL       h33        34     0.04507        1.0080 ; qtot   -1.553
        35           h34bf         1   UNL       h34        35     0.04507        1.0080 ; qtot   -1.508
        36           h35bf         1   UNL       h35        36     0.06484        1.0080 ; qtot   -1.443
        37           h36bf         1   UNL       h36        37     0.06484        1.0080 ; qtot   -1.378
        38           h37bf         1   UNL       h37        38     0.05009        1.0080 ; qtot   -1.328
        39           h38bf         1   UNL       h38        39     0.05518        1.0080 ; qtot   -1.273
        40           h39bf         1   UNL       h39        40     0.18214        1.0080 ; qtot   -1.091
        41           h40bf         1   UNL       h40        41     0.13828        1.0080 ; qtot   -0.952
        42           h41bf         1   UNL       h41        42     0.14141        1.0080 ; qtot   -0.811
        43           h42bf         1   UNL       h42        43     0.15060        1.0080 ; qtot   -0.660
        44           h43bf         1   UNL       h43        44     0.07042        1.0080 ; qtot   -0.590
        45           h44bf         1   UNL       h44        45     0.07042        1.0080 ; qtot   -0.520
        46           h45bf         1   UNL       h45        46     0.07042        1.0080 ; qtot   -0.449
        47           h46bf         1   UNL       h46        47     0.38402        1.0080 ; qtot   -0.065
        48           h47bf         1   UNL       h47        48     0.38402        1.0080 ; qtot    0.319
        49           h48bf         1   UNL       h48        49     0.08969        1.0080 ; qtot    0.409
        50           h49bf         1   UNL       h49        50     0.08969        1.0080 ; qtot    0.498
        51           h50bf         1   UNL       h50        51     0.08969        1.0080 ; qtot    0.588
        52           h51bf         1   UNL       h51        52     0.41200        1.0080 ; qtot    1.000

[ bonds ]
;       ai        aj funct               r               k
         1         2     1        0.142065   217032.461279
         1        31     1        0.109674   290476.294043
         1        32     1        0.109674   290476.294043
         1        33     1        0.109674   290476.294043
         2         3     1        0.141938   211090.358984
         3         4     1        0.152312   193827.924243
         3        34     1        0.109871   285446.632666
         3        35     1        0.109871   285446.632666
         4         5     1        0.144270   174454.438818
         4        36     1        0.109304   301699.674854
         4        37     1        0.109304   301699.674854
         5         6     1        0.135000   285575.288623
         6         7     1        0.141549   239752.955176
         6        11     1        0.133029   305619.825439
         7         8     1        0.132499   360539.039062
         7        38     1        0.108600   321907.930078
         8         9     1        0.134577   291943.017920
         9        10     1        0.139738   275366.471631
         9        12     1        0.150636   172131.085376
        10        11     1        0.134104   333491.843799
        10        39     1        0.108576   323728.062012
        12        13     1        0.123138   599485.379102
        12        14     1        0.136555   288362.664111
        14        15     1        0.140725   250016.012988
        14        40     1        0.101676   403619.248779
        15        16     1        0.140462   285017.558154
        15        21     1        0.140375   285706.804736
        16        17     1        0.139445   325229.695117
        16        41     1        0.108344   327149.447314
        17        18     1        0.138764   314481.483301
        17        42     1        0.108484   324632.203369
        18        19     1        0.136440   273896.479004
        18        20     1        0.139703   284812.290869
        20        21     1        0.139916   300782.049902
        20        22     1        0.152214   168512.745117
        21        43     1        0.108294   326777.958984
        22        23     1        0.153767   166501.008252
        22        24     1        0.148655   143933.890234
        22        29     1        0.154570   127648.913892
        23        44     1        0.109163   308958.368359
        23        45     1        0.109163   308958.368359
        23        46     1        0.109163   308958.342822
        24        25     1        0.133256   388039.237109
        24        52     1        0.101372   424026.412549
        25        26     1        0.133064   418457.535107
        25        27     1        0.135566   306947.908350
        26        47     1        0.101330   425081.325000
        26        48     1        0.101330   425081.325000
        27        28     1        0.146714   195444.487109
        27        29     1        0.142287   150670.324316
        28        49     1        0.109021   312395.586670
        28        50     1        0.109021   312395.586670
        28        51     1        0.109021   312395.586670
        29        30     1        0.120308   721943.581836

[ angles ]
;       ai        aj        ak funct           theta             cth
         1         2         3     1      113.261246      626.898623
         2         1        31     1      109.991867      469.113443
         2         1        32     1      109.991867      469.113443
         2         1        33     1      109.991867      469.113443
         2         3         4     1      110.720276      591.563372
         2         3        34     1      109.633926      463.836998
         2         3        35     1      109.633926      463.836998
         3         4         5     1      109.460655      597.104605
         3         4        36     1      110.526855      481.785978
         3         4        37     1      110.526855      481.785978
         4         3        34     1      109.326843      479.702342
         4         3        35     1      109.326843      479.702342
         4         5         6     1      117.801468      537.925036
         5         4        36     1      108.702881      462.288938
         5         4        37     1      108.702881      462.288938
         5         6         7     1      118.009804      557.068611
         5         6        11     1      119.912415      632.352073
         6         7         8     1      120.926285      772.033294
         6         7        38     1      120.619186      405.618070
         6        11        10     1      116.495361      918.967182
         7         6        11     1      121.886253      583.048597
         7         8         9     1      117.592323      739.894459
         8         7        38     1      118.297363      383.922955
         8         9        10     1      120.819031      564.260627
         8         9        12     1      118.528160      492.369578
         9        10        11     1      122.028564      662.836423
         9        10        39     1      120.284828      371.133173
         9        12        13     1      121.038818      683.784067
         9        12        14     1      112.908447      483.548741
        10         9        12     1      120.185524      556.533864
        11        10        39     1      117.149452      373.310722
        12        14        15     1      129.124100      471.220351
        12        14        40     1      113.908752      463.718601
        13        12        14     1      126.178818      588.533458
        14        15        16     1      120.532669      594.768535
        14        15        21     1      119.923485      494.500522
        15        14        40     1      117.184875      395.921343
        15        16        17     1      119.717796      725.834748
        15        16        41     1      120.032249      446.585467
        15        21        20     1      121.162643      693.322241
        15        21        43     1      119.233643      433.124506
        16        15        21     1      119.199059      574.830692
        16        17        18     1      119.245583      696.598844
        16        17        42     1      121.065163      424.886490
        17        16        41     1      120.181984      387.275786
        17        18        19     1      118.472336      549.776042
        17        18        20     1      122.224182      567.978702
        18        17        42     1      119.539207      439.284599
        18        20        21     1      117.726944      647.104031
        18        20        22     1      120.931961      550.111217
        19        18        20     1      119.054161      484.999504
        20        21        43     1      119.608627      390.075068
        20        22        23     1      113.407486      615.903365
        20        22        24     1      111.269249      600.543241
        20        22        29     1      111.934433      574.899578
        21        20        22     1      121.006004      432.389548
        22        23        44     1      110.082191      481.458369
        22        23        45     1      110.082191      481.458369
        22        23        46     1      110.082191      481.458369
        22        24        25     1      111.828979      618.309025
        22        24        52     1      121.293442      371.055157
        22        29        27     1      106.590225      167.360000
        22        29        30     1      127.385330      365.947895
        23        22        24     1      110.438828      626.901432
        23        22        29     1      109.758812      624.225399
        24        22        29     1      100.861259      337.715599
        24        25        26     1      125.474411      616.890439
        24        25        27     1      111.359451      578.377541
        25        24        52     1      123.420799      427.645295
        25        26        47     1      121.315735      451.251033
        25        26        48     1      121.315735      451.251033
        25        27        28     1      126.571388      467.132913
        25        27        29     1      109.825684      828.553174
        26        25        27     1      123.759972      625.684525
        27        28        49     1      109.240219      484.420004
        27        28        50     1      109.240219      484.420004
        27        28        51     1      109.240219      484.420004
        27        29        30     1      124.686417      648.671244
        28        27        29     1      123.233597      530.506889
        31         1        32     1      109.033142      343.069071
        31         1        33     1      109.033142      343.069071
        32         1        33     1      109.033142      343.069071
        34         3        35     1      108.195023      339.425308
        36         4        37     1      108.983719      340.107979
        44        23        45     1      108.825966      356.972016
        44        23        46     1      108.825966      356.972016
        45        23        46     1      108.825966      356.972016
        47        26        48     1      117.429977      314.388120
        49        28        50     1      109.820786      349.271620
        49        28        51     1      109.820786      349.271620
        50        28        51     1      109.820786      349.271588

[ dihedrals ] ; propers for gromacs 4.5 or higher, use funct 9
;       ai        aj        ak        al funct           phase               k        pn
         1         2         3         4     9        0.000000        0.699085         1
         1         2         3         4     9      180.000000       -0.368834         2
         1         2         3         4     9        0.000000        0.969894         3
         1         2         3         4     9      180.000000       -0.055673         4
         1         2         3        34     9        0.000000       -0.070384         1
         1         2         3        34     9      180.000000        0.234954         2
         1         2         3        34     9        0.000000        1.392632         3
         1         2         3        34     9      180.000000        0.148731         4
         1         2         3        35     9        0.000000       -0.070384         1
         1         2         3        35     9      180.000000        0.234954         2
         1         2         3        35     9        0.000000        1.392632         3
         1         2         3        35     9      180.000000        0.148731         4
         2         3         4         5     9        0.000000       -2.250495         1
         2         3         4         5     9      180.000000       -2.325488         2
         2         3         4         5     9        0.000000        0.475662         3
         2         3         4         5     9      180.000000       -0.006985         4
         2         3         4        36     9        0.000000        0.174095         1
         2         3         4        36     9      180.000000        0.207715         2
         2         3         4        36     9        0.000000        0.602955         3
         2         3         4        36     9      180.000000        0.094469         4
         2         3         4        37     9        0.000000        0.174095         1
         2         3         4        37     9      180.000000        0.207715         2
         2         3         4        37     9        0.000000        0.602955         3
         2         3         4        37     9      180.000000        0.094469         4
         3         2         1        31     9        0.000000       -0.028199         1
         3         2         1        31     9      180.000000        0.124135         2
         3         2         1        31     9        0.000000        1.062661         3
         3         2         1        31     9      180.000000        0.026208         4
         3         2         1        32     9        0.000000       -0.028199         1
         3         2         1        32     9      180.000000        0.124135         2
         3         2         1        32     9        0.000000        1.062661         3
         3         2         1        32     9      180.000000        0.026208         4
         3         2         1        33     9        0.000000       -0.028199         1
         3         2         1        33     9      180.000000        0.124135         2
         3         2         1        33     9        0.000000        1.062661         3
         3         2         1        33     9      180.000000        0.026208         4
         3         4         5         6     9        0.000000       -0.780117         1
         3         4         5         6     9      180.000000       -0.262565         2
         3         4         5         6     9        0.000000        0.170139         3
         3         4         5         6     9      180.000000        0.082154         4
         4         5         6         7     9        0.000000        0.728689         1
         4         5         6         7     9      180.000000        6.828646         2
         4         5         6         7     9        0.000000        0.138394         3
         4         5         6         7     9      180.000000        0.139932         4
         4         5         6        11     9        0.000000        1.185716         1
         4         5         6        11     9      180.000000        7.725541         2
         4         5         6        11     9        0.000000        0.572263         3
         4         5         6        11     9      180.000000       -0.058438         4
         5         4         3        34     9        0.000000        0.192073         1
         5         4         3        34     9      180.000000        0.238807         2
         5         4         3        34     9        0.000000        0.616351         3
         5         4         3        34     9      180.000000        0.038212         4
         5         4         3        35     9        0.000000        0.192073         1
         5         4         3        35     9      180.000000        0.238807         2
         5         4         3        35     9        0.000000        0.616351         3
         5         4         3        35     9      180.000000        0.038212         4
         5         6         7         8     9        0.000000       -0.316199         1
         5         6         7         8     9      180.000000       11.680001         2
         5         6         7         8     9        0.000000        0.389725         3
         5         6         7         8     9      180.000000       -0.693301         4
         5         6         7        38     9        0.000000       -0.111274         1
         5         6         7        38     9      180.000000       10.167204         2
         5         6         7        38     9        0.000000       -0.098551         3
         5         6         7        38     9      180.000000       -0.031637         4
         5         6        11        10     9        0.000000        1.371391         1
         5         6        11        10     9      180.000000       25.097588         2
         5         6        11        10     9        0.000000        1.201012         3
         5         6        11        10     9      180.000000       -0.871529         4
         6         5         4        36     9        0.000000        0.499718         1
         6         5         4        36     9      180.000000        0.077855         2
         6         5         4        36     9        0.000000        0.242811         3
         6         5         4        36     9      180.000000        0.003349         4
         6         5         4        37     9        0.000000        0.499718         1
         6         5         4        37     9      180.000000        0.077855         2
         6         5         4        37     9        0.000000        0.242811         3
         6         5         4        37     9      180.000000        0.003349         4
         6         7         8         9     9        0.000000       -0.278349         1
         6         7         8         9     9      180.000000       24.524407         2
         6         7         8         9     9        0.000000       -0.702496         3
         6         7         8         9     9      180.000000       -0.488936         4
         6        11        10         9     9        0.000000       -0.031751         1
         6        11        10         9     9      180.000000       21.938135         2
         6        11        10         9     9        0.000000       -1.027442         3
         6        11        10         9     9      180.000000       -0.478038         4
         6        11        10        39     9        0.000000        0.795405         1
         6        11        10        39     9      180.000000       18.162976         2
         6        11        10        39     9        0.000000        0.317890         3
         6        11        10        39     9      180.000000       -0.202015         4
         7         6        11        10     9        0.000000        0.264071         1
         7         6        11        10     9      180.000000       17.929972         2
         7         6        11        10     9        0.000000        0.363920         3
         7         6        11        10     9      180.000000       -0.294153         4
         7         8         9        10     9        0.000000       -0.658664         1
         7         8         9        10     9      180.000000       20.704287         2
         7         8         9        10     9        0.000000       -0.675973         3
         7         8         9        10     9      180.000000       -0.107471         4
         7         8         9        12     9        0.000000        0.634217         1
         7         8         9        12     9      180.000000       20.017523         2
         7         8         9        12     9        0.000000        0.872432         3
         7         8         9        12     9      180.000000       -0.865466         4
         8         7         6        11     9        0.000000       -1.493807         1
         8         7         6        11     9      180.000000        9.201457         2
         8         7         6        11     9        0.000000        0.097669         3
         8         7         6        11     9      180.000000       -0.704460         4
         8         9        10        11     9        0.000000       -0.349408         1
         8         9        10        11     9      180.000000       16.303012         2
         8         9        10        11     9        0.000000       -0.059212         3
         8         9        10        11     9      180.000000       -0.699415         4
         8         9        10        39     9        0.000000        0.137933         1
         8         9        10        39     9      180.000000       12.095593         2
         8         9        10        39     9        0.000000       -0.103619         3
         8         9        10        39     9      180.000000       -0.287737         4
         8         9        12        13     9        0.000000       -4.067852         1
         8         9        12        13     9      180.000000        4.651405         2
         8         9        12        13     9        0.000000        0.557911         3
         8         9        12        13     9      180.000000        0.106111         4
         8         9        12        14     9        0.000000        1.600803         1
         8         9        12        14     9      180.000000        3.803173         2
         8         9        12        14     9        0.000000        0.514187         3
         8         9        12        14     9      180.000000       -0.201238         4
         9         8         7        38     9        0.000000        0.640966         1
         9         8         7        38     9      180.000000       21.460712         2
         9         8         7        38     9        0.000000        0.188942         3
         9         8         7        38     9      180.000000       -0.515198         4
         9        12        14        15     9        0.000000        2.400744         1
         9        12        14        15     9      180.000000        8.528044         2
         9        12        14        15     9        0.000000        0.456115         3
         9        12        14        15     9      180.000000       -0.752267         4
         9        12        14        40     9        0.000000        0.689636         1
         9        12        14        40     9      180.000000        7.661762         2
         9        12        14        40     9        0.000000       -0.021839         3
         9        12        14        40     9      180.000000        0.353040         4
        10         9        12        13     9        0.000000        1.442798         1
        10         9        12        13     9      180.000000        4.344900         2
        10         9        12        13     9        0.000000       -0.634888         3
        10         9        12        13     9      180.000000        0.322917         4
        10         9        12        14     9        0.000000       -0.401427         1
        10         9        12        14     9      180.000000        3.558737         2
        10         9        12        14     9        0.000000       -0.258854         3
        10         9        12        14     9      180.000000       -0.045035         4
        11         6         7        38     9        0.000000       -0.376081         1
        11         6         7        38     9      180.000000        8.087020         2
        11         6         7        38     9        0.000000       -0.260095         3
        11         6         7        38     9      180.000000       -0.169623         4
        11        10         9        12     9        0.000000       -0.160520         1
        11        10         9        12     9      180.000000       12.886722         2
        11        10         9        12     9        0.000000        0.109800         3
        11        10         9        12     9      180.000000       -0.613505         4
        12         9        10        39     9        0.000000        0.171151         1
        12         9        10        39     9      180.000000       11.100510         2
        12         9        10        39     9        0.000000       -0.370178         3
        12         9        10        39     9      180.000000        0.036745         4
        12        14        15        16     9        0.000000        0.129104         1
        12        14        15        16     9      180.000000        2.527596         2
        12        14        15        16     9        0.000000        0.093618         3
        12        14        15        16     9      180.000000        0.053058         4
        12        14        15        21     9        0.000000        0.001638         1
        12        14        15        21     9      180.000000        2.532177         2
        12        14        15        21     9        0.000000        0.038401         3
        12        14        15        21     9      180.000000        0.064065         4
        13        12        14        15     9        0.000000       -0.971126         1
        13        12        14        15     9      180.000000       11.017134         2
        13        12        14        15     9        0.000000        0.341913         3
        13        12        14        15     9      180.000000       -0.860146         4
        13        12        14        40     9        0.000000       -0.172045         1
        13        12        14        40     9      180.000000       11.062711         2
        13        12        14        40     9        0.000000        0.302749         3
        13        12        14        40     9      180.000000        0.825114         4
        14        15        16        17     9        0.000000        0.227665         1
        14        15        16        17     9      180.000000       18.131906         2
        14        15        16        17     9        0.000000        0.047869         3
        14        15        16        17     9      180.000000       -0.281060         4
        14        15        16        41     9        0.000000       -0.010557         1
        14        15        16        41     9      180.000000       14.039978         2
        14        15        16        41     9        0.000000       -0.158607         3
        14        15        16        41     9      180.000000        0.220954         4
        14        15        21        20     9        0.000000        0.028439         1
        14        15        21        20     9      180.000000       17.459730         2
        14        15        21        20     9        0.000000       -0.216725         3
        14        15        21        20     9      180.000000       -0.346716         4
        14        15        21        43     9        0.000000       -0.117052         1
        14        15        21        43     9      180.000000       14.103081         2
        14        15        21        43     9        0.000000       -0.218395         3
        14        15        21        43     9      180.000000        0.291669         4
        15        16        17        18     9        0.000000       -0.027451         1
        15        16        17        18     9      180.000000       18.548059         2
        15        16        17        18     9        0.000000       -1.842291         3
        15        16        17        18     9      180.000000       -0.376927         4
        15        16        17        42     9        0.000000        0.137039         1
        15        16        17        42     9      180.000000       14.120303         2
        15        16        17        42     9        0.000000       -0.494889         3
        15        16        17        42     9      180.000000        0.087535         4
        15        21        20        18     9        0.000000       -0.200505         1
        15        21        20        18     9      180.000000       18.452249         2
        15        21        20        18     9        0.000000       -1.855903         3
        15        21        20        18     9      180.000000       -0.403515         4
        15        21        20        22     9        0.000000        0.165029         1
        15        21        20        22     9      180.000000       14.993239         2
        15        21        20        22     9        0.000000       -0.129239         3
        15        21        20        22     9      180.000000       -0.239569         4
        16        15        14        40     9        0.000000        0.018810         1
        16        15        14        40     9      180.000000        2.577881         2
        16        15        14        40     9        0.000000        0.111591         3
        16        15        14        40     9      180.000000        0.331806         4
        16        15        21        20     9        0.000000        0.105348         1
        16        15        21        20     9      180.000000       16.095151         2
        16        15        21        20     9        0.000000       -1.220409         3
        16        15        21        20     9      180.000000       -0.280297         4
        16        15        21        43     9        0.000000        0.079304         1
        16        15        21        43     9      180.000000       12.660685         2
        16        15        21        43     9        0.000000       -0.636056         3
        16        15        21        43     9      180.000000        0.129885         4
        16        17        18        19     9        0.000000        0.477147         1
        16        17        18        19     9      180.000000       23.472781         2
        16        17        18        19     9        0.000000        0.516962         3
        16        17        18        19     9      180.000000       -0.560604         4
        16        17        18        20     9        0.000000       -0.003413         1
        16        17        18        20     9      180.000000       16.777621         2
        16        17        18        20     9        0.000000       -1.249201         3
        16        17        18        20     9      180.000000       -0.311406         4
        17        16        15        21     9        0.000000        0.029199         1
        17        16        15        21     9      180.000000       16.623565         2
        17        16        15        21     9        0.000000       -1.098236         3
        17        16        15        21     9      180.000000       -0.154414         4
        17        18        20        21     9        0.000000       -0.150146         1
        17        18        20        21     9      180.000000       17.246176         2
        17        18        20        21     9        0.000000       -1.168047         3
        17        18        20        21     9      180.000000       -0.373540         4
        17        18        20        22     9        0.000000       -0.033453         1
        17        18        20        22     9      180.000000       12.579810         2
        17        18        20        22     9        0.000000       -0.170552         3
        17        18        20        22     9      180.000000       -0.144057         4
        18        17        16        41     9        0.000000        0.209604         1
        18        17        16        41     9      180.000000       14.873967         2
        18        17        16        41     9        0.000000       -0.478474         3
        18        17        16        41     9      180.000000        0.131121         4
        18        20        21        43     9        0.000000        0.073242         1
        18        20        21        43     9      180.000000       14.655218         2
        18        20        21        43     9        0.000000       -0.589062         3
        18        20        21        43     9      180.000000        0.110738         4
        18        20        22        23     9        0.000000        0.049175         1
        18        20        22        23     9      180.000000        0.994498         2
        18        20        22        23     9        0.000000        0.422901         3
        18        20        22        23     9      180.000000        0.074924         4
        18        20        22        24     9        0.000000        1.533166         1
        18        20        22        24     9      180.000000       -0.461769         2
        18        20        22        24     9        0.000000        0.357293         3
        18        20        22        24     9      180.000000        0.163375         4
        18        20        22        29     9        0.000000        1.139564         1
        18        20        22        29     9      180.000000       -0.358898         2
        18        20        22        29     9        0.000000        0.065220         3
        18        20        22        29     9      180.000000        0.137299         4
        19        18        17        42     9        0.000000        0.119792         1
        19        18        17        42     9      180.000000       16.654957         2
        19        18        17        42     9        0.000000        0.308636         3
        19        18        17        42     9      180.000000        0.191127         4
        19        18        20        21     9        0.000000        0.434842         1
        19        18        20        21     9      180.000000       22.849239         2
        19        18        20        21     9        0.000000        0.269891         3
        19        18        20        21     9      180.000000       -0.713510         4
        19        18        20        22     9        0.000000        0.455921         1
        19        18        20        22     9      180.000000       16.866938         2
        19        18        20        22     9        0.000000        0.474656         3
        19        18        20        22     9      180.000000       -0.449330         4
        20        18        17        42     9        0.000000       -0.023555         1
        20        18        17        42     9      180.000000       12.721594         2
        20        18        17        42     9        0.000000       -0.564623         3
        20        18        17        42     9      180.000000        0.142975         4
        20        22        23        44     9        0.000000       -0.061050         1
        20        22        23        44     9      180.000000        0.040303         2
        20        22        23        44     9        0.000000        0.637754         3
        20        22        23        44     9      180.000000        0.056714         4
        20        22        23        45     9        0.000000       -0.061050         1
        20        22        23        45     9      180.000000        0.040303         2
        20        22        23        45     9        0.000000        0.637754         3
        20        22        23        45     9      180.000000        0.056714         4
        20        22        23        46     9        0.000000       -0.061050         1
        20        22        23        46     9      180.000000        0.040303         2
        20        22        23        46     9        0.000000        0.637754         3
        20        22        23        46     9      180.000000        0.056714         4
        20        22        24        25     9        0.000000       -0.020483         1
        20        22        24        25     9      180.000000        0.198411         2
        20        22        24        25     9        0.000000        0.276196         3
        20        22        24        25     9      180.000000        0.183631         4
        20        22        24        52     9        0.000000        1.255777         1
        20        22        24        52     9      180.000000        0.271894         2
        20        22        24        52     9        0.000000        0.142494         3
        20        22        24        52     9      180.000000       -0.033935         4
        20        22        29        27     9        0.000000        0.515625         1
        20        22        29        27     9      180.000000        1.383856         2
        20        22        29        27     9        0.000000        0.314773         3
        20        22        29        27     9      180.000000        0.709418         4
        20        22        29        30     9        0.000000        0.717655         1
        20        22        29        30     9      180.000000        1.669794         2
        20        22        29        30     9        0.000000       -0.515925         3
        20        22        29        30     9      180.000000        0.329375         4
        21        15        14        40     9        0.000000        0.187514         1
        21        15        14        40     9      180.000000        2.766511         2
        21        15        14        40     9        0.000000        0.052890         3
        21        15        14        40     9      180.000000        0.298058         4
        21        15        16        41     9        0.000000        0.106822         1
        21        15        16        41     9      180.000000       13.045076         2
        21        15        16        41     9        0.000000       -0.430187         3
        21        15        16        41     9      180.000000        0.152603         4
        21        20        22        23     9        0.000000       -0.325502         1
        21        20        22        23     9      180.000000        1.123009         2
        21        20        22        23     9        0.000000       -0.230286         3
        21        20        22        23     9      180.000000        0.114809         4
        21        20        22        24     9        0.000000        0.502052         1
        21        20        22        24     9      180.000000        0.969834         2
        21        20        22        24     9        0.000000       -0.294484         3
        21        20        22        24     9      180.000000        0.119679         4
        21        20        22        29     9        0.000000       -0.607728         1
        21        20        22        29     9      180.000000       -0.235254         2
        21        20        22        29     9        0.000000       -0.099207         3
        21        20        22        29     9      180.000000        0.218484         4
        22        20        21        43     9        0.000000       -0.044270         1
        22        20        21        43     9      180.000000       12.743417         2
        22        20        21        43     9        0.000000       -0.415143         3
        22        20        21        43     9      180.000000        0.108809         4
        22        24        25        26     9        0.000000        2.198401         1
        22        24        25        26     9      180.000000       18.059896         2
        22        24        25        26     9        0.000000        0.789176         3
        22        24        25        26     9      180.000000       -1.913777         4
        22        24        25        27     9        0.000000       -1.367831         1
        22        24        25        27     9      180.000000       22.403245         2
        22        24        25        27     9        0.000000       -1.367707         3
        22        24        25        27     9      180.000000       -2.690360         4
        22        29        27        25     9        0.000000       -3.215037         1
        22        29        27        25     9      180.000000       11.505431         2
        22        29        27        25     9        0.000000       -1.456301         3
        22        29        27        25     9      180.000000       -0.403048         4
        22        29        27        28     9        0.000000       -1.302993         1
        22        29        27        28     9      180.000000        6.283168         2
        22        29        27        28     9        0.000000        0.203360         3
        22        29        27        28     9      180.000000       -0.119801         4
        23        22        24        25     9        0.000000       -2.282495         1
        23        22        24        25     9      180.000000        1.439377         2
        23        22        24        25     9        0.000000        0.287212         3
        23        22        24        25     9      180.000000        0.161398         4
        23        22        24        52     9        0.000000       -0.523429         1
        23        22        24        52     9      180.000000        0.689486         2
        23        22        24        52     9        0.000000        0.185998         3
        23        22        24        52     9      180.000000       -0.006875         4
        23        22        29        27     9        0.000000       -1.509550         1
        23        22        29        27     9      180.000000        1.790050         2
        23        22        29        27     9        0.000000        0.165433         3
        23        22        29        27     9      180.000000        0.771944         4
        23        22        29        30     9        0.000000       -0.115779         1
        23        22        29        30     9      180.000000        1.398352         2
        23        22        29        30     9        0.000000       -0.582065         3
        23        22        29        30     9      180.000000        0.594232         4
        24        22        23        44     9        0.000000       -0.085960         1
        24        22        23        44     9      180.000000        0.030650         2
        24        22        23        44     9        0.000000        0.660417         3
        24        22        23        44     9      180.000000       -0.014833         4
        24        22        23        45     9        0.000000       -0.085960         1
        24        22        23        45     9      180.000000        0.030650         2
        24        22        23        45     9        0.000000        0.660417         3
        24        22        23        45     9      180.000000       -0.014833         4
        24        22        23        46     9        0.000000       -0.085960         1
        24        22        23        46     9      180.000000        0.030650         2
        24        22        23        46     9        0.000000        0.660417         3
        24        22        23        46     9      180.000000       -0.014833         4
        24        22        29        27     9        0.000000        1.629437         1
        24        22        29        27     9      180.000000        8.216156         2
        24        22        29        27     9        0.000000       -0.299803         3
        24        22        29        27     9      180.000000       -0.363897         4
        24        22        29        30     9        0.000000        8.517346         1
        24        22        29        30     9      180.000000        5.269419         2
        24        22        29        30     9        0.000000       -0.029530         3
        24        22        29        30     9      180.000000        0.420526         4
        24        25        26        47     9        0.000000       -1.960721         1
        24        25        26        47     9      180.000000        6.682941         2
        24        25        26        47     9        0.000000       -0.053859         3
        24        25        26        47     9      180.000000       -0.491559         4
        24        25        26        48     9        0.000000       -1.960721         1
        24        25        26        48     9      180.000000        6.682941         2
        24        25        26        48     9        0.000000       -0.053859         3
        24        25        26        48     9      180.000000       -0.491559         4
        24        25        27        28     9        0.000000       -2.923613         1
        24        25        27        28     9      180.000000        5.868837         2
        24        25        27        28     9        0.000000       -0.269857         3
        24        25        27        28     9      180.000000        0.035690         4
        24        25        27        29     9        0.000000       -1.530322         1
        24        25        27        29     9      180.000000       14.774034         2
        24        25        27        29     9        0.000000       -2.727240         3
        24        25        27        29     9      180.000000       -1.364456         4
        25        24        22        29     9        0.000000       -1.363349         1
        25        24        22        29     9      180.000000        5.565702         2
        25        24        22        29     9        0.000000       -0.332818         3
        25        24        22        29     9      180.000000       -1.415947         4
        25        27        28        49     9        0.000000        0.018150         1
        25        27        28        49     9      180.000000        0.003519         2
        25        27        28        49     9        0.000000        0.166582         3
        25        27        28        49     9      180.000000       -0.014427         4
        25        27        28        50     9        0.000000        0.018150         1
        25        27        28        50     9      180.000000        0.003519         2
        25        27        28        50     9        0.000000        0.166582         3
        25        27        28        50     9      180.000000       -0.014427         4
        25        27        28        51     9        0.000000        0.018150         1
        25        27        28        51     9      180.000000        0.003519         2
        25        27        28        51     9        0.000000        0.166582         3
        25        27        28        51     9      180.000000       -0.014427         4
        25        27        29        30     9        0.000000        1.397899         1
        25        27        29        30     9      180.000000       16.661240         2
        25        27        29        30     9        0.000000       -0.507341         3
        25        27        29        30     9      180.000000       -0.823848         4
        26        25        24        52     9        0.000000       -0.821607         1
        26        25        24        52     9      180.000000        8.114790         2
        26        25        24        52     9        0.000000        0.392186         3
        26        25        24        52     9      180.000000       -0.429850         4
        26        25        27        28     9        0.000000        1.599494         1
        26        25        27        28     9      180.000000        7.578129         2
        26        25        27        28     9        0.000000       -0.093223         3
        26        25        27        28     9      180.000000       -0.115320         4
        26        25        27        29     9        0.000000        1.218706         1
        26        25        27        29     9      180.000000       12.770570         2
        26        25        27        29     9        0.000000       -0.294969         3
        26        25        27        29     9      180.000000       -0.757301         4
        27        25        24        52     9        0.000000       -0.204263         1
        27        25        24        52     9      180.000000        8.685807         2
        27        25        24        52     9        0.000000        0.182518         3
        27        25        24        52     9      180.000000       -0.741259         4
        27        25        26        47     9        0.000000       -0.591062         1
        27        25        26        47     9      180.000000        6.284743         2
        27        25        26        47     9        0.000000        0.292039         3
        27        25        26        47     9      180.000000       -0.656689         4
        27        25        26        48     9        0.000000       -0.591062         1
        27        25        26        48     9      180.000000        6.284743         2
        27        25        26        48     9        0.000000        0.292039         3
        27        25        26        48     9      180.000000       -0.656689         4
        28        27        29        30     9        0.000000       -0.460703         1
        28        27        29        30     9      180.000000        9.293864         2
        28        27        29        30     9        0.000000       -0.402776         3
        28        27        29        30     9      180.000000        0.295992         4
        29        22        23        44     9        0.000000        0.004007         1
        29        22        23        44     9      180.000000        0.053059         2
        29        22        23        44     9        0.000000        0.403325         3
        29        22        23        44     9      180.000000        0.009410         4
        29        22        23        45     9        0.000000        0.004007         1
        29        22        23        45     9      180.000000        0.053059         2
        29        22        23        45     9        0.000000        0.403325         3
        29        22        23        45     9      180.000000        0.009410         4
        29        22        23        46     9        0.000000        0.004007         1
        29        22        23        46     9      180.000000        0.053059         2
        29        22        23        46     9        0.000000        0.403325         3
        29        22        23        46     9      180.000000        0.009410         4
        29        22        24        52     9        0.000000        0.036660         1
        29        22        24        52     9      180.000000       -0.486735         2
        29        22        24        52     9        0.000000        0.212987         3
        29        22        24        52     9      180.000000        0.212351         4
        29        27        28        49     9        0.000000       -0.068797         1
        29        27        28        49     9      180.000000       -0.069227         2
        29        27        28        49     9        0.000000       -0.295898         3
        29        27        28        49     9      180.000000        0.049318         4
        29        27        28        50     9        0.000000       -0.068797         1
        29        27        28        50     9      180.000000       -0.069227         2
        29        27        28        50     9        0.000000       -0.295898         3
        29        27        28        50     9      180.000000        0.049318         4
        29        27        28        51     9        0.000000       -0.068797         1
        29        27        28        51     9      180.000000       -0.069227         2
        29        27        28        51     9        0.000000       -0.295898         3
        29        27        28        51     9      180.000000        0.049318         4
        34         3         4        36     9        0.000000       -0.033985         1
        34         3         4        36     9      180.000000       -0.001302         2
        34         3         4        36     9        0.000000        0.746465         3
        34         3         4        36     9      180.000000       -0.037815         4
        34         3         4        37     9        0.000000       -0.033985         1
        34         3         4        37     9      180.000000       -0.001302         2
        34         3         4        37     9        0.000000        0.746465         3
        34         3         4        37     9      180.000000       -0.037815         4
        35         3         4        36     9        0.000000       -0.033985         1
        35         3         4        36     9      180.000000       -0.001302         2
        35         3         4        36     9        0.000000        0.746465         3
        35         3         4        36     9      180.000000       -0.037815         4
        35         3         4        37     9        0.000000       -0.033985         1
        35         3         4        37     9      180.000000       -0.001302         2
        35         3         4        37     9        0.000000        0.746465         3
        35         3         4        37     9      180.000000       -0.037815         4
        41        16        17        42     9        0.000000       -0.092305         1
        41        16        17        42     9      180.000000       11.930864         2
        41        16        17        42     9        0.000000       -0.744482         3
        41        16        17        42     9      180.000000        0.257666         4

[ dihedrals ] ; impropers
;       ai        aj        ak        al funct           phase               k        pn
         6         5         7        11     4      180.000000       18.191292         2
         6         7        11         5     4      180.000000       18.191292         2
         6        11         5         7     4      180.000000       18.191292         2
         7         6         8        38     4      180.000000        2.264297         2
         7         8        38         6     4      180.000000        2.264297         2
         7        38         6         8     4      180.000000        2.264297         2
        10         9        11        39     4      180.000000        7.246761         2
        10        11        39         9     4      180.000000        7.246761         2
        10        39         9        11     4      180.000000        7.246761         2
        12         9        13        14     4      180.000000       27.893333         2
        12        13        14         9     4      180.000000       27.893333         2
        12        14         9        13     4      180.000000       27.893333         2
        25        24        26        27     4      180.000000       11.127063         2
        25        26        27        24     4      180.000000       11.127063         2
        25        27        24        26     4      180.000000       11.127063         2
        29        22        27        30     4      180.000000       25.851487         2
        29        27        30        22     4      180.000000       25.851487         2
        29        30        22        27     4      180.000000       25.851487         2

[ pairs ]
;       ai        aj funct
         1         4     1
         1        34     1
         1        35     1
         2         5     1
         2        36     1
         2        37     1
         3         6     1
         3        31     1
         3        32     1
         3        33     1
         4         7     1
         4        11     1
         5         8     1
         5        10     1
         5        34     1
         5        35     1
         5        38     1
         6         9     1
         6        36     1
         6        37     1
         6        39     1
         7        10     1
         7        12     1
         8        11     1
         8        13     1
         8        14     1
         8        39     1
         9        15     1
         9        38     1
         9        40     1
        10        13     1
        10        14     1
        11        12     1
        11        38     1
        12        16     1
        12        21     1
        12        39     1
        13        15     1
        13        40     1
        14        17     1
        14        20     1
        14        41     1
        14        43     1
        15        18     1
        15        22     1
        15        42     1
        16        19     1
        16        20     1
        16        40     1
        16        43     1
        17        21     1
        17        22     1
        18        23     1
        18        24     1
        18        29     1
        18        41     1
        18        43     1
        19        21     1
        19        22     1
        19        42     1
        20        25     1
        20        27     1
        20        30     1
        20        42     1
        20        44     1
        20        45     1
        20        46     1
        20        52     1
        21        23     1
        21        24     1
        21        29     1
        21        40     1
        21        41     1
        22        26     1
        22        28     1
        22        43     1
        23        25     1
        23        27     1
        23        30     1
        23        52     1
        24        28     1
        24        30     1
        24        44     1
        24        45     1
        24        46     1
        24        47     1
        24        48     1
        25        30     1
        25        49     1
        25        50     1
        25        51     1
        26        28     1
        26        29     1
        26        52     1
        27        47     1
        27        48     1
        27        52     1
        28        30     1
        29        44     1
        29        45     1
        29        46     1
        29        49     1
        29        50     1
        29        51     1
        29        52     1
        34        36     1
        34        37     1
        35        36     1
        35        37     1
        41        42     1
