clashed crystal waters from janssen_bace/bace_ciordia_prospective
6
  167SOL     OW  499   2.649   2.189   1.400
  167SOL    HW1  500   2.639   2.175   1.302
  167SOL    HW2  501   2.566   2.155   1.446
  303SOL     OW  907   2.896   2.360   1.366
  303SOL    HW1  908   2.937   2.395   1.451
  303SOL    HW2  909   2.817   2.302   1.390
    6.3442    6.3442    6.3442
