Generated by PDBParser
954
    1SOL     OW    1   2.117   2.472   2.133
    1SOL    HW1    2   2.081   2.461   2.226
    1SOL    HW2    3   2.130   2.569   2.113
    2SOL     OW    4   1.896   0.681   1.762
    2SOL    HW1    5   1.843   0.675   1.677
    2SOL    HW2    6   1.911   0.778   1.785
    3SOL     OW    7   1.695   0.873   1.953
    3SOL    HW1    8   1.764   0.919   1.896
    3SOL    HW2    9   1.604   0.914   1.935
    4SOL     OW   10   1.720   0.195   2.033
    4SOL    HW1   11   1.660   0.217   1.956
    4SOL    HW2   12   1.663   0.184   2.115
    5SOL     OW   13   3.199   3.318   0.322
    5SOL    HW1   14   3.126   3.361   0.268
    5SOL    HW2   15   3.288   3.353   0.289
    6SOL     OW   16   2.899   1.184   2.807
    6SOL    HW1   17   2.890   1.132   2.722
    6SOL    HW2   18   2.969   1.256   2.794
    7SOL     OW   19   1.918   0.343   1.874
    7SOL    HW1   20   1.993   0.279   1.858
    7SOL    HW2   21   1.855   0.304   1.941
    8SOL     OW   22   0.716   2.349   0.862
    8SOL    HW1   23   0.747   2.389   0.948
    8SOL    HW2   24   0.703   2.250   0.874
    9SOL     OW   25   0.543   2.566   1.520
    9SOL    HW1   26   0.521   2.475   1.559
    9SOL    HW2   27   0.604   2.613   1.584
   10SOL     OW   28   1.414   4.158   2.600
   10SOL    HW1   29   1.407   4.191   2.505
   10SOL    HW2   30   1.399   4.059   2.601
   11SOL     OW   31   2.718   2.695   3.058
   11SOL    HW1   32   2.752   2.608   3.021
   11SOL    HW2   33   2.694   2.682   3.155
   12SOL     OW   34   2.084   0.269   1.383
   12SOL    HW1   35   2.172   0.283   1.430
   12SOL    HW2   36   2.010   0.278   1.451
   13SOL     OW   37   1.496   3.438   2.707
   13SOL    HW1   38   1.556   3.415   2.784
   13SOL    HW2   39   1.411   3.384   2.714
   14SOL     OW   40   1.481   1.781   1.293
   14SOL    HW1   41   1.538   1.708   1.331
   14SOL    HW2   42   1.519   1.870   1.321
   15SOL     OW   43   0.974   0.837   1.786
   15SOL    HW1   44   0.999   0.783   1.868
   15SOL    HW2   45   0.877   0.859   1.790
   16SOL     OW   46   0.595   1.983   0.558
   16SOL    HW1   47   0.629   2.047   0.489
   16SOL    HW2   48   0.631   2.010   0.648
   17SOL     OW   49   2.248   0.903   1.190
   17SOL    HW1   50   2.244   0.842   1.270
   17SOL    HW2   51   2.204   0.990   1.216
   18SOL     OW   52   1.887   0.340   1.585
   18SOL    HW1   53   1.795   0.357   1.549
   18SOL    HW2   54   1.885   0.347   1.685
   19SOL     OW   55   2.319   2.794   2.321
   19SOL    HW1   56   2.408   2.777   2.278
   19SOL    HW2   57   2.246   2.784   2.252
   20SOL     OW   58   2.575   2.371   0.677
   20SOL    HW1   59   2.533   2.393   0.589
   20SOL    HW2   60   2.672   2.397   0.674
   21SOL     OW   61   0.163   3.146   2.299
   21SOL    HW1   62   0.257   3.111   2.298
   21SOL    HW2   63   0.126   3.136   2.391
   22SOL     OW   64   1.419   0.959   1.923
   22SOL    HW1   65   1.356   0.883   1.942
   22SOL    HW2   66   1.411   0.984   1.826
   23SOL     OW   67   3.385   1.840   1.532
   23SOL    HW1   68   3.286   1.845   1.545
   23SOL    HW2   69   3.418   1.748   1.557
   24SOL     OW   70   1.528   4.149   1.260
   24SOL    HW1   71   1.470   4.205   1.321
   24SOL    HW2   72   1.544   4.061   1.305
   25SOL     OW   73   0.565   2.342   0.613
   25SOL    HW1   74   0.624   2.378   0.541
   25SOL    HW2   75   0.613   2.348   0.701
   26SOL     OW   76   4.841   2.787   1.918
   26SOL    HW1   77   4.754   2.835   1.931
   26SOL    HW2   78   4.914   2.854   1.907
   27SOL     OW   79   2.773   4.448   0.141
   27SOL    HW1   80   2.739   4.432   0.234
   27SOL    HW2   81   2.845   4.519   0.146
   28SOL     OW   82   1.631   0.412   1.465
   28SOL    HW1   83   1.623   0.510   1.480
   28SOL    HW2   84   1.539   0.372   1.457
   29SOL     OW   85   1.055   2.968  -0.055
   29SOL    HW1   86   1.044   2.958   0.044
   29SOL    HW2   87   0.965   2.983  -0.097
   30SOL     OW   88   1.210   2.904  -0.290
   30SOL    HW1   89   1.156   2.925  -0.208
   30SOL    HW2   90   1.263   2.820  -0.274
   31SOL     OW   91   1.522   3.727   2.751
   31SOL    HW1   92   1.512   3.630   2.724
   31SOL    HW2   93   1.616   3.741   2.783
   32SOL     OW   94   3.405   1.196   1.165
   32SOL    HW1   95   3.390   1.134   1.243
   32SOL    HW2   96   3.407   1.290   1.200
   33SOL     OW   97   2.890   4.292  -0.083
   33SOL    HW1   98   2.833   4.309  -0.164
   33SOL    HW2   99   2.851   4.342  -0.005
   34SOL     OW  100   2.613   1.883   1.618
   34SOL    HW1  101   2.571   1.795   1.640
   34SOL    HW2  102   2.543   1.944   1.581
   35SOL     OW  103   1.797   3.955   2.515
   35SOL    HW1  104   1.836   3.887   2.452
   35SOL    HW2  105   1.862   3.967   2.591
   36SOL     OW  106   0.373   1.804   0.471
   36SOL    HW1  107   0.450   1.868   0.484
   36SOL    HW2  108   0.410   1.712   0.455
   37SOL     OW  109   1.474   4.131   1.923
   37SOL    HW1  110   1.398   4.137   1.989
   37SOL    HW2  111   1.556   4.171   1.965
   38SOL     OW  112   2.545   3.091   0.087
   38SOL    HW1  113   2.558   3.186   0.056
   38SOL    HW2  114   2.569   3.086   0.184
   39SOL     OW  115   3.109   1.395   2.763
   39SOL    HW1  116   3.206   1.383   2.785
   39SOL    HW2  117   3.097   1.484   2.719
   40SOL     OW  118   2.428   2.879  -0.078
   40SOL    HW1  119   2.465   2.956  -0.025
   40SOL    HW2  120   2.504   2.821  -0.107
   41SOL     OW  121   0.597   3.810   0.648
   41SOL    HW1  122   0.651   3.890   0.679
   41SOL    HW2  123   0.654   3.756   0.585
   42SOL     OW  124   3.217   1.512   2.416
   42SOL    HW1  125   3.168   1.558   2.490
   42SOL    HW2  126   3.176   1.537   2.329
   43SOL     OW  127   2.523  -1.157   2.409
   43SOL    HW1  128   2.609  -1.160   2.461
   43SOL    HW2  129   2.541  -1.121   2.318
   44SOL     OW  130   0.546   1.188   0.048
   44SOL    HW1  131   0.645   1.195   0.039
   44SOL    HW2  132   0.522   1.101   0.092
   45SOL     OW  133   1.557   4.367   2.112
   45SOL    HW1  134   1.639   4.352   2.168
   45SOL    HW2  135   1.478   4.328   2.161
   46SOL     OW  136   1.423   2.137   0.637
   46SOL    HW1  137   1.405   2.145   0.539
   46SOL    HW2  138   1.424   2.228   0.678
   47SOL     OW  139   4.091   2.857   1.291
   47SOL    HW1  140   4.144   2.791   1.344
   47SOL    HW2  141   4.152   2.901   1.224
   48SOL     OW  142   2.642   2.650   3.355
   48SOL    HW1  143   2.548   2.639   3.388
   48SOL    HW2  144   2.705   2.630   3.430
   49SOL     OW  145   1.302   2.462  -0.029
   49SOL    HW1  146   1.231   2.497   0.032
   49SOL    HW2  147   1.258   2.406  -0.100
   50SOL     OW  148   0.789   1.883  -0.158
   50SOL    HW1  149   0.856   1.881  -0.082
   50SOL    HW2  150   0.768   1.789  -0.186
   51SOL     OW  151   2.558   4.248   1.734
   51SOL    HW1  152   2.611   4.163   1.720
   51SOL    HW2  153   2.596   4.297   1.813
   52SOL     OW  154   1.270  -0.025   2.480
   52SOL    HW1  155   1.255   0.017   2.389
   52SOL    HW2  156   1.216   0.027   2.548
   53SOL     OW  157   1.359   2.657  -0.247
   53SOL    HW1  158   1.358   2.595  -0.168
   53SOL    HW2  159   1.363   2.603  -0.331
   54SOL     OW  160   3.305   0.820   0.522
   54SOL    HW1  161   3.298   0.721   0.539
   54SOL    HW2  162   3.399   0.843   0.496
   55SOL     OW  163   0.903   2.161   3.009
   55SOL    HW1  164   0.885   2.111   2.924
   55SOL    HW2  165   0.940   2.252   2.987
   56SOL     OW  166   1.732   0.908   1.004
   56SOL    HW1  167   1.646   0.884   0.959
   56SOL    HW2  168   1.808   0.869   0.952
   57SOL     OW  169   1.956   4.619   1.496
   57SOL    HW1  170   1.941   4.608   1.397
   57SOL    HW2  171   1.867   4.622   1.542
   58SOL     OW  172   1.004   0.177   1.636
   58SOL    HW1  173   0.999   0.207   1.541
   58SOL    HW2  174   1.038   0.083   1.639
   59SOL     OW  175   0.280   1.339   1.482
   59SOL    HW1  176   0.297   1.281   1.562
   59SOL    HW2  177   0.228   1.287   1.414
   60SOL     OW  178   0.998   4.635   1.866
   60SOL    HW1  179   0.963   4.635   1.960
   60SOL    HW2  180   1.042   4.723   1.849
   61SOL     OW  181   0.683   1.162   2.173
   61SOL    HW1  182   0.730   1.075   2.154
   61SOL    HW2  183   0.631   1.187   2.091
   62SOL     OW  184   3.501   1.417   2.468
   62SOL    HW1  185   3.403   1.437   2.456
   62SOL    HW2  186   3.512   1.342   2.533
   63SOL     OW  187   1.391  -0.301   1.209
   63SOL    HW1  188   1.320  -0.296   1.279
   63SOL    HW2  189   1.370  -0.233   1.137
   64SOL     OW  190   3.369  -0.450   1.440
   64SOL    HW1  191   3.356  -0.373   1.503
   64SOL    HW2  192   3.376  -0.414   1.347
   65SOL     OW  193   0.345   3.741   1.309
   65SOL    HW1  194   0.357   3.665   1.373
   65SOL    HW2  195   0.248   3.768   1.307
   66SOL     OW  196   1.341  -0.184   1.712
   66SOL    HW1  197   1.379  -0.276   1.720
   66SOL    HW2  198   1.261  -0.186   1.652
   67SOL     OW  199   0.580   1.117   2.673
   67SOL    HW1  200   0.548   1.149   2.763
   67SOL    HW2  201   0.515   1.145   2.602
   68SOL     OW  202   1.928   1.882   0.558
   68SOL    HW1  203   1.896   1.828   0.636
   68SOL    HW2  204   1.951   1.820   0.483
   69SOL     OW  205   3.789   2.827   1.351
   69SOL    HW1  206   3.733   2.909   1.338
   69SOL    HW2  207   3.885   2.848   1.327
   70SOL     OW  208   2.292   0.711   2.992
   70SOL    HW1  209   2.280   0.619   3.028
   70SOL    HW2  210   2.304   0.774   3.069
   71SOL     OW  211   2.661   2.121   0.820
   71SOL    HW1  212   2.623   2.184   0.751
   71SOL    HW2  213   2.616   2.032   0.811
   72SOL     OW  214   1.967  -0.586   2.837
   72SOL    HW1  215   2.024  -0.576   2.918
   72SOL    HW2  216   1.872  -0.563   2.860
   73SOL     OW  217   0.117   1.837   0.629
   73SOL    HW1  218   0.056   1.900   0.579
   73SOL    HW2  219   0.200   1.823   0.575
   74SOL     OW  220   3.167   3.527   1.536
   74SOL    HW1  221   3.082   3.492   1.576
   74SOL    HW2  222   3.162   3.516   1.436
   75SOL     OW  223   0.102   2.461   2.735
   75SOL    HW1  224   0.156   2.476   2.651
   75SOL    HW2  225   0.060   2.370   2.730
   76SOL     OW  226   2.556  -0.376   1.516
   76SOL    HW1  227   2.537  -0.420   1.428
   76SOL    HW2  228   2.490  -0.302   1.530
   77SOL     OW  229   4.191   4.345   0.690
   77SOL    HW1  230   4.101   4.309   0.664
   77SOL    HW2  231   4.252   4.268   0.712
   78SOL     OW  232   3.669   0.022   2.048
   78SOL    HW1  233   3.610  -0.046   2.092
   78SOL    HW2  234   3.642   0.030   1.952
   79SOL     OW  235   3.849   0.965   1.506
   79SOL    HW1  236   3.802   0.957   1.595
   79SOL    HW2  237   3.801   1.033   1.450
   80SOL     OW  238   2.135   4.487  -0.184
   80SOL    HW1  239   2.107   4.451  -0.095
   80SOL    HW2  240   2.211   4.551  -0.171
   81SOL     OW  241   0.157   2.125   2.461
   81SOL    HW1  242   0.220   2.057   2.424
   81SOL    HW2  243   0.141   2.196   2.391
   82SOL     OW  244   2.711   4.963   0.595
   82SOL    HW1  245   2.626   4.910   0.605
   82SOL    HW2  246   2.707   5.042   0.656
   83SOL     OW  247   3.075   2.550   2.689
   83SOL    HW1  248   3.115   2.467   2.730
   83SOL    HW2  249   3.139   2.589   2.623
   84SOL     OW  250   3.077   2.246   1.622
   84SOL    HW1  251   3.163   2.208   1.587
   84SOL    HW2  252   3.041   2.185   1.692
   85SOL     OW  253   0.395   0.061  -0.401
   85SOL    HW1  254   0.379   0.100  -0.310
   85SOL    HW2  255   0.425  -0.034  -0.391
   86SOL     OW  256   1.474   4.194   0.043
   86SOL    HW1  257   1.531   4.129   0.092
   86SOL    HW2  258   1.379   4.163   0.045
   87SOL     OW  259   3.300   3.888  -0.705
   87SOL    HW1  260   3.215   3.877  -0.756
   87SOL    HW2  261   3.359   3.954  -0.751
   88SOL     OW  262   1.608  -0.180   2.228
   88SOL    HW1  263   1.556  -0.127   2.161
   88SOL    HW2  264   1.668  -0.118   2.279
   89SOL     OW  265   3.339  -0.452   2.479
   89SOL    HW1  266   3.366  -0.541   2.518
   89SOL    HW2  267   3.322  -0.387   2.554
   90SOL     OW  268   1.793   1.731   0.782
   90SOL    HW1  269   1.839   1.785   0.855
   90SOL    HW2  270   1.695   1.727   0.802
   91SOL     OW  271   2.993   2.712   0.770
   91SOL    HW1  272   2.895   2.730   0.770
   91SOL    HW2  273   3.031   2.736   0.860
   92SOL     OW  274   0.860   2.810   3.040
   92SOL    HW1  275   0.867   2.848   2.947
   92SOL    HW2  276   0.897   2.876   3.105
   93SOL     OW  277   1.400   2.017   3.509
   93SOL    HW1  278   1.393   1.987   3.605
   93SOL    HW2  279   1.316   1.993   3.460
   94SOL     OW  280   2.181   2.031   0.624
   94SOL    HW1  281   2.191   2.037   0.723
   94SOL    HW2  282   2.098   1.980   0.602
   95SOL     OW  283   0.744   0.895   1.441
   95SOL    HW1  284   0.716   0.977   1.391
   95SOL    HW2  285   0.719   0.814   1.388
   96SOL     OW  286   2.337   3.003  -0.338
   96SOL    HW1  287   2.362   2.964  -0.249
   96SOL    HW2  288   2.394   2.962  -0.409
   97SOL     OW  289   2.898   4.106  -0.383
   97SOL    HW1  290   2.991   4.117  -0.346
   97SOL    HW2  291   2.904   4.048  -0.465
   98SOL     OW  292   3.904   0.050   1.832
   98SOL    HW1  293   3.853   0.036   1.918
   98SOL    HW2  294   3.999   0.072   1.853
   99SOL     OW  295   1.030   2.848  -0.520
   99SOL    HW1  296   1.096   2.870  -0.447
   99SOL    HW2  297   1.058   2.761  -0.562
  100SOL     OW  298   3.139   4.052   1.980
  100SOL    HW1  299   3.108   4.049   2.075
  100SOL    HW2  300   3.236   4.076   1.977
  101SOL     OW  301   2.798   0.047   2.743
  101SOL    HW1  302   2.860  -0.030   2.736
  101SOL    HW2  303   2.719   0.030   2.683
  102SOL     OW  304   0.899   0.270   0.728
  102SOL    HW1  305   0.880   0.367   0.714
  102SOL    HW2  306   0.841   0.237   0.803
  103SOL     OW  307   0.812   1.287   3.064
  103SOL    HW1  308   0.820   1.272   3.163
  103SOL    HW2  309   0.846   1.379   3.043
  104SOL     OW  310   0.626   1.483   2.054
  104SOL    HW1  311   0.593   1.402   2.004
  104SOL    HW2  312   0.627   1.462   2.152
  105SOL     OW  313   1.626   1.943   0.532
  105SOL    HW1  314   1.572   2.005   0.588
  105SOL    HW2  315   1.722   1.947   0.561
  106SOL     OW  316   4.137   2.798   1.719
  106SOL    HW1  317   4.164   2.704   1.744
  106SOL    HW2  318   4.180   2.822   1.631
  107SOL     OW  319   2.680   3.806  -0.478
  107SOL    HW1  320   2.756   3.843  -0.532
  107SOL    HW2  321   2.676   3.707  -0.489
  108SOL     OW  322   0.184   4.249   1.900
  108SOL    HW1  323   0.214   4.232   1.805
  108SOL    HW2  324   0.114   4.320   1.899
  109SOL     OW  325  -0.525   2.835   2.147
  109SOL    HW1  326  -0.610   2.841   2.200
  109SOL    HW2  327  -0.475   2.752   2.173
  110SOL     OW  328   1.351   2.470  -0.478
  110SOL    HW1  329   1.429   2.437  -0.531
  110SOL    HW2  330   1.312   2.395  -0.424
  111SOL     OW  331   2.327   4.910   0.881
  111SOL    HW1  332   2.389   4.874   0.812
  111SOL    HW2  333   2.318   4.843   0.955
  112SOL     OW  334   2.208   0.937   0.899
  112SOL    HW1  335   2.232   0.927   0.996
  112SOL    HW2  336   2.218   1.033   0.873
  113SOL     OW  337   3.514   4.370   1.691
  113SOL    HW1  338   3.586   4.435   1.717
  113SOL    HW2  339   3.454   4.414   1.623
  114SOL     OW  340   1.856   2.116   0.026
  114SOL    HW1  341   1.782   2.081   0.084
  114SOL    HW2  342   1.895   2.039  -0.026
  115SOL     OW  343   2.631   4.542  -0.109
  115SOL    HW1  344   2.648   4.466  -0.172
  115SOL    HW2  345   2.664   4.516  -0.017
  116SOL     OW  346   0.419   2.918  -0.091
  116SOL    HW1  347   0.493   2.950  -0.151
  116SOL    HW2  348   0.358   2.995  -0.071
  117SOL     OW  349   2.320  -1.300   1.880
  117SOL    HW1  350   2.414  -1.272   1.857
  117SOL    HW2  351   2.324  -1.381   1.937
  118SOL     OW  352   0.742   1.775   3.002
  118SOL    HW1  353   0.756   1.817   2.912
  118SOL    HW2  354   0.801   1.695   3.009
  119SOL     OW  355   0.147   3.649   1.567
  119SOL    HW1  356   0.147   3.680   1.662
  119SOL    HW2  357   0.073   3.583   1.554
  120SOL     OW  358   1.525   1.682   0.437
  120SOL    HW1  359   1.567   1.769   0.462
  120SOL    HW2  360   1.563   1.610   0.495
  121SOL     OW  361   0.450   1.797   0.774
  121SOL    HW1  362   0.460   1.852   0.692
  121SOL    HW2  363   0.516   1.828   0.843
  122SOL     OW  364   0.481   4.441   0.778
  122SOL    HW1  365   0.530   4.356   0.757
  122SOL    HW2  366   0.388   4.435   0.742
  123SOL     OW  367   1.335   4.245   1.467
  123SOL    HW1  368   1.248   4.253   1.419
  123SOL    HW2  369   1.350   4.149   1.493
  124SOL     OW  370   1.978   0.128   3.385
  124SOL    HW1  371   1.926   0.072   3.449
  124SOL    HW2  372   1.976   0.084   3.294
  125SOL     OW  373   3.935   0.405   2.310
  125SOL    HW1  374   3.858   0.342   2.297
  125SOL    HW2  375   4.009   0.357   2.358
  126SOL     OW  376   3.695   0.236   2.258
  126SOL    HW1  377   3.628   0.310   2.244
  126SOL    HW2  378   3.685   0.168   2.185
  127SOL     OW  379   0.951   0.645   2.440
  127SOL    HW1  380   1.020   0.577   2.463
  127SOL    HW2  381   0.889   0.607   2.371
  128SOL     OW  382   1.236   0.625   0.679
  128SOL    HW1  383   1.158   0.658   0.733
  128SOL    HW2  384   1.287   0.559   0.733
  129SOL     OW  385   0.779   0.228   2.993
  129SOL    HW1  386   0.877   0.207   3.003
  129SOL    HW2  387   0.754   0.300   3.058
  130SOL     OW  388   0.575   3.550  -0.154
  130SOL    HW1  389   0.584   3.623  -0.222
  130SOL    HW2  390   0.517   3.477  -0.192
  131SOL     OW  391   1.933   4.295   2.007
  131SOL    HW1  392   1.967   4.201   2.013
  131SOL    HW2  393   1.873   4.312   2.086
  132SOL     OW  394   1.684   3.054   3.405
  132SOL    HW1  395   1.655   3.047   3.309
  132SOL    HW2  396   1.779   3.023   3.412
  133SOL     OW  397   3.033   2.538   1.600
  133SOL    HW1  398   2.970   2.591   1.657
  133SOL    HW2  399   3.045   2.447   1.641
  134SOL     OW  400   0.139   1.997   1.815
  134SOL    HW1  401   0.228   1.999   1.769
  134SOL    HW2  402   0.149   2.033   1.908
  135SOL     OW  403   0.215   1.774   3.067
  135SOL    HW1  404   0.302   1.725   3.060
  135SOL    HW2  405   0.178   1.759   3.159
  136SOL     OW  406   0.988   0.411   1.819
  136SOL    HW1  407   0.985   0.497   1.768
  136SOL    HW2  408   0.994   0.334   1.755
  137SOL     OW  409   1.896  -0.912   1.960
  137SOL    HW1  410   1.808  -0.949   1.990
  137SOL    HW2  411   1.917  -0.949   1.869
  138SOL     OW  412   2.124   3.962  -0.340
  138SOL    HW1  413   2.116   4.062  -0.350
  138SOL    HW2  414   2.039   3.919  -0.374
  139SOL     OW  415   2.363   4.676  -0.144
  139SOL    HW1  416   2.455   4.639  -0.126
  139SOL    HW2  417   2.359   4.771  -0.116
  140SOL     OW  418   2.311   3.848   2.757
  140SOL    HW1  419   2.302   3.758   2.800
  140SOL    HW2  420   2.406   3.863   2.731
  141SOL     OW  421   2.904  -0.126   3.008
  141SOL    HW1  422   2.843  -0.048   2.991
  141SOL    HW2  423   2.918  -0.175   2.921
  142SOL     OW  424   0.374   1.394   0.190
  142SOL    HW1  425   0.342   1.473   0.137
  142SOL    HW2  426   0.425   1.333   0.130
  143SOL     OW  427   1.551   4.456   1.502
  143SOL    HW1  428   1.474   4.395   1.480
  143SOL    HW2  429   1.567   4.452   1.601
  144SOL     OW  430   0.442   2.243  -0.587
  144SOL    HW1  431   0.520   2.181  -0.585
  144SOL    HW2  432   0.455   2.311  -0.658
  145SOL     OW  433   0.937   1.548   2.989
  145SOL    HW1  434   1.020   1.582   3.031
  145SOL    HW2  435   0.951   1.540   2.890
  146SOL     OW  436   3.342   0.326   0.681
  146SOL    HW1  437   3.351   0.293   0.776
  146SOL    HW2  438   3.398   0.269   0.621
  147SOL     OW  439   3.227   3.710   1.757
  147SOL    HW1  440   3.141   3.731   1.804
  147SOL    HW2  441   3.209   3.643   1.684
  148SOL     OW  442   2.340   2.482   0.116
  148SOL    HW1  443   2.260   2.534   0.087
  148SOL    HW2  444   2.412   2.490   0.047
  149SOL     OW  445   1.959   0.775   0.870
  149SOL    HW1  446   2.050   0.812   0.887
  149SOL    HW2  447   1.943   0.695   0.929
  150SOL     OW  448   0.799   0.910   2.063
  150SOL    HW1  449   0.747   0.898   1.978
  150SOL    HW2  450   0.864   0.834   2.073
  151SOL     OW  451   2.177  -0.901   0.684
  151SOL    HW1  452   2.225  -0.864   0.764
  151SOL    HW2  453   2.225  -0.872   0.601
  152SOL     OW  454   3.699   1.165   1.333
  152SOL    HW1  455   3.742   1.156   1.243
  152SOL    HW2  456   3.609   1.122   1.331
  153SOL     OW  457   0.942   2.519   3.110
  153SOL    HW1  458   0.987   2.491   3.024
  153SOL    HW2  459   0.912   2.614   3.101
  154SOL     OW  460   3.402   2.846   1.214
  154SOL    HW1  461   3.477   2.910   1.233
  154SOL    HW2  462   3.376   2.801   1.300
  155SOL     OW  463   2.816   2.468   2.830
  155SOL    HW1  464   2.739   2.525   2.800
  155SOL    HW2  465   2.900   2.499   2.785
  156SOL     OW  466   3.010   1.701   3.169
  156SOL    HW1  467   2.942   1.657   3.227
  156SOL    HW2  468   2.987   1.799   3.162
  157SOL     OW  469   1.516  -0.422   1.751
  157SOL    HW1  470   1.600  -0.367   1.750
  157SOL    HW2  471   1.538  -0.514   1.782
  158SOL     OW  472   2.378   4.858   1.469
  158SOL    HW1  473   2.420   4.833   1.381
  158SOL    HW2  474   2.319   4.938   1.456
  159SOL     OW  475   0.382   4.040   0.587
  159SOL    HW1  476   0.457   4.086   0.635
  159SOL    HW2  477   0.405   3.943   0.577
  160SOL     OW  478   0.060   2.158   2.732
  160SOL    HW1  479   0.086   2.150   2.636
  160SOL    HW2  480   0.038   2.067   2.768
  161SOL     OW  481   0.436   1.145   1.208
  161SOL    HW1  482   0.510   1.162   1.273
  161SOL    HW2  483   0.475   1.099   1.127
  162SOL     OW  484  -0.424   3.559   2.105
  162SOL    HW1  485  -0.365   3.554   2.186
  162SOL    HW2  486  -0.418   3.473   2.054
  163SOL     OW  487   0.180   3.570   0.484
  163SOL    HW1  488   0.089   3.528   0.482
  163SOL    HW2  489   0.194   3.615   0.572
  164SOL     OW  490  -0.057   3.023   1.687
  164SOL    HW1  491  -0.018   3.080   1.759
  164SOL    HW2  492  -0.080   2.933   1.725
  165SOL     OW  493   1.784   1.221   3.356
  165SOL    HW1  494   1.806   1.296   3.294
  165SOL    HW2  495   1.811   1.245   3.449
  166SOL     OW  496   0.281   2.673   2.864
  166SOL    HW1  497   0.312   2.707   2.775
  166SOL    HW2  498   0.202   2.613   2.848
  167SOL     OW  499   2.649   2.189   1.400
  167SOL    HW1  500   2.639   2.175   1.302
  167SOL    HW2  501   2.566   2.155   1.446
  168SOL     OW  502   3.751   1.538   0.578
  168SOL    HW1  503   3.764   1.638   0.573
  168SOL    HW2  504   3.730   1.504   0.486
  169SOL     OW  505   2.691   5.188   0.784
  169SOL    HW1  506   2.775   5.219   0.830
  169SOL    HW2  507   2.614   5.243   0.817
  170SOL     OW  508   2.701   4.321  -0.317
  170SOL    HW1  509   2.761   4.244  -0.345
  170SOL    HW2  510   2.671   4.369  -0.399
  171SOL     OW  511   1.582  -0.400   2.433
  171SOL    HW1  512   1.506  -0.373   2.492
  171SOL    HW2  513   1.588  -0.336   2.356
  172SOL     OW  514   0.130   1.339   0.355
  172SOL    HW1  515   0.214   1.354   0.301
  172SOL    HW2  516   0.104   1.425   0.400
  173SOL     OW  517   0.691   0.946   1.762
  173SOL    HW1  518   0.635   1.024   1.788
  173SOL    HW2  519   0.684   0.931   1.663
  174SOL     OW  520   0.368   0.297  -0.580
  174SOL    HW1  521   0.276   0.318  -0.612
  174SOL    HW2  522   0.366   0.213  -0.525
  175SOL     OW  523   1.345   3.616  -0.401
  175SOL    HW1  524   1.353   3.586  -0.306
  175SOL    HW2  525   1.408   3.562  -0.458
  176SOL     OW  526   0.402   4.234   2.114
  176SOL    HW1  527   0.374   4.149   2.158
  176SOL    HW2  528   0.337   4.255   2.040
  177SOL     OW  529   2.046   4.939   0.784
  177SOL    HW1  530   2.141   4.933   0.814
  177SOL    HW2  531   2.007   5.025   0.817
  178SOL     OW  532   2.244   3.567   2.859
  178SOL    HW1  533   2.264   3.483   2.807
  178SOL    HW2  534   2.154   3.558   2.902
  179SOL     OW  535   0.192   1.812   0.927
  179SOL    HW1  536   0.127   1.816   0.850
  179SOL    HW2  537   0.285   1.821   0.891
  180SOL     OW  538   3.657   1.235   2.715
  180SOL    HW1  539   3.567   1.196   2.734
  180SOL    HW2  540   3.718   1.217   2.792
  181SOL     OW  541   3.357   0.223   0.963
  181SOL    HW1  542   3.448   0.193   0.991
  181SOL    HW2  543   3.294   0.146   0.966
  182SOL     OW  544   4.037   1.227   1.196
  182SOL    HW1  545   3.997   1.135   1.201
  182SOL    HW2  546   4.100   1.232   1.119
  183SOL     OW  547   0.913   1.933   3.195
  183SOL    HW1  548   0.911   2.020   3.144
  183SOL    HW2  549   0.848   1.870   3.153
  184SOL     OW  550   0.488   2.556   3.059
  184SOL    HW1  551   0.415   2.611   3.020
  184SOL    HW2  552   0.549   2.614   3.113
  185SOL     OW  553   0.359   0.453  -0.919
  185SOL    HW1  554   0.438   0.459  -0.858
  185SOL    HW2  555   0.275   0.451  -0.864
  186SOL     OW  556   3.757   1.757   2.746
  186SOL    HW1  557   3.855   1.740   2.756
  186SOL    HW2  558   3.708   1.669   2.748
  187SOL     OW  559   2.053   1.013   3.656
  187SOL    HW1  560   2.126   1.081   3.651
  187SOL    HW2  561   2.012   1.015   3.748
  188SOL     OW  562   1.102   0.053   3.266
  188SOL    HW1  563   1.201   0.059   3.282
  188SOL    HW2  564   1.081   0.090   3.175
  189SOL     OW  565   2.026   3.222  -0.624
  189SOL    HW1  566   1.932   3.258  -0.620
  189SOL    HW2  567   2.089   3.296  -0.643
  190SOL     OW  568   0.476   1.212   2.403
  190SOL    HW1  569   0.545   1.198   2.331
  190SOL    HW2  570   0.430   1.300   2.388
  191SOL     OW  571   0.884   4.605   0.875
  191SOL    HW1  572   0.953   4.596   0.947
  191SOL    HW2  573   0.795   4.624   0.916
  192SOL     OW  574   1.534   1.880  -0.314
  192SOL    HW1  575   1.505   1.799  -0.365
  192SOL    HW2  576   1.454   1.922  -0.270
  193SOL     OW  577   1.738   0.305   0.397
  193SOL    HW1  578   1.830   0.278   0.368
  193SOL    HW2  579   1.678   0.225   0.392
  194SOL     OW  580   0.691   4.366   1.419
  194SOL    HW1  581   0.763   4.343   1.354
  194SOL    HW2  582   0.732   4.408   1.501
  195SOL     OW  583   0.587   1.354   0.407
  195SOL    HW1  584   0.514   1.376   0.341
  195SOL    HW2  585   0.587   1.256   0.424
  196SOL     OW  586   4.044   0.294   1.198
  196SOL    HW1  587   4.053   0.394   1.203
  196SOL    HW2  588   4.066   0.255   1.287
  197SOL     OW  589   1.102   2.574  -0.613
  197SOL    HW1  590   1.193   2.543  -0.582
  197SOL    HW2  591   1.032   2.515  -0.572
  198SOL     OW  592   2.416   5.059   0.450
  198SOL    HW1  593   2.414   5.073   0.549
  198SOL    HW2  594   2.334   5.009   0.422
  199SOL     OW  595   0.920   4.615   0.565
  199SOL    HW1  596   0.948   4.521   0.541
  199SOL    HW2  597   0.913   4.622   0.665
  200SOL     OW  598   1.739   2.580  -0.434
  200SOL    HW1  599   1.815   2.642  -0.450
  200SOL    HW2  600   1.708   2.589  -0.339
  201SOL     OW  601   1.564   4.398   1.798
  201SOL    HW1  602   1.517   4.309   1.798
  201SOL    HW2  603   1.579   4.426   1.893
  202SOL     OW  604   0.479   1.633   3.055
  202SOL    HW1  605   0.566   1.682   3.046
  202SOL    HW2  606   0.496   1.535   3.050
  203SOL     OW  607   1.034   0.785   3.140
  203SOL    HW1  608   1.111   0.845   3.118
  203SOL    HW2  609   1.054   0.693   3.107
  204SOL     OW  610   3.532   0.684   0.250
  204SOL    HW1  611   3.589   0.624   0.195
  204SOL    HW2  612   3.442   0.641   0.264
  205SOL     OW  613   2.466   2.466   0.411
  205SOL    HW1  614   2.492   2.432   0.320
  205SOL    HW2  615   2.419   2.553   0.400
  206SOL     OW  616   2.044   4.389   2.383
  206SOL    HW1  617   2.071   4.298   2.414
  206SOL    HW2  618   2.109   4.457   2.417
  207SOL     OW  619   0.677   0.635   1.287
  207SOL    HW1  620   0.684   0.586   1.200
  207SOL    HW2  621   0.630   0.576   1.353
  208SOL     OW  622   0.585   0.445  -0.707
  208SOL    HW1  623   0.661   0.384  -0.729
  208SOL    HW2  624   0.515   0.392  -0.657
  209SOL     OW  625   2.737   3.038   2.163
  209SOL    HW1  626   2.772   3.067   2.253
  209SOL    HW2  627   2.639   3.022   2.170
  210SOL     OW  628   2.064   1.552   0.519
  210SOL    HW1  629   2.156   1.591   0.526
  210SOL    HW2  630   2.033   1.526   0.610
  211SOL     OW  631   1.076   0.897   2.338
  211SOL    HW1  632   1.067   0.963   2.413
  211SOL    HW2  633   1.033   0.811   2.365
  212SOL     OW  634   2.591   0.642   3.241
  212SOL    HW1  635   2.579   0.732   3.198
  212SOL    HW2  636   2.640   0.582   3.177
  213SOL     OW  637   2.798   2.760   0.260
  213SOL    HW1  638   2.809   2.792   0.165
  213SOL    HW2  639   2.851   2.676   0.272
  214SOL     OW  640  -0.286   3.071   1.494
  214SOL    HW1  641  -0.202   3.039   1.539
  214SOL    HW2  642  -0.303   3.016   1.412
  215SOL     OW  643   0.004   2.036   1.333
  215SOL    HW1  644   0.076   1.966   1.330
  215SOL    HW2  645   0.003   2.087   1.246
  216SOL     OW  646   0.818   0.563   0.772
  216SOL    HW1  647   0.890   0.621   0.811
  216SOL    HW2  648   0.758   0.531   0.846
  217SOL     OW  649   1.859   1.236   0.832
  217SOL    HW1  650   1.808   1.271   0.911
  217SOL    HW2  651   1.925   1.306   0.804
  218SOL     OW  652   1.959   4.904   0.496
  218SOL    HW1  653   1.913   4.815   0.494
  218SOL    HW2  654   1.990   4.923   0.590
  219SOL     OW  655   3.239   2.677   2.450
  219SOL    HW1  656   3.313   2.743   2.464
  219SOL    HW2  657   3.187   2.702   2.368
  220SOL     OW  658   1.860   4.608  -0.226
  220SOL    HW1  659   1.953   4.569  -0.221
  220SOL    HW2  660   1.863   4.703  -0.194
  221SOL     OW  661   2.281  -1.136   0.867
  221SOL    HW1  662   2.230  -1.105   0.786
  221SOL    HW2  663   2.313  -1.054   0.916
  222SOL     OW  664   1.847   4.631   0.520
  222SOL    HW1  665   1.761   4.580   0.528
  222SOL    HW2  666   1.920   4.567   0.496
  223SOL     OW  667   2.502   1.858   0.847
  223SOL    HW1  668   2.532   1.851   0.942
  223SOL    HW2  669   2.402   1.855   0.844
  224SOL     OW  670   1.830  -0.007   0.390
  224SOL    HW1  671   1.828  -0.015   0.291
  224SOL    HW2  672   1.792  -0.091   0.431
  225SOL     OW  673   1.190   4.081   0.038
  225SOL    HW1  674   1.177   4.022  -0.041
  225SOL    HW2  675   1.103   4.089   0.088
  226SOL     OW  676   1.194   1.980   3.290
  226SOL    HW1  677   1.100   1.950   3.269
  226SOL    HW2  678   1.212   2.064   3.239
  227SOL     OW  679   0.292   3.855   1.000
  227SOL    HW1  680   0.290   3.788   1.075
  227SOL    HW2  681   0.290   3.807   0.912
  228SOL     OW  682   1.962   1.847  -0.077
  228SOL    HW1  683   2.012   1.766  -0.043
  228SOL    HW2  684   1.932   1.829  -0.171
  229SOL     OW  685   1.666  -1.038   2.105
  229SOL    HW1  686   1.573  -1.005   2.092
  229SOL    HW2  687   1.664  -1.137   2.120
  230SOL     OW  688   4.155   0.206   0.677
  230SOL    HW1  689   4.171   0.110   0.654
  230SOL    HW2  690   4.181   0.222   0.773
  231SOL     OW  691   2.874   2.433   0.679
  231SOL    HW1  692   2.922   2.518   0.699
  231SOL    HW2  693   2.917   2.358   0.730
  232SOL     OW  694   0.429   4.007   1.438
  232SOL    HW1  695   0.413   3.921   1.390
  232SOL    HW2  696   0.513   4.050   1.404
  233SOL     OW  697   1.627   0.735   3.570
  233SOL    HW1  698   1.719   0.771   3.587
  233SOL    HW2  699   1.570   0.809   3.535
  234SOL     OW  700   0.690   0.089   2.745
  234SOL    HW1  701   0.722   0.136   2.827
  234SOL    HW2  702   0.593   0.065   2.756
  235SOL     OW  703   1.553   0.450   3.612
  235SOL    HW1  704   1.584   0.545   3.606
  235SOL    HW2  705   1.630   0.392   3.641
  236SOL     OW  706   0.886   0.267   2.057
  236SOL    HW1  707   0.951   0.191   2.056
  236SOL    HW2  708   0.905   0.325   1.977
  237SOL     OW  709   1.995   1.507   0.817
  237SOL    HW1  710   2.051   1.520   0.898
  237SOL    HW2  711   1.923   1.577   0.815
  238SOL     OW  712   0.857   1.393   0.272
  238SOL    HW1  713   0.770   1.393   0.321
  238SOL    HW2  714   0.906   1.308   0.292
  239SOL     OW  715  -0.227   0.079   0.787
  239SOL    HW1  716  -0.291   0.129   0.846
  239SOL    HW2  717  -0.273   0.054   0.702
  240SOL     OW  718   1.445   0.955   0.587
  240SOL    HW1  719   1.382   0.913   0.653
  240SOL    HW2  720   1.491   1.033   0.630
  241SOL     OW  721   1.896   0.985   0.653
  241SOL    HW1  722   1.892   1.069   0.707
  241SOL    HW2  723   1.916   0.908   0.713
  242SOL     OW  724   4.229   0.258   0.962
  242SOL    HW1  725   4.166   0.262   1.040
  242SOL    HW2  726   4.299   0.329   0.973
  243SOL     OW  727   0.059   1.879   2.835
  243SOL    HW1  728   0.110   1.848   2.916
  243SOL    HW2  729   0.007   1.802   2.797
  244SOL     OW  730   0.746   2.851  -0.427
  244SOL    HW1  731   0.742   2.892  -0.336
  244SOL    HW2  732   0.841   2.829  -0.450
  245SOL     OW  733   2.106   0.509  -0.381
  245SOL    HW1  734   2.182   0.465  -0.333
  245SOL    HW2  735   2.134   0.528  -0.475
  246SOL     OW  736   3.738  -0.167   0.653
  246SOL    HW1  737   3.741  -0.070   0.679
  246SOL    HW2  738   3.642  -0.197   0.646
  247SOL     OW  739   2.288   1.187   3.612
  247SOL    HW1  740   2.349   1.175   3.534
  247SOL    HW2  741   2.281   1.285   3.634
  248SOL     OW  742   3.496   0.962   0.147
  248SOL    HW1  743   3.533   0.972   0.054
  248SOL    HW2  744   3.516   0.869   0.179
  249SOL     OW  745   3.006   1.427   0.644
  249SOL    HW1  746   3.010   1.376   0.558
  249SOL    HW2  747   3.032   1.365   0.719
  250SOL     OW  748  -0.020   2.249   1.102
  250SOL    HW1  749  -0.081   2.257   1.022
  250SOL    HW2  750  -0.036   2.327   1.162
  251SOL     OW  751   0.804   4.535   1.654
  251SOL    HW1  752   0.864   4.567   1.727
  251SOL    HW2  753   0.733   4.603   1.637
  252SOL     OW  754   3.335  -0.470   0.856
  252SOL    HW1  755   3.377  -0.420   0.780
  252SOL    HW2  756   3.385  -0.555   0.871
  253SOL     OW  757   0.342   3.690   0.749
  253SOL    HW1  758   0.371   3.609   0.802
  253SOL    HW2  759   0.423   3.730   0.705
  254SOL     OW  760   0.717   3.970   2.756
  254SOL    HW1  761   0.678   3.955   2.665
  254SOL    HW2  762   0.696   4.063   2.786
  255SOL     OW  763   2.772  -0.972   1.379
  255SOL    HW1  764   2.685  -1.001   1.337
  255SOL    HW2  765   2.845  -1.030   1.345
  256SOL     OW  766   0.820   0.520   2.204
  256SOL    HW1  767   0.825   0.429   2.163
  256SOL    HW2  768   0.879   0.583   2.152
  257SOL     OW  769   2.589  -1.182   1.812
  257SOL    HW1  770   2.626  -1.139   1.894
  257SOL    HW2  771   2.652  -1.167   1.736
  258SOL     OW  772   1.601   2.400  -0.624
  258SOL    HW1  773   1.655   2.462  -0.566
  258SOL    HW2  774   1.663   2.346  -0.682
  259SOL     OW  775   2.135   4.259  -0.379
  259SOL    HW1  776   2.137   4.334  -0.312
  259SOL    HW2  777   2.128   4.297  -0.471
  260SOL     OW  778   3.524   1.004   0.449
  260SOL    HW1  779   3.496   1.083   0.504
  260SOL    HW2  780   3.523   1.028   0.352
  261SOL     OW  781   3.437   0.293   0.348
  261SOL    HW1  782   3.412   0.381   0.307
  261SOL    HW2  783   3.465   0.229   0.276
  262SOL     OW  784   2.691   2.750  -0.155
  262SOL    HW1  785   2.746   2.819  -0.109
  262SOL    HW2  786   2.745   2.712  -0.231
  263SOL     OW  787  -0.321   3.665   0.881
  263SOL    HW1  788  -0.406   3.644   0.929
  263SOL    HW2  789  -0.342   3.707   0.793
  264SOL     OW  790   3.453  -0.319   0.620
  264SOL    HW1  791   3.401  -0.233   0.615
  264SOL    HW2  792   3.459  -0.359   0.528
  265SOL     OW  793   0.903   1.046   0.580
  265SOL    HW1  794   0.823   1.056   0.639
  265SOL    HW2  795   0.938   0.953   0.587
  266SOL     OW  796   3.243   1.584   3.021
  266SOL    HW1  797   3.259   1.491   3.055
  266SOL    HW2  798   3.167   1.626   3.072
  267SOL     OW  799   1.198   2.301  -0.275
  267SOL    HW1  800   1.234   2.211  -0.250
  267SOL    HW2  801   1.101   2.292  -0.299
  268SOL     OW  802   2.007   1.438   0.244
  268SOL    HW1  803   2.024   1.475   0.336
  268SOL    HW2  804   1.912   1.406   0.239
  269SOL     OW  805   0.543   1.206   2.958
  269SOL    HW1  806   0.636   1.230   2.990
  269SOL    HW2  807   0.500   1.147   3.025
  270SOL     OW  808   1.788   4.274   2.280
  270SOL    HW1  809   1.748   4.213   2.349
  270SOL    HW2  810   1.867   4.321   2.320
  271SOL     OW  811   0.150   1.194   1.254
  271SOL    HW1  812   0.089   1.119   1.225
  271SOL    HW2  813   0.245   1.170   1.230
  272SOL     OW  814   2.676   3.021   0.352
  272SOL    HW1  815   2.745   3.061   0.413
  272SOL    HW2  816   2.709   2.932   0.320
  273SOL     OW  817   0.066   2.061  -0.196
  273SOL    HW1  818   0.133   2.044  -0.123
  273SOL    HW2  819   0.113   2.098  -0.277
  274SOL     OW  820   0.422   3.011   2.316
  274SOL    HW1  821   0.483   2.953   2.262
  274SOL    HW2  822   0.450   3.003   2.412
  275SOL     OW  823   1.273   3.770   2.915
  275SOL    HW1  824   1.363   3.768   2.871
  275SOL    HW2  825   1.267   3.850   2.974
  276SOL     OW  826   0.138   2.346   2.261
  276SOL    HW1  827   0.061   2.402   2.231
  276SOL    HW2  828   0.190   2.397   2.330
  277SOL     OW  829   0.190   2.099   2.093
  277SOL    HW1  830   0.286   2.071   2.104
  277SOL    HW2  831   0.173   2.182   2.146
  278SOL     OW  832   0.047   2.343   0.058
  278SOL    HW1  833  -0.006   2.417   0.017
  278SOL    HW2  834   0.090   2.289  -0.015
  279SOL     OW  835   0.721   2.102  -0.351
  279SOL    HW1  836   0.753   2.028  -0.291
  279SOL    HW2  837   0.633   2.135  -0.317
  280SOL     OW  838   4.028   4.628   0.942
  280SOL    HW1  839   3.994   4.634   1.036
  280SOL    HW2  840   4.008   4.714   0.894
  281SOL     OW  841  -0.105  -0.033  -0.004
  281SOL    HW1  842  -0.017   0.001   0.032
  281SOL    HW2  843  -0.156  -0.077   0.071
  282SOL     OW  844   1.202   3.881   2.643
  282SOL    HW1  845   1.232   3.817   2.571
  282SOL    HW2  846   1.224   3.841   2.732
  283SOL     OW  847   0.057   2.966   1.113
  283SOL    HW1  848   0.006   3.037   1.063
  283SOL    HW2  849  -0.001   2.930   1.186
  284SOL     OW  850   0.924   3.777   2.656
  284SOL    HW1  851   1.013   3.823   2.650
  284SOL    HW2  852   0.859   3.837   2.704
  285SOL     OW  853   0.461   0.003   0.058
  285SOL    HW1  854   0.416   0.060  -0.012
  285SOL    HW2  855   0.420  -0.089   0.056
  286SOL     OW  856   1.865   3.848  -0.424
  286SOL    HW1  857   1.824   3.838  -0.333
  286SOL    HW2  858   1.819   3.787  -0.488
  287SOL     OW  859   2.244   5.001   0.028
  287SOL    HW1  860   2.328   5.053   0.045
  287SOL    HW2  861   2.206   4.973   0.116
  288SOL     OW  862   0.697   1.605  -0.266
  288SOL    HW1  863   0.609   1.558  -0.251
  288SOL    HW2  864   0.753   1.551  -0.329
  289SOL     OW  865   2.772   3.241   1.954
  289SOL    HW1  866   2.764   3.167   2.021
  289SOL    HW2  867   2.821   3.207   1.873
  290SOL     OW  868   3.733   1.794   1.848
  290SOL    HW1  869   3.833   1.801   1.840
  290SOL    HW2  870   3.694   1.781   1.757
  291SOL     OW  871   2.282   4.684   1.083
  291SOL    HW1  872   2.361   4.712   1.138
  291SOL    HW2  873   2.313   4.623   1.010
  292SOL     OW  874   3.323   1.727   2.772
  292SOL    HW1  875   3.271   1.812   2.780
  292SOL    HW2  876   3.309   1.672   2.855
  293SOL     OW  877   1.146   3.031   3.218
  293SOL    HW1  878   1.220   2.964   3.227
  293SOL    HW2  879   1.153   3.097   3.293
  294SOL     OW  880   0.541   2.927   2.579
  294SOL    HW1  881   0.482   2.846   2.578
  294SOL    HW2  882   0.552   2.958   2.674
  295SOL     OW  883   1.503   3.875   2.504
  295SOL    HW1  884   1.590   3.924   2.500
  295SOL    HW2  885   1.498   3.825   2.591
  296SOL     OW  886   1.795   3.776   2.858
  296SOL    HW1  887   1.783   3.833   2.940
  296SOL    HW2  888   1.870   3.814   2.803
  297SOL     OW  889   2.022   3.939   2.728
  297SOL    HW1  890   2.029   4.038   2.741
  297SOL    HW2  891   2.114   3.899   2.732
  298SOL     OW  892   0.578   0.727  -0.622
  298SOL    HW1  893   0.648   0.778  -0.671
  298SOL    HW2  894   0.578   0.632  -0.653
  299SOL     OW  895  -0.302   4.211   1.373
  299SOL    HW1  896  -0.236   4.275   1.413
  299SOL    HW2  897  -0.333   4.247   1.285
  300SOL     OW  898   3.599   4.070   1.680
  300SOL    HW1  899   3.582   4.168   1.687
  300SOL    HW2  900   3.684   4.055   1.629
  301SOL     OW  901   3.041   1.514   3.473
  301SOL    HW1  902   2.945   1.507   3.444
  301SOL    HW2  903   3.065   1.611   3.482
  302SOL     OW  904   2.081   3.173   3.486
  302SOL    HW1  905   2.045   3.181   3.393
  302SOL    HW2  906   2.050   3.086   3.525
  303SOL     OW  907   2.896   2.360   1.366
  303SOL    HW1  908   2.937   2.395   1.451
  303SOL    HW2  909   2.817   2.302   1.390
  304SOL     OW  910   3.503   3.769   1.698
  304SOL    HW1  911   3.408   3.754   1.729
  304SOL    HW2  912   3.531   3.862   1.724
  305SOL     OW  913   2.170   3.256   1.722
  305SOL    HW1  914   2.209   3.234   1.633
  305SOL    HW2  915   2.106   3.184   1.748
  306SOL     OW  916   2.721   5.265   0.136
  306SOL    HW1  917   2.659   5.187   0.147
  306SOL    HW2  918   2.681   5.344   0.183
  307SOL     OW  919   3.235   4.931   0.740
  307SOL    HW1  920   3.166   4.953   0.671
  307SOL    HW2  921   3.301   4.866   0.702
  308SOL     OW  922   2.671   3.512  -0.486
  308SOL    HW1  923   2.761   3.494  -0.445
  308SOL    HW2  924   2.635   3.426  -0.523
  309SOL     OW  925   1.595   1.182   0.698
  309SOL    HW1  926   1.561   1.276   0.689
  309SOL    HW2  927   1.686   1.185   0.740
  310SOL     OW  928   0.187   2.188  -0.440
  310SOL    HW1  929   0.269   2.197  -0.497
  310SOL    HW2  930   0.106   2.207  -0.496
  311SOL     OW  931   0.085   0.597   0.393
  311SOL    HW1  932   0.155   0.613   0.324
  311SOL    HW2  933   0.061   0.499   0.394
  312SOL     OW  934  -0.164   2.275   0.843
  312SOL    HW1  935  -0.249   2.230   0.815
  312SOL    HW2  936  -0.173   2.373   0.826
  313SOL     OW  937  -0.111   2.758   1.820
  313SOL    HW1  938  -0.016   2.776   1.849
  313SOL    HW2  939  -0.161   2.719   1.898
  314SOL     OW  940   0.250   4.159   1.623
  314SOL    HW1  941   0.156   4.128   1.607
  314SOL    HW2  942   0.312   4.115   1.558
  315SOL     OW  943   3.175   2.724   1.050
  315SOL    HW1  944   3.249   2.772   1.098
  315SOL    HW2  945   3.210   2.640   1.010
  316SOL     OW  946   3.024   1.821   3.469
  316SOL    HW1  947   2.938   1.861   3.503
  316SOL    HW2  948   3.051   1.868   3.385
  317SOL     OW  949   0.395   3.328  -0.277
  317SOL    HW1  950   0.469   3.261  -0.283
  317SOL    HW2  951   0.326   3.293  -0.213
  318SOL     OW  952   3.434   3.549  -0.549
  318SOL    HW1  953   3.497   3.531  -0.473
  318SOL    HW2  954   3.475   3.517  -0.634
    6.3442    6.3442    6.3442
