Generated by PDBParser (exclude clash < 1.000 A)
6
    1SOL     OW    1  -0.203   0.568   2.633
    1SOL    HW1    2  -0.288   0.540   2.677
    1SOL    HW2    3  -0.126   0.552   2.695
    2SOL     OW    4  -4.480  -0.061   4.760
    2SOL    HW1    5  -4.452  -0.100   4.848
    2SOL    HW2    6  -4.412   0.006   4.730
    5.8478    5.8478    5.8478
