; ITP file created by ByteFF-joint-25, 2026-02-17 09:06:30.651267

[ atomtypes ]
;name           bonded.type        at.num        mass        charge   ptype           sigma         epsilon
 c0bf                                   6      0.0000       0.00000       A     3.31521e-01     4.13400e-01    ;  uncertainty sigma = 0.000017, epsilon = 0.000777
 c1bf                                   6      0.0000       0.00000       A     3.31523e-01     4.13138e-01    ;  uncertainty sigma = 0.000008, epsilon = 0.000466
 c2bf                                   6      0.0000       0.00000       A     3.31520e-01     4.13315e-01    ;  uncertainty sigma = 0.000006, epsilon = 0.000869
 c3bf                                   6      0.0000       0.00000       A     3.31525e-01     4.13545e-01    ;  uncertainty sigma = 0.000005, epsilon = 0.000538
 c4bf                                   6      0.0000       0.00000       A     3.31512e-01     4.13070e-01    ;  uncertainty sigma = 0.000006, epsilon = 0.000909
 c5bf                                   6      0.0000       0.00000       A     3.31526e-01     4.13266e-01    ;  uncertainty sigma = 0.000006, epsilon = 0.000548
 c6bf                                   6      0.0000       0.00000       A     3.31513e-01     4.13483e-01    ;  uncertainty sigma = 0.000011, epsilon = 0.000497
 n7bf                                   7      0.0000       0.00000       A     3.38380e-01     3.93377e-01    ;  uncertainty sigma = 0.000009, epsilon = 0.000965
 n8bf                                   7      0.0000       0.00000       A     3.20606e-01     8.54002e-01    ;  uncertainty sigma = 0.000007, epsilon = 0.001155
 c9bf                                   6      0.0000       0.00000       A     3.39776e-01     4.50806e-01    ;  uncertainty sigma = 0.000009, epsilon = 0.000985
 n10bf                                  7      0.0000       0.00000       A     3.26997e-01     4.90178e-01    ;  uncertainty sigma = 0.000021, epsilon = 0.001667
 c11bf                                  6      0.0000       0.00000       A     3.39778e-01     4.51149e-01    ;  uncertainty sigma = 0.000008, epsilon = 0.000607
 c12bf                                  6      0.0000       0.00000       A     3.31547e-01     4.13028e-01    ;  uncertainty sigma = 0.000011, epsilon = 0.000504
 o13bf                                  8      0.0000       0.00000       A     3.04817e-01     6.12265e-01    ;  uncertainty sigma = 0.000016, epsilon = 0.001487
 c14bf                                  6      0.0000       0.00000       A     3.39760e-01     4.50989e-01    ;  uncertainty sigma = 0.000010, epsilon = 0.000691
 c15bf                                  6      0.0000       0.00000       A     3.39773e-01     4.50882e-01    ;  uncertainty sigma = 0.000003, epsilon = 0.000540
 c16bf                                  6      0.0000       0.00000       A     3.39773e-01     4.50882e-01    ;  uncertainty sigma = 0.000003, epsilon = 0.000540
 h17bf                                  1      0.0000       0.00000       A     2.62573e-01     6.70551e-02    ;  uncertainty sigma = 0.000013, epsilon = 0.000866
 h18bf                                  1      0.0000       0.00000       A     2.62571e-01     6.70414e-02    ;  uncertainty sigma = 0.000009, epsilon = 0.000485
 h19bf                                  1      0.0000       0.00000       A     2.62555e-01     6.71833e-02    ;  uncertainty sigma = 0.000010, epsilon = 0.000661
 h20bf                                  1      0.0000       0.00000       A     1.10648e-01     4.14022e-02    ;  uncertainty sigma = 0.000065, epsilon = 0.000771
 h21bf                                  1      0.0000       0.00000       A     2.60067e-01     8.66566e-02    ;  uncertainty sigma = 0.000027, epsilon = 0.000585
 h22bf                                  1      0.0000       0.00000       A     2.60067e-01     8.66566e-02    ;  uncertainty sigma = 0.000027, epsilon = 0.000585
 h23bf                                  1      0.0000       0.00000       A     1.10718e-01     4.14284e-02    ;  uncertainty sigma = 0.000071, epsilon = 0.000519
 h24bf                                  1      0.0000       0.00000       A     2.42204e-01     8.66943e-02    ;  uncertainty sigma = 0.000014, epsilon = 0.000595
 h25bf                                  1      0.0000       0.00000       A     2.42204e-01     8.66943e-02    ;  uncertainty sigma = 0.000014, epsilon = 0.000595
 h26bf                                  1      0.0000       0.00000       A     2.42204e-01     8.66943e-02    ;  uncertainty sigma = 0.000014, epsilon = 0.000595
 h27bf                                  1      0.0000       0.00000       A     2.60049e-01     8.68320e-02    ;  uncertainty sigma = 0.000028, epsilon = 0.001000
 h28bf                                  1      0.0000       0.00000       A     2.60016e-01     8.66669e-02    ;  uncertainty sigma = 0.000012, epsilon = 0.000526
 h29bf                                  1      0.0000       0.00000       A     2.60016e-01     8.66669e-02    ;  uncertainty sigma = 0.000012, epsilon = 0.000526
 h30bf                                  1      0.0000       0.00000       A     2.60016e-01     8.66669e-02    ;  uncertainty sigma = 0.000012, epsilon = 0.000526
 h31bf                                  1      0.0000       0.00000       A     2.60016e-01     8.66669e-02    ;  uncertainty sigma = 0.000012, epsilon = 0.000526
 h32bf                                  1      0.0000       0.00000       A     2.60016e-01     8.66668e-02    ;  uncertainty sigma = 0.000012, epsilon = 0.000526
 h33bf                                  1      0.0000       0.00000       A     2.60016e-01     8.66668e-02    ;  uncertainty sigma = 0.000012, epsilon = 0.000526

[ moleculetype ]
;name             nrexcl
 MOL                   3

[ atoms ]
;       nr            type      resi   res      atom      cgnr      charge          mass ; qtot
         1            c0bf         1   UNL        c0         1    -0.19537       12.0110 ; qtot   -0.195
         2            c1bf         1   UNL        c1         2    -0.00339       12.0110 ; qtot   -0.199
         3            c2bf         1   UNL        c2         3    -0.16128       12.0110 ; qtot   -0.360
         4            c3bf         1   UNL        c3         4    -0.05982       12.0110 ; qtot   -0.420
         5            c4bf         1   UNL        c4         5    -0.00062       12.0110 ; qtot   -0.420
         6            c5bf         1   UNL        c5         6    -0.23668       12.0110 ; qtot   -0.657
         7            c6bf         1   UNL        c6         7     0.37416       12.0110 ; qtot   -0.283
         8            n7bf         1   UNL        n7         8    -0.51153       14.0070 ; qtot   -0.795
         9            n8bf         1   UNL        n8         9    -0.03593       14.0070 ; qtot   -0.830
        10            c9bf         1   UNL        c9        10    -0.09347       12.0110 ; qtot   -0.924
        11           n10bf         1   UNL       n10        11    -0.57186       14.0070 ; qtot   -1.496
        12           c11bf         1   UNL       c11        12     0.08587       12.0110 ; qtot   -1.410
        13           c12bf         1   UNL       c12        13     0.67187       12.0110 ; qtot   -0.738
        14           o13bf         1   UNL       o13        14    -0.59715       15.9990 ; qtot   -1.335
        15           c14bf         1   UNL       c14        15    -0.05899       12.0110 ; qtot   -1.394
        16           c15bf         1   UNL       c15        16    -0.09128       12.0110 ; qtot   -1.485
        17           c16bf         1   UNL       c16        17    -0.09128       12.0110 ; qtot   -1.577
        18           h17bf         1   UNL       h17        18     0.15184        1.0080 ; qtot   -1.425
        19           h18bf         1   UNL       h18        19     0.14424        1.0080 ; qtot   -1.281
        20           h19bf         1   UNL       h19        20     0.14618        1.0080 ; qtot   -1.134
        21           h20bf         1   UNL       h20        21     0.32579        1.0080 ; qtot   -0.809
        22           h21bf         1   UNL       h21        22     0.05475        1.0080 ; qtot   -0.754
        23           h22bf         1   UNL       h22        23     0.05475        1.0080 ; qtot   -0.699
        24           h23bf         1   UNL       h23        24     0.31152        1.0080 ; qtot   -0.388
        25           h24bf         1   UNL       h24        25     0.04389        1.0080 ; qtot   -0.344
        26           h25bf         1   UNL       h25        26     0.04389        1.0080 ; qtot   -0.300
        27           h26bf         1   UNL       h26        27     0.04389        1.0080 ; qtot   -0.256
        28           h27bf         1   UNL       h27        28     0.04860        1.0080 ; qtot   -0.207
        29           h28bf         1   UNL       h28        29     0.03457        1.0080 ; qtot   -0.173
        30           h29bf         1   UNL       h29        30     0.03457        1.0080 ; qtot   -0.138
        31           h30bf         1   UNL       h30        31     0.03457        1.0080 ; qtot   -0.104
        32           h31bf         1   UNL       h31        32     0.03457        1.0080 ; qtot   -0.069
        33           h32bf         1   UNL       h32        33     0.03457        1.0080 ; qtot   -0.035
        34           h33bf         1   UNL       h33        34     0.03456        1.0080 ; qtot   -0.000

[ bonds ]
;       ai        aj funct               r               k
         1         2     1        0.139265   360227.818311    ;  uncertainty r = 0.000101, k = 4.796948
         1         4     1        0.142239   330579.668457    ;  uncertainty r = 0.000083, k = 6.044291
         1        13     1        0.149821   241928.410449    ;  uncertainty r = 0.000056, k = 14.263391
         2         6     1        0.140071   363282.746094    ;  uncertainty r = 0.000091, k = 8.710333
         2        18     1        0.108707   333381.855469    ;  uncertainty r = 0.000043, k = 1.850140
         3         4     1        0.138479   368113.601074    ;  uncertainty r = 0.000041, k = 6.277183
         3         5     1        0.140267   361067.631689    ;  uncertainty r = 0.000047, k = 6.761856
         3        19     1        0.108847   335419.103906    ;  uncertainty r = 0.000007, k = 1.624567
         4        20     1        0.108679   333211.216504    ;  uncertainty r = 0.000025, k = 2.170996
         5         6     1        0.141773   401419.992920    ;  uncertainty r = 0.000070, k = 7.264944
         5         9     1        0.137328   298945.446533    ;  uncertainty r = 0.000056, k = 10.171875
         6         7     1        0.144290   226409.202637    ;  uncertainty r = 0.000090, k = 10.392844
         7         8     1        0.132898   462778.439746    ;  uncertainty r = 0.000078, k = 5.559138
         7        10     1        0.149832   237036.113184    ;  uncertainty r = 0.000026, k = 3.842462
         8         9     1        0.136724   298611.216846    ;  uncertainty r = 0.000048, k = 10.946569
         9        21     1        0.101013   416439.899170    ;  uncertainty r = 0.000029, k = 2.679552
        10        15     1        0.153558   196846.129663    ;  uncertainty r = 0.000059, k = 5.732979
        10        22     1        0.109756   308055.554932    ;  uncertainty r = 0.000017, k = 1.732977
        10        23     1        0.109756   308055.529395    ;  uncertainty r = 0.000017, k = 1.732977
        11        12     1        0.145747   274952.183105    ;  uncertainty r = 0.000051, k = 10.288097
        11        13     1        0.137394   291706.518750    ;  uncertainty r = 0.000107, k = 27.972689
        11        24     1        0.101152   415695.722266    ;  uncertainty r = 0.000042, k = 3.688411
        12        25     1        0.109421   314460.440723    ;  uncertainty r = 0.000003, k = 2.156506
        12        26     1        0.109421   314460.440723    ;  uncertainty r = 0.000003, k = 2.156506
        12        27     1        0.109421   314460.440723    ;  uncertainty r = 0.000003, k = 2.156538
        13        14     1        0.123557   783157.258789    ;  uncertainty r = 0.000026, k = 5.445684
        15        16     1        0.153205   210718.679126    ;  uncertainty r = 0.000021, k = 3.552297
        15        17     1        0.153205   210718.679126    ;  uncertainty r = 0.000021, k = 3.552285
        15        28     1        0.109752   303873.470215    ;  uncertainty r = 0.000031, k = 1.441539
        16        29     1        0.109703   309599.171045    ;  uncertainty r = 0.000013, k = 1.159955
        16        30     1        0.109703   309599.171045    ;  uncertainty r = 0.000013, k = 1.159955
        16        31     1        0.109703   309599.171045    ;  uncertainty r = 0.000013, k = 1.159955
        17        32     1        0.109703   309599.171045    ;  uncertainty r = 0.000013, k = 1.159965
        17        33     1        0.109703   309599.171045    ;  uncertainty r = 0.000013, k = 1.159955
        17        34     1        0.109703   309599.171045    ;  uncertainty r = 0.000013, k = 1.159965

[ angles ]
;       ai        aj        ak funct           theta             cth
         1         2         6     1      119.850365      554.249378    ;  uncertainty theta = 0.004843, k = 0.149697
         1         2        18     1      119.240761      268.707402    ;  uncertainty theta = 0.003134, k = 0.107959
         1         4         3     1      124.422043      528.718110    ;  uncertainty theta = 0.003508, k = 0.084816
         1         4        20     1      118.099083      271.019596    ;  uncertainty theta = 0.004016, k = 0.016276
         1        13        11     1      115.524963      456.318936    ;  uncertainty theta = 0.002929, k = 0.084964
         1        13        14     1      124.173317      521.936220    ;  uncertainty theta = 0.003655, k = 0.130633
         2         1         4     1      123.860168      467.223793    ;  uncertainty theta = 0.002170, k = 0.118987
         2         1        13     1      118.826561      336.156590    ;  uncertainty theta = 0.002693, k = 0.289489
         2         6         5     1      118.292870      399.026942    ;  uncertainty theta = 0.003864, k = 0.206430
         2         6         7     1      130.977554      343.999260    ;  uncertainty theta = 0.004728, k = 0.217116
         3         4        20     1      118.731369      285.901666    ;  uncertainty theta = 0.002284, k = 0.044640
         3         5         6     1      120.184097      384.948334    ;  uncertainty theta = 0.005214, k = 0.123425
         3         5         9     1      130.169540      398.144061    ;  uncertainty theta = 0.003087, k = 0.106836
         4         1        13     1      118.631042      344.901646    ;  uncertainty theta = 0.002886, k = 0.287093
         4         3         5     1      116.929771      528.007061    ;  uncertainty theta = 0.003785, k = 0.096501
         4         3        19     1      121.351547      280.972493    ;  uncertainty theta = 0.001883, k = 0.020745
         5         3        19     1      122.768356      290.464700    ;  uncertainty theta = 0.001603, k = 0.099353
         5         6         7     1      104.140541      715.117525    ;  uncertainty theta = 0.004428, k = 0.086898
         5         9         8     1      108.809799      999.834205    ;  uncertainty theta = 0.004296, k = 0.099310
         5         9        21     1      115.975464      285.777651    ;  uncertainty theta = 0.007807, k = 0.074333
         6         2        18     1      121.194839      289.309912    ;  uncertainty theta = 0.003550, k = 0.094210
         6         5         9     1      105.335159      701.470047    ;  uncertainty theta = 0.002803, k = 0.077216
         6         7         8     1      112.564575      857.090574    ;  uncertainty theta = 0.002099, k = 0.113173
         6         7        10     1      128.063232      341.036029    ;  uncertainty theta = 0.003819, k = 0.238673
         7         8         9     1      109.357376      919.722059    ;  uncertainty theta = 0.003679, k = 0.098110
         7        10        15     1      110.637840      534.511554    ;  uncertainty theta = 0.001712, k = 0.075641
         7        10        22     1      106.897522      398.653111    ;  uncertainty theta = 0.001770, k = 0.070599
         7        10        23     1      106.897522      398.653111    ;  uncertainty theta = 0.001770, k = 0.070599
         8         7        10     1      122.102211      414.853215    ;  uncertainty theta = 0.007506, k = 0.114460
         8         9        21     1      108.265091      349.817316    ;  uncertainty theta = 0.007522, k = 0.043030
        10        15        16     1      109.170044      549.817732    ;  uncertainty theta = 0.001621, k = 0.056204
        10        15        17     1      109.170044      549.817732    ;  uncertainty theta = 0.001621, k = 0.056204
        10        15        28     1      105.346519      380.704258    ;  uncertainty theta = 0.001791, k = 0.059416
        11        12        25     1      109.114975      463.321116    ;  uncertainty theta = 0.002020, k = 0.049188
        11        12        26     1      109.114975      463.321116    ;  uncertainty theta = 0.002020, k = 0.049188
        11        12        27     1      109.114975      463.321116    ;  uncertainty theta = 0.002020, k = 0.049188
        11        13        14     1      123.145607      774.393944    ;  uncertainty theta = 0.002863, k = 0.065807
        12        11        13     1      117.202759      444.572983    ;  uncertainty theta = 0.004194, k = 0.144387
        12        11        24     1      113.289574      324.789129    ;  uncertainty theta = 0.001730, k = 0.149038
        13        11        24     1      115.483727      336.899688    ;  uncertainty theta = 0.002435, k = 0.202507
        15        10        22     1      107.262611      390.372065    ;  uncertainty theta = 0.001197, k = 0.028570
        15        10        23     1      107.262611      390.372065    ;  uncertainty theta = 0.001197, k = 0.028570
        15        16        29     1      107.903770      395.275286    ;  uncertainty theta = 0.001585, k = 0.019682
        15        16        30     1      107.903770      395.275286    ;  uncertainty theta = 0.001585, k = 0.019682
        15        16        31     1      107.903770      395.275286    ;  uncertainty theta = 0.001585, k = 0.019682
        15        17        32     1      107.903770      395.275286    ;  uncertainty theta = 0.001585, k = 0.019682
        15        17        33     1      107.903770      395.275286    ;  uncertainty theta = 0.001585, k = 0.019682
        15        17        34     1      107.903770      395.275286    ;  uncertainty theta = 0.001585, k = 0.019682
        16        15        17     1      110.050339      607.976072    ;  uncertainty theta = 0.000827, k = 0.055472
        16        15        28     1      106.811974      401.729024    ;  uncertainty theta = 0.001346, k = 0.018042
        17        15        28     1      106.811974      401.729024    ;  uncertainty theta = 0.001346, k = 0.018042
        22        10        23     1      104.807236      319.923097    ;  uncertainty theta = 0.002763, k = 0.021751
        25        12        26     1      107.012894      321.487787    ;  uncertainty theta = 0.002661, k = 0.021792
        25        12        27     1      107.012878      321.487787    ;  uncertainty theta = 0.002661, k = 0.021791
        26        12        27     1      107.012878      321.487787    ;  uncertainty theta = 0.002661, k = 0.021791
        29        16        30     1      105.086449      317.616681    ;  uncertainty theta = 0.001637, k = 0.014962
        29        16        31     1      105.086449      317.616681    ;  uncertainty theta = 0.001637, k = 0.014962
        30        16        31     1      105.086449      317.616681    ;  uncertainty theta = 0.001637, k = 0.014962
        32        17        33     1      105.086449      317.616681    ;  uncertainty theta = 0.001637, k = 0.014962
        32        17        34     1      105.086449      317.616681    ;  uncertainty theta = 0.001637, k = 0.014962
        33        17        34     1      105.086449      317.616649    ;  uncertainty theta = 0.001637, k = 0.014962

[ dihedrals ] ; propers for gromacs 4.5 or higher, use funct 9
;       ai        aj        ak        al funct           phase               k        pn
         1         2         6         5     9        0.000000        0.125656         1    ;  uncertainty k = 0.404462
         1         2         6         5     9      180.000000       12.992658         2    ;  uncertainty k = 0.130639
         1         2         6         5     9        0.000000       -1.383335         3    ;  uncertainty k = 0.396781
         1         2         6         5     9      180.000000        0.789628         4    ;  uncertainty k = 0.192890
         1         2         6         7     9        0.000000        0.350588         1    ;  uncertainty k = 0.211812
         1         2         6         7     9      180.000000        8.427775         2    ;  uncertainty k = 0.340159
         1         2         6         7     9        0.000000        0.616711         3    ;  uncertainty k = 0.241414
         1         2         6         7     9      180.000000        1.220769         4    ;  uncertainty k = 0.170318
         1         4         3         5     9        0.000000        0.011386         1    ;  uncertainty k = 0.249964
         1         4         3         5     9      180.000000       16.572119         2    ;  uncertainty k = 0.211857
         1         4         3         5     9        0.000000       -0.189059         3    ;  uncertainty k = 0.503680
         1         4         3         5     9      180.000000        0.711275         4    ;  uncertainty k = 0.233860
         1         4         3        19     9        0.000000       -0.051117         1    ;  uncertainty k = 0.111938
         1         4         3        19     9      180.000000        9.754084         2    ;  uncertainty k = 0.656956
         1         4         3        19     9        0.000000        1.467636         3    ;  uncertainty k = 0.282914
         1         4         3        19     9      180.000000        1.830497         4    ;  uncertainty k = 0.313692
         1        13        11        12     9        0.000000        4.789197         1    ;  uncertainty k = 1.027114
         1        13        11        12     9      180.000000       12.705005         2    ;  uncertainty k = 0.239269
         1        13        11        12     9        0.000000        2.293218         3    ;  uncertainty k = 0.393456
         1        13        11        12     9      180.000000       -1.124949         4    ;  uncertainty k = 0.303384
         1        13        11        24     9        0.000000       -0.356362         1    ;  uncertainty k = 0.600602
         1        13        11        24     9      180.000000        7.718152         2    ;  uncertainty k = 0.676150
         1        13        11        24     9        0.000000        2.790951         3    ;  uncertainty k = 0.266286
         1        13        11        24     9      180.000000        0.051428         4    ;  uncertainty k = 0.420873
         2         1         4         3     9        0.000000       -0.050539         1    ;  uncertainty k = 0.208116
         2         1         4         3     9      180.000000        9.119699         2    ;  uncertainty k = 0.270395
         2         1         4         3     9        0.000000       -0.415510         3    ;  uncertainty k = 0.427207
         2         1         4         3     9      180.000000        1.123199         4    ;  uncertainty k = 0.222175
         2         1         4        20     9        0.000000        0.171961         1    ;  uncertainty k = 0.453499
         2         1         4        20     9      180.000000        6.491875         2    ;  uncertainty k = 0.445196
         2         1         4        20     9        0.000000        1.206620         3    ;  uncertainty k = 0.235826
         2         1         4        20     9      180.000000        1.547383         4    ;  uncertainty k = 0.226297
         2         1        13        11     9        0.000000       -0.127978         1    ;  uncertainty k = 0.206954
         2         1        13        11     9      180.000000        3.237960         2    ;  uncertainty k = 0.411393
         2         1        13        11     9        0.000000        0.306911         3    ;  uncertainty k = 0.204339
         2         1        13        11     9      180.000000       -0.128253         4    ;  uncertainty k = 0.078117
         2         1        13        14     9        0.000000       -0.149766         1    ;  uncertainty k = 0.579370
         2         1        13        14     9      180.000000        3.942162         2    ;  uncertainty k = 0.309133
         2         1        13        14     9        0.000000        0.334435         3    ;  uncertainty k = 0.290775
         2         1        13        14     9      180.000000       -0.065567         4    ;  uncertainty k = 0.136174
         2         6         5         3     9        0.000000       -0.387837         1    ;  uncertainty k = 0.474383
         2         6         5         3     9      180.000000        7.281548         2    ;  uncertainty k = 0.630843
         2         6         5         3     9        0.000000        0.269785         3    ;  uncertainty k = 0.213811
         2         6         5         3     9      180.000000        1.032393         4    ;  uncertainty k = 0.349708
         2         6         5         9     9        0.000000        0.088522         1    ;  uncertainty k = 0.664526
         2         6         5         9     9      180.000000        8.152780         2    ;  uncertainty k = 0.293061
         2         6         5         9     9        0.000000       -0.105177         3    ;  uncertainty k = 0.506546
         2         6         5         9     9      180.000000        1.263209         4    ;  uncertainty k = 0.370033
         2         6         7         8     9        0.000000        0.900063         1    ;  uncertainty k = 0.467427
         2         6         7         8     9      180.000000        6.277080         2    ;  uncertainty k = 0.225384
         2         6         7         8     9        0.000000        0.194722         3    ;  uncertainty k = 0.688596
         2         6         7         8     9      180.000000        0.862559         4    ;  uncertainty k = 0.128530
         2         6         7        10     9        0.000000       -0.540319         1    ;  uncertainty k = 0.853825
         2         6         7        10     9      180.000000        3.707274         2    ;  uncertainty k = 1.086621
         2         6         7        10     9        0.000000        1.353657         3    ;  uncertainty k = 0.349375
         2         6         7        10     9      180.000000        0.086099         4    ;  uncertainty k = 0.183743
         3         4         1        13     9        0.000000        0.114262         1    ;  uncertainty k = 0.338054
         3         4         1        13     9      180.000000        7.926098         2    ;  uncertainty k = 0.808325
         3         4         1        13     9        0.000000        1.514005         3    ;  uncertainty k = 0.300788
         3         4         1        13     9      180.000000        1.801910         4    ;  uncertainty k = 0.241800
         3         5         6         7     9        0.000000        0.035369         1    ;  uncertainty k = 0.593121
         3         5         6         7     9      180.000000        6.753972         2    ;  uncertainty k = 0.355088
         3         5         6         7     9        0.000000        0.195326         3    ;  uncertainty k = 0.404967
         3         5         6         7     9      180.000000        1.339505         4    ;  uncertainty k = 0.322797
         3         5         9         8     9        0.000000        0.839029         1    ;  uncertainty k = 1.097089
         3         5         9         8     9      180.000000        7.058979         2    ;  uncertainty k = 0.587148
         3         5         9         8     9        0.000000        0.564274         3    ;  uncertainty k = 0.677532
         3         5         9         8     9      180.000000        0.350157         4    ;  uncertainty k = 0.194480
         3         5         9        21     9        0.000000        1.626987         1    ;  uncertainty k = 1.081038
         3         5         9        21     9      180.000000        1.748773         2    ;  uncertainty k = 0.485911
         3         5         9        21     9        0.000000        1.339675         3    ;  uncertainty k = 0.537432
         3         5         9        21     9      180.000000        0.079045         4    ;  uncertainty k = 0.139048
         4         1         2         6     9        0.000000        0.049279         1    ;  uncertainty k = 0.403325
         4         1         2         6     9      180.000000       12.652093         2    ;  uncertainty k = 0.560975
         4         1         2         6     9        0.000000       -0.027812         3    ;  uncertainty k = 0.340278
         4         1         2         6     9      180.000000        1.111085         4    ;  uncertainty k = 0.410190
         4         1         2        18     9        0.000000        0.300623         1    ;  uncertainty k = 0.254192
         4         1         2        18     9      180.000000        8.050036         2    ;  uncertainty k = 0.358835
         4         1         2        18     9        0.000000        1.343397         3    ;  uncertainty k = 0.263101
         4         1         2        18     9      180.000000        1.721743         4    ;  uncertainty k = 0.279185
         4         1        13        11     9        0.000000        0.489271         1    ;  uncertainty k = 0.723554
         4         1        13        11     9      180.000000        3.331824         2    ;  uncertainty k = 0.333521
         4         1        13        11     9        0.000000        0.273230         3    ;  uncertainty k = 0.158705
         4         1        13        11     9      180.000000       -0.098128         4    ;  uncertainty k = 0.064913
         4         1        13        14     9        0.000000       -1.086296         1    ;  uncertainty k = 0.504309
         4         1        13        14     9      180.000000        3.795462         2    ;  uncertainty k = 0.347490
         4         1        13        14     9        0.000000        0.331862         3    ;  uncertainty k = 0.214277
         4         1        13        14     9      180.000000       -0.045720         4    ;  uncertainty k = 0.133443
         4         3         5         6     9        0.000000        0.005447         1    ;  uncertainty k = 0.319518
         4         3         5         6     9      180.000000       12.236740         2    ;  uncertainty k = 0.139075
         4         3         5         6     9        0.000000       -1.436149         3    ;  uncertainty k = 0.476521
         4         3         5         6     9      180.000000        0.799010         4    ;  uncertainty k = 0.241801
         4         3         5         9     9        0.000000        0.106324         1    ;  uncertainty k = 0.325508
         4         3         5         9     9      180.000000       10.075182         2    ;  uncertainty k = 0.661470
         4         3         5         9     9        0.000000        0.784819         3    ;  uncertainty k = 0.232846
         4         3         5         9     9      180.000000        1.165480         4    ;  uncertainty k = 0.260789
         5         3         4        20     9        0.000000       -0.019115         1    ;  uncertainty k = 0.215674
         5         3         4        20     9      180.000000       11.532546         2    ;  uncertainty k = 0.347669
         5         3         4        20     9        0.000000        1.448060         3    ;  uncertainty k = 0.246724
         5         3         4        20     9      180.000000        1.572879         4    ;  uncertainty k = 0.269090
         5         6         2        18     9        0.000000        0.013128         1    ;  uncertainty k = 0.463170
         5         6         2        18     9      180.000000        7.655022         2    ;  uncertainty k = 1.052028
         5         6         2        18     9        0.000000        1.267741         3    ;  uncertainty k = 0.303393
         5         6         2        18     9      180.000000        1.192928         4    ;  uncertainty k = 0.340681
         5         6         7         8     9        0.000000        0.550980         1    ;  uncertainty k = 0.647008
         5         6         7         8     9      180.000000       13.106846         2    ;  uncertainty k = 1.222361
         5         6         7         8     9        0.000000      -11.026880         3    ;  uncertainty k = 2.115016
         5         6         7         8     9      180.000000        2.113685         4    ;  uncertainty k = 0.590126
         5         6         7        10     9        0.000000        1.325981         1    ;  uncertainty k = 1.143632
         5         6         7        10     9      180.000000        8.422094         2    ;  uncertainty k = 0.421888
         5         6         7        10     9        0.000000        1.942489         3    ;  uncertainty k = 0.850627
         5         6         7        10     9      180.000000        0.272951         4    ;  uncertainty k = 0.245893
         5         9         8         7     9        0.000000       -0.663397         1    ;  uncertainty k = 1.112814
         5         9         8         7     9      180.000000       16.674020         2    ;  uncertainty k = 0.583590
         5         9         8         7     9        0.000000       -4.712767         3    ;  uncertainty k = 1.109036
         5         9         8         7     9      180.000000        1.036660         4    ;  uncertainty k = 0.549521
         6         2         1        13     9        0.000000       -0.050694         1    ;  uncertainty k = 0.335760
         6         2         1        13     9      180.000000       11.706331         2    ;  uncertainty k = 0.466653
         6         2         1        13     9        0.000000        1.549329         3    ;  uncertainty k = 0.129160
         6         2         1        13     9      180.000000        1.715281         4    ;  uncertainty k = 0.286060
         6         5         3        19     9        0.000000       -0.061288         1    ;  uncertainty k = 0.408861
         6         5         3        19     9      180.000000        6.513318         2    ;  uncertainty k = 1.111063
         6         5         3        19     9        0.000000        1.278136         3    ;  uncertainty k = 0.192919
         6         5         3        19     9      180.000000        1.091866         4    ;  uncertainty k = 0.494717
         6         5         9         8     9        0.000000        0.188258         1    ;  uncertainty k = 0.608679
         6         5         9         8     9      180.000000       17.361152         2    ;  uncertainty k = 1.047760
         6         5         9         8     9        0.000000       -8.706144         3    ;  uncertainty k = 1.647887
         6         5         9         8     9      180.000000        0.784661         4    ;  uncertainty k = 0.558411
         6         5         9        21     9        0.000000        4.168303         1    ;  uncertainty k = 2.110369
         6         5         9        21     9      180.000000        6.043132         2    ;  uncertainty k = 1.328052
         6         5         9        21     9        0.000000        1.447536         3    ;  uncertainty k = 0.298825
         6         5         9        21     9      180.000000       -0.001473         4    ;  uncertainty k = 0.150426
         6         7         8         9     9        0.000000       -0.408756         1    ;  uncertainty k = 0.599070
         6         7         8         9     9      180.000000       24.965403         2    ;  uncertainty k = 0.219779
         6         7         8         9     9        0.000000       -4.304600         3    ;  uncertainty k = 0.877858
         6         7         8         9     9      180.000000        2.023219         4    ;  uncertainty k = 0.293585
         6         7        10        15     9        0.000000       -0.819766         1    ;  uncertainty k = 0.548217
         6         7        10        15     9      180.000000        1.469287         2    ;  uncertainty k = 0.487293
         6         7        10        15     9        0.000000        0.685620         3    ;  uncertainty k = 0.155758
         6         7        10        15     9      180.000000        0.211629         4    ;  uncertainty k = 0.101929
         6         7        10        22     9        0.000000       -1.121845         1    ;  uncertainty k = 0.439193
         6         7        10        22     9      180.000000        1.813530         2    ;  uncertainty k = 0.312735
         6         7        10        22     9        0.000000        0.796547         3    ;  uncertainty k = 0.078751
         6         7        10        22     9      180.000000        0.144911         4    ;  uncertainty k = 0.085386
         6         7        10        23     9        0.000000       -1.121845         1    ;  uncertainty k = 0.439193
         6         7        10        23     9      180.000000        1.813530         2    ;  uncertainty k = 0.312735
         6         7        10        23     9        0.000000        0.796547         3    ;  uncertainty k = 0.078751
         6         7        10        23     9      180.000000        0.144911         4    ;  uncertainty k = 0.085386
         7         6         2        18     9        0.000000        0.089292         1    ;  uncertainty k = 0.269922
         7         6         2        18     9      180.000000        5.561873         2    ;  uncertainty k = 0.719026
         7         6         2        18     9        0.000000        1.163790         3    ;  uncertainty k = 0.262421
         7         6         2        18     9      180.000000        0.701024         4    ;  uncertainty k = 0.286408
         7         6         5         9     9        0.000000       -0.387056         1    ;  uncertainty k = 0.318985
         7         6         5         9     9      180.000000       12.264737         2    ;  uncertainty k = 0.759129
         7         6         5         9     9        0.000000       -3.655960         3    ;  uncertainty k = 1.501987
         7         6         5         9     9      180.000000        1.604033         4    ;  uncertainty k = 0.555776
         7         8         9        21     9        0.000000        4.186914         1    ;  uncertainty k = 1.989921
         7         8         9        21     9      180.000000       12.682684         2    ;  uncertainty k = 0.197289
         7         8         9        21     9        0.000000        1.734083         3    ;  uncertainty k = 1.081801
         7         8         9        21     9      180.000000       -0.400111         4    ;  uncertainty k = 0.286190
         7        10        15        16     9        0.000000       -2.698511         1    ;  uncertainty k = 0.644692
         7        10        15        16     9      180.000000        0.218049         2    ;  uncertainty k = 0.186660
         7        10        15        16     9        0.000000        1.363715         3    ;  uncertainty k = 0.137508
         7        10        15        16     9      180.000000       -0.136962         4    ;  uncertainty k = 0.076137
         7        10        15        17     9        0.000000       -2.698511         1    ;  uncertainty k = 0.644692
         7        10        15        17     9      180.000000        0.218049         2    ;  uncertainty k = 0.186660
         7        10        15        17     9        0.000000        1.363715         3    ;  uncertainty k = 0.137508
         7        10        15        17     9      180.000000       -0.136962         4    ;  uncertainty k = 0.076137
         7        10        15        28     9        0.000000        0.741287         1    ;  uncertainty k = 0.419893
         7        10        15        28     9      180.000000       -0.707380         2    ;  uncertainty k = 0.098099
         7        10        15        28     9        0.000000        0.886679         3    ;  uncertainty k = 0.093985
         7        10        15        28     9      180.000000        0.038820         4    ;  uncertainty k = 0.032133
         8         7        10        15     9        0.000000       -0.116358         1    ;  uncertainty k = 0.590511
         8         7        10        15     9      180.000000        2.226172         2    ;  uncertainty k = 0.274257
         8         7        10        15     9        0.000000       -0.047730         3    ;  uncertainty k = 0.157404
         8         7        10        15     9      180.000000        0.211351         4    ;  uncertainty k = 0.030442
         8         7        10        22     9        0.000000        1.761484         1    ;  uncertainty k = 0.191842
         8         7        10        22     9      180.000000        2.237317         2    ;  uncertainty k = 0.284495
         8         7        10        22     9        0.000000        0.149392         3    ;  uncertainty k = 0.061223
         8         7        10        22     9      180.000000        0.160981         4    ;  uncertainty k = 0.061822
         8         7        10        23     9        0.000000        1.761484         1    ;  uncertainty k = 0.191842
         8         7        10        23     9      180.000000        2.237317         2    ;  uncertainty k = 0.284495
         8         7        10        23     9        0.000000        0.149392         3    ;  uncertainty k = 0.061223
         8         7        10        23     9      180.000000        0.160981         4    ;  uncertainty k = 0.061822
         9         5         3        19     9        0.000000        0.472334         1    ;  uncertainty k = 0.389490
         9         5         3        19     9      180.000000        5.640256         2    ;  uncertainty k = 0.842652
         9         5         3        19     9        0.000000        1.148088         3    ;  uncertainty k = 0.127456
         9         5         3        19     9      180.000000        0.744598         4    ;  uncertainty k = 0.321924
         9         8         7        10     9        0.000000       -0.582105         1    ;  uncertainty k = 0.864007
         9         8         7        10     9      180.000000       25.363086         2    ;  uncertainty k = 0.155443
         9         8         7        10     9        0.000000        2.424038         3    ;  uncertainty k = 0.408177
         9         8         7        10     9      180.000000        1.203542         4    ;  uncertainty k = 0.286573
        10        15        16        29     9        0.000000       -1.443982         1    ;  uncertainty k = 0.251196
        10        15        16        29     9      180.000000       -0.899130         2    ;  uncertainty k = 0.119302
        10        15        16        29     9        0.000000        1.033952         3    ;  uncertainty k = 0.073457
        10        15        16        29     9      180.000000       -0.323177         4    ;  uncertainty k = 0.022556
        10        15        16        30     9        0.000000       -1.443982         1    ;  uncertainty k = 0.251196
        10        15        16        30     9      180.000000       -0.899130         2    ;  uncertainty k = 0.119302
        10        15        16        30     9        0.000000        1.033952         3    ;  uncertainty k = 0.073457
        10        15        16        30     9      180.000000       -0.323177         4    ;  uncertainty k = 0.022556
        10        15        16        31     9        0.000000       -1.443982         1    ;  uncertainty k = 0.251196
        10        15        16        31     9      180.000000       -0.899130         2    ;  uncertainty k = 0.119302
        10        15        16        31     9        0.000000        1.033952         3    ;  uncertainty k = 0.073457
        10        15        16        31     9      180.000000       -0.323177         4    ;  uncertainty k = 0.022556
        10        15        17        32     9        0.000000       -1.443982         1    ;  uncertainty k = 0.251196
        10        15        17        32     9      180.000000       -0.899130         2    ;  uncertainty k = 0.119302
        10        15        17        32     9        0.000000        1.033952         3    ;  uncertainty k = 0.073457
        10        15        17        32     9      180.000000       -0.323177         4    ;  uncertainty k = 0.022556
        10        15        17        33     9        0.000000       -1.443982         1    ;  uncertainty k = 0.251196
        10        15        17        33     9      180.000000       -0.899130         2    ;  uncertainty k = 0.119302
        10        15        17        33     9        0.000000        1.033952         3    ;  uncertainty k = 0.073457
        10        15        17        33     9      180.000000       -0.323177         4    ;  uncertainty k = 0.022556
        10        15        17        34     9        0.000000       -1.443982         1    ;  uncertainty k = 0.251196
        10        15        17        34     9      180.000000       -0.899130         2    ;  uncertainty k = 0.119302
        10        15        17        34     9        0.000000        1.033952         3    ;  uncertainty k = 0.073457
        10        15        17        34     9      180.000000       -0.323177         4    ;  uncertainty k = 0.022556
        12        11        13        14     9        0.000000        2.908626         1    ;  uncertainty k = 0.608893
        12        11        13        14     9      180.000000       11.020841         2    ;  uncertainty k = 0.225485
        12        11        13        14     9        0.000000        0.587180         3    ;  uncertainty k = 0.297813
        12        11        13        14     9      180.000000        0.508956         4    ;  uncertainty k = 0.213308
        13         1         2        18     9        0.000000       -0.134673         1    ;  uncertainty k = 0.393163
        13         1         2        18     9      180.000000        8.432770         2    ;  uncertainty k = 0.414199
        13         1         2        18     9        0.000000        1.144819         3    ;  uncertainty k = 0.183620
        13         1         2        18     9      180.000000        1.214371         4    ;  uncertainty k = 0.239982
        13         1         4        20     9        0.000000       -0.103676         1    ;  uncertainty k = 0.427786
        13         1         4        20     9      180.000000        7.596315         2    ;  uncertainty k = 0.428562
        13         1         4        20     9        0.000000        0.928012         3    ;  uncertainty k = 0.201145
        13         1         4        20     9      180.000000        0.967211         4    ;  uncertainty k = 0.247422
        13        11        12        25     9        0.000000        0.271065         1    ;  uncertainty k = 0.210942
        13        11        12        25     9      180.000000       -0.535012         2    ;  uncertainty k = 0.296395
        13        11        12        25     9        0.000000        0.224758         3    ;  uncertainty k = 0.092791
        13        11        12        25     9      180.000000        0.342234         4    ;  uncertainty k = 0.050181
        13        11        12        26     9        0.000000        0.271065         1    ;  uncertainty k = 0.210942
        13        11        12        26     9      180.000000       -0.535012         2    ;  uncertainty k = 0.296395
        13        11        12        26     9        0.000000        0.224758         3    ;  uncertainty k = 0.092791
        13        11        12        26     9      180.000000        0.342234         4    ;  uncertainty k = 0.050181
        13        11        12        27     9        0.000000        0.271066         1    ;  uncertainty k = 0.210944
        13        11        12        27     9      180.000000       -0.535011         2    ;  uncertainty k = 0.296394
        13        11        12        27     9        0.000000        0.224758         3    ;  uncertainty k = 0.092791
        13        11        12        27     9      180.000000        0.342234         4    ;  uncertainty k = 0.050181
        14        13        11        24     9        0.000000        3.318940         1    ;  uncertainty k = 1.151661
        14        13        11        24     9      180.000000       14.296123         2    ;  uncertainty k = 0.216662
        14        13        11        24     9        0.000000        1.586854         3    ;  uncertainty k = 0.158255
        14        13        11        24     9      180.000000       -0.472643         4    ;  uncertainty k = 0.099040
        16        15        10        22     9        0.000000       -1.754884         1    ;  uncertainty k = 0.348774
        16        15        10        22     9      180.000000        0.047010         2    ;  uncertainty k = 0.090776
        16        15        10        22     9        0.000000        0.712432         3    ;  uncertainty k = 0.026541
        16        15        10        22     9      180.000000       -0.214661         4    ;  uncertainty k = 0.028056
        16        15        10        23     9        0.000000       -1.754884         1    ;  uncertainty k = 0.348774
        16        15        10        23     9      180.000000        0.047010         2    ;  uncertainty k = 0.090776
        16        15        10        23     9        0.000000        0.712432         3    ;  uncertainty k = 0.026541
        16        15        10        23     9      180.000000       -0.214661         4    ;  uncertainty k = 0.028056
        16        15        17        32     9        0.000000       -1.792923         1    ;  uncertainty k = 0.283254
        16        15        17        32     9      180.000000       -0.179033         2    ;  uncertainty k = 0.136665
        16        15        17        32     9        0.000000        1.125297         3    ;  uncertainty k = 0.013373
        16        15        17        32     9      180.000000       -0.163616         4    ;  uncertainty k = 0.027845
        16        15        17        33     9        0.000000       -1.792923         1    ;  uncertainty k = 0.283254
        16        15        17        33     9      180.000000       -0.179033         2    ;  uncertainty k = 0.136665
        16        15        17        33     9        0.000000        1.125297         3    ;  uncertainty k = 0.013373
        16        15        17        33     9      180.000000       -0.163616         4    ;  uncertainty k = 0.027845
        16        15        17        34     9        0.000000       -1.792923         1    ;  uncertainty k = 0.283254
        16        15        17        34     9      180.000000       -0.179033         2    ;  uncertainty k = 0.136665
        16        15        17        34     9        0.000000        1.125297         3    ;  uncertainty k = 0.013373
        16        15        17        34     9      180.000000       -0.163616         4    ;  uncertainty k = 0.027845
        17        15        10        22     9        0.000000       -1.754884         1    ;  uncertainty k = 0.348774
        17        15        10        22     9      180.000000        0.047010         2    ;  uncertainty k = 0.090776
        17        15        10        22     9        0.000000        0.712432         3    ;  uncertainty k = 0.026541
        17        15        10        22     9      180.000000       -0.214661         4    ;  uncertainty k = 0.028056
        17        15        10        23     9        0.000000       -1.754884         1    ;  uncertainty k = 0.348774
        17        15        10        23     9      180.000000        0.047010         2    ;  uncertainty k = 0.090776
        17        15        10        23     9        0.000000        0.712432         3    ;  uncertainty k = 0.026541
        17        15        10        23     9      180.000000       -0.214661         4    ;  uncertainty k = 0.028056
        17        15        16        29     9        0.000000       -1.792923         1    ;  uncertainty k = 0.283254
        17        15        16        29     9      180.000000       -0.179033         2    ;  uncertainty k = 0.136665
        17        15        16        29     9        0.000000        1.125297         3    ;  uncertainty k = 0.013373
        17        15        16        29     9      180.000000       -0.163616         4    ;  uncertainty k = 0.027845
        17        15        16        30     9        0.000000       -1.792923         1    ;  uncertainty k = 0.283254
        17        15        16        30     9      180.000000       -0.179033         2    ;  uncertainty k = 0.136665
        17        15        16        30     9        0.000000        1.125297         3    ;  uncertainty k = 0.013373
        17        15        16        30     9      180.000000       -0.163616         4    ;  uncertainty k = 0.027845
        17        15        16        31     9        0.000000       -1.792923         1    ;  uncertainty k = 0.283254
        17        15        16        31     9      180.000000       -0.179033         2    ;  uncertainty k = 0.136665
        17        15        16        31     9        0.000000        1.125297         3    ;  uncertainty k = 0.013373
        17        15        16        31     9      180.000000       -0.163616         4    ;  uncertainty k = 0.027845
        19         3         4        20     9        0.000000       -0.105139         1    ;  uncertainty k = 0.445868
        19         3         4        20     9      180.000000        8.058792         2    ;  uncertainty k = 0.272877
        19         3         4        20     9        0.000000       -0.175321         3    ;  uncertainty k = 0.177486
        19         3         4        20     9      180.000000        0.287040         4    ;  uncertainty k = 0.200176
        22        10        15        28     9        0.000000        1.435491         1    ;  uncertainty k = 0.264686
        22        10        15        28     9      180.000000       -0.948825         2    ;  uncertainty k = 0.118388
        22        10        15        28     9        0.000000       -0.158185         3    ;  uncertainty k = 0.093419
        22        10        15        28     9      180.000000       -0.083315         4    ;  uncertainty k = 0.047563
        23        10        15        28     9        0.000000        1.435491         1    ;  uncertainty k = 0.264686
        23        10        15        28     9      180.000000       -0.948825         2    ;  uncertainty k = 0.118388
        23        10        15        28     9        0.000000       -0.158185         3    ;  uncertainty k = 0.093419
        23        10        15        28     9      180.000000       -0.083315         4    ;  uncertainty k = 0.047563
        24        11        12        25     9        0.000000       -0.221553         1    ;  uncertainty k = 0.185359
        24        11        12        25     9      180.000000       -1.047189         2    ;  uncertainty k = 0.167691
        24        11        12        25     9        0.000000        0.476718         3    ;  uncertainty k = 0.065685
        24        11        12        25     9      180.000000        0.159229         4    ;  uncertainty k = 0.070112
        24        11        12        26     9        0.000000       -0.221553         1    ;  uncertainty k = 0.185359
        24        11        12        26     9      180.000000       -1.047189         2    ;  uncertainty k = 0.167691
        24        11        12        26     9        0.000000        0.476718         3    ;  uncertainty k = 0.065685
        24        11        12        26     9      180.000000        0.159229         4    ;  uncertainty k = 0.070112
        24        11        12        27     9        0.000000       -0.221554         1    ;  uncertainty k = 0.185359
        24        11        12        27     9      180.000000       -1.047190         2    ;  uncertainty k = 0.167691
        24        11        12        27     9        0.000000        0.476718         3    ;  uncertainty k = 0.065685
        24        11        12        27     9      180.000000        0.159229         4    ;  uncertainty k = 0.070112
        28        15        16        29     9        0.000000        1.491019         1    ;  uncertainty k = 0.337219
        28        15        16        29     9      180.000000       -1.199321         2    ;  uncertainty k = 0.180963
        28        15        16        29     9        0.000000        0.274567         3    ;  uncertainty k = 0.035062
        28        15        16        29     9      180.000000       -0.026631         4    ;  uncertainty k = 0.039105
        28        15        16        30     9        0.000000        1.491019         1    ;  uncertainty k = 0.337219
        28        15        16        30     9      180.000000       -1.199321         2    ;  uncertainty k = 0.180963
        28        15        16        30     9        0.000000        0.274567         3    ;  uncertainty k = 0.035062
        28        15        16        30     9      180.000000       -0.026631         4    ;  uncertainty k = 0.039105
        28        15        16        31     9        0.000000        1.491019         1    ;  uncertainty k = 0.337219
        28        15        16        31     9      180.000000       -1.199321         2    ;  uncertainty k = 0.180963
        28        15        16        31     9        0.000000        0.274567         3    ;  uncertainty k = 0.035062
        28        15        16        31     9      180.000000       -0.026631         4    ;  uncertainty k = 0.039105
        28        15        17        32     9        0.000000        1.491019         1    ;  uncertainty k = 0.337219
        28        15        17        32     9      180.000000       -1.199321         2    ;  uncertainty k = 0.180963
        28        15        17        32     9        0.000000        0.274567         3    ;  uncertainty k = 0.035062
        28        15        17        32     9      180.000000       -0.026631         4    ;  uncertainty k = 0.039105
        28        15        17        33     9        0.000000        1.491019         1    ;  uncertainty k = 0.337219
        28        15        17        33     9      180.000000       -1.199321         2    ;  uncertainty k = 0.180963
        28        15        17        33     9        0.000000        0.274567         3    ;  uncertainty k = 0.035062
        28        15        17        33     9      180.000000       -0.026631         4    ;  uncertainty k = 0.039105
        28        15        17        34     9        0.000000        1.491019         1    ;  uncertainty k = 0.337219
        28        15        17        34     9      180.000000       -1.199321         2    ;  uncertainty k = 0.180963
        28        15        17        34     9        0.000000        0.274567         3    ;  uncertainty k = 0.035062
        28        15        17        34     9      180.000000       -0.026631         4    ;  uncertainty k = 0.039105

[ dihedrals ] ; impropers
;       ai        aj        ak        al funct           phase               k        pn
         1         2         4        13     4      180.000000        6.383626         2    ;  uncertainty k = 0.196365
         1         4        13         2     4      180.000000        6.383626         2    ;  uncertainty k = 0.196365
         1        13         2         4     4      180.000000        6.383626         2    ;  uncertainty k = 0.196365
         2         1         6        18     4      180.000000        5.292189         2    ;  uncertainty k = 0.241094
         2         6        18         1     4      180.000000        5.292189         2    ;  uncertainty k = 0.241094
         2        18         1         6     4      180.000000        5.292189         2    ;  uncertainty k = 0.241094
         3         4         5        19     4      180.000000        2.242713         2    ;  uncertainty k = 0.296544
         3         5        19         4     4      180.000000        2.242713         2    ;  uncertainty k = 0.296544
         3        19         4         5     4      180.000000        2.242713         2    ;  uncertainty k = 0.296544
         4         1         3        20     4      180.000000        4.235073         2    ;  uncertainty k = 0.145744
         4         3        20         1     4      180.000000        4.235073         2    ;  uncertainty k = 0.145744
         4        20         1         3     4      180.000000        4.235073         2    ;  uncertainty k = 0.145744
         5         3         6         9     4      180.000000        1.604618         2    ;  uncertainty k = 0.888163
         5         6         9         3     4      180.000000        1.604618         2    ;  uncertainty k = 0.888163
         5         9         3         6     4      180.000000        1.604618         2    ;  uncertainty k = 0.888163
         7         6         8        10     4      180.000000        8.025054         2    ;  uncertainty k = 0.204669
         7         8        10         6     4      180.000000        8.025054         2    ;  uncertainty k = 0.204669
         7        10         6         8     4      180.000000        8.025054         2    ;  uncertainty k = 0.204669
        13         1        11        14     4      180.000000       51.366033         2    ;  uncertainty k = 0.016901
        13        11        14         1     4      180.000000       51.366033         2    ;  uncertainty k = 0.016901
        13        14         1        11     4      180.000000       51.366033         2    ;  uncertainty k = 0.016901

[ pairs ]
;       ai        aj funct
         1         5     1
         1         7     1
         1        12     1
         1        19     1
         1        24     1
         2         3     1
         2         8     1
         2         9     1
         2        10     1
         2        11     1
         2        14     1
         2        20     1
         3         7     1
         3         8     1
         3        13     1
         3        21     1
         4         6     1
         4         9     1
         4        11     1
         4        14     1
         4        18     1
         5        10     1
         5        18     1
         5        20     1
         6        13     1
         6        15     1
         6        19     1
         6        21     1
         6        22     1
         6        23     1
         7        16     1
         7        17     1
         7        18     1
         7        21     1
         7        28     1
         8        15     1
         8        22     1
         8        23     1
         9        10     1
         9        19     1
        10        29     1
        10        30     1
        10        31     1
        10        32     1
        10        33     1
        10        34     1
        12        14     1
        13        18     1
        13        20     1
        13        25     1
        13        26     1
        13        27     1
        14        24     1
        16        22     1
        16        23     1
        16        32     1
        16        33     1
        16        34     1
        17        22     1
        17        23     1
        17        29     1
        17        30     1
        17        31     1
        19        20     1
        22        28     1
        23        28     1
        24        25     1
        24        26     1
        24        27     1
        28        29     1
        28        30     1
        28        31     1
        28        32     1
        28        33     1
        28        34     1
