; ITP file created by ByteFF-joint-25, 2026-02-17 09:08:17.554616

[ atomtypes ]
;name           bonded.type        at.num        mass        charge   ptype           sigma         epsilon
 c0bf                                   6      0.0000       0.00000       A     3.31521e-01     4.13400e-01    ;  uncertainty sigma = 0.000017, epsilon = 0.000777
 c1bf                                   6      0.0000       0.00000       A     3.31525e-01     4.13189e-01    ;  uncertainty sigma = 0.000007, epsilon = 0.000427
 c2bf                                   6      0.0000       0.00000       A     3.31520e-01     4.13315e-01    ;  uncertainty sigma = 0.000006, epsilon = 0.000869
 c3bf                                   6      0.0000       0.00000       A     3.31525e-01     4.13545e-01    ;  uncertainty sigma = 0.000005, epsilon = 0.000538
 c4bf                                   6      0.0000       0.00000       A     3.31513e-01     4.13127e-01    ;  uncertainty sigma = 0.000006, epsilon = 0.000908
 c5bf                                   6      0.0000       0.00000       A     3.31532e-01     4.13349e-01    ;  uncertainty sigma = 0.000008, epsilon = 0.000623
 c6bf                                   6      0.0000       0.00000       A     3.31510e-01     4.13714e-01    ;  uncertainty sigma = 0.000012, epsilon = 0.000569
 n7bf                                   7      0.0000       0.00000       A     3.38378e-01     3.93289e-01    ;  uncertainty sigma = 0.000011, epsilon = 0.000859
 n8bf                                   7      0.0000       0.00000       A     3.20594e-01     8.54239e-01    ;  uncertainty sigma = 0.000008, epsilon = 0.000871
 c9bf                                   6      0.0000       0.00000       A     3.39771e-01     4.50677e-01    ;  uncertainty sigma = 0.000014, epsilon = 0.000917
 n10bf                                  7      0.0000       0.00000       A     3.26997e-01     4.90178e-01    ;  uncertainty sigma = 0.000021, epsilon = 0.001667
 c11bf                                  6      0.0000       0.00000       A     3.39778e-01     4.51149e-01    ;  uncertainty sigma = 0.000008, epsilon = 0.000607
 c12bf                                  6      0.0000       0.00000       A     3.31547e-01     4.13028e-01    ;  uncertainty sigma = 0.000011, epsilon = 0.000504
 o13bf                                  8      0.0000       0.00000       A     3.04817e-01     6.12265e-01    ;  uncertainty sigma = 0.000016, epsilon = 0.001487
 c14bf                                  6      0.0000       0.00000       A     3.31528e-01     4.13439e-01    ;  uncertainty sigma = 0.000006, epsilon = 0.000974
 c15bf                                  6      0.0000       0.00000       A     3.31510e-01     4.13361e-01    ;  uncertainty sigma = 0.000007, epsilon = 0.000628
 c16bf                                  6      0.0000       0.00000       A     3.31518e-01     4.13266e-01    ;  uncertainty sigma = 0.000007, epsilon = 0.000467
 c17bf                                  6      0.0000       0.00000       A     3.31503e-01     4.13840e-01    ;  uncertainty sigma = 0.000009, epsilon = 0.001035
 c18bf                                  6      0.0000       0.00000       A     3.31521e-01     4.13194e-01    ;  uncertainty sigma = 0.000005, epsilon = 0.000614
 c19bf                                  6      0.0000       0.00000       A     3.31524e-01     4.13351e-01    ;  uncertainty sigma = 0.000007, epsilon = 0.000388
 n20bf                                  7      0.0000       0.00000       A     3.20619e-01     8.54229e-01    ;  uncertainty sigma = 0.000009, epsilon = 0.001323
 n21bf                                  7      0.0000       0.00000       A     3.38405e-01     3.93634e-01    ;  uncertainty sigma = 0.000008, epsilon = 0.000679
 c22bf                                  6      0.0000       0.00000       A     3.31514e-01     4.13222e-01    ;  uncertainty sigma = 0.000006, epsilon = 0.000337
 h23bf                                  1      0.0000       0.00000       A     2.62573e-01     6.70552e-02    ;  uncertainty sigma = 0.000013, epsilon = 0.000866
 h24bf                                  1      0.0000       0.00000       A     2.62571e-01     6.70414e-02    ;  uncertainty sigma = 0.000009, epsilon = 0.000485
 h25bf                                  1      0.0000       0.00000       A     2.62555e-01     6.71833e-02    ;  uncertainty sigma = 0.000010, epsilon = 0.000661
 h26bf                                  1      0.0000       0.00000       A     1.10648e-01     4.14022e-02    ;  uncertainty sigma = 0.000065, epsilon = 0.000771
 h27bf                                  1      0.0000       0.00000       A     2.60077e-01     8.67671e-02    ;  uncertainty sigma = 0.000031, epsilon = 0.000769
 h28bf                                  1      0.0000       0.00000       A     2.60077e-01     8.67671e-02    ;  uncertainty sigma = 0.000031, epsilon = 0.000769
 h29bf                                  1      0.0000       0.00000       A     1.10718e-01     4.14284e-02    ;  uncertainty sigma = 0.000071, epsilon = 0.000519
 h30bf                                  1      0.0000       0.00000       A     2.42204e-01     8.66943e-02    ;  uncertainty sigma = 0.000014, epsilon = 0.000595
 h31bf                                  1      0.0000       0.00000       A     2.42204e-01     8.66943e-02    ;  uncertainty sigma = 0.000014, epsilon = 0.000595
 h32bf                                  1      0.0000       0.00000       A     2.42204e-01     8.66943e-02    ;  uncertainty sigma = 0.000014, epsilon = 0.000595
 h33bf                                  1      0.0000       0.00000       A     2.62563e-01     6.72103e-02    ;  uncertainty sigma = 0.000015, epsilon = 0.000567
 h34bf                                  1      0.0000       0.00000       A     2.62562e-01     6.69030e-02    ;  uncertainty sigma = 0.000014, epsilon = 0.000547
 h35bf                                  1      0.0000       0.00000       A     2.62558e-01     6.70687e-02    ;  uncertainty sigma = 0.000006, epsilon = 0.000688
 h36bf                                  1      0.0000       0.00000       A     2.53650e-01     6.72969e-02    ;  uncertainty sigma = 0.000027, epsilon = 0.000384
 c37bf                                  6      0.0000       0.00000       A     3.39777e-01     4.51192e-01    ;  uncertainty sigma = 0.000009, epsilon = 0.000493
 h38bf                                  1      0.0000       0.00000       A     2.42200e-01     8.67756e-02    ;  uncertainty sigma = 0.000018, epsilon = 0.000504
 h39bf                                  1      0.0000       0.00000       A     2.42200e-01     8.67756e-02    ;  uncertainty sigma = 0.000018, epsilon = 0.000504
 h40bf                                  1      0.0000       0.00000       A     2.42200e-01     8.67756e-02    ;  uncertainty sigma = 0.000018, epsilon = 0.000504

[ moleculetype ]
;name             nrexcl
 MOL                   3

[ atoms ]
;       nr            type      resi   res      atom      cgnr      charge          mass ; qtot
         1            c0bf         1   UNL        c0         1    -0.19453       12.0110 ; qtot   -0.195
         2            c1bf         1   UNL        c1         2    -0.00272       12.0110 ; qtot   -0.197
         3            c2bf         1   UNL        c2         3    -0.16064       12.0110 ; qtot   -0.358
         4            c3bf         1   UNL        c3         4    -0.05982       12.0110 ; qtot   -0.418
         5            c4bf         1   UNL        c4         5    -0.00020       12.0110 ; qtot   -0.418
         6            c5bf         1   UNL        c5         6    -0.23560       12.0110 ; qtot   -0.654
         7            c6bf         1   UNL        c6         7     0.37180       12.0110 ; qtot   -0.282
         8            n7bf         1   UNL        n7         8    -0.50882       14.0070 ; qtot   -0.791
         9            n8bf         1   UNL        n8         9    -0.03606       14.0070 ; qtot   -0.827
        10            c9bf         1   UNL        c9        10    -0.04510       12.0110 ; qtot   -0.872
        11           n10bf         1   UNL       n10        11    -0.57186       14.0070 ; qtot   -1.444
        12           c11bf         1   UNL       c11        12     0.08587       12.0110 ; qtot   -1.358
        13           c12bf         1   UNL       c12        13     0.67187       12.0110 ; qtot   -0.686
        14           o13bf         1   UNL       o13        14    -0.59715       15.9990 ; qtot   -1.283
        15           c14bf         1   UNL       c14        15    -0.04847       12.0110 ; qtot   -1.331
        16           c15bf         1   UNL       c15        16    -0.14402       12.0110 ; qtot   -1.475
        17           c16bf         1   UNL       c16        17    -0.02715       12.0110 ; qtot   -1.503
        18           c17bf         1   UNL       c17        18    -0.23376       12.0110 ; qtot   -1.736
        19           c18bf         1   UNL       c18        19    -0.05217       12.0110 ; qtot   -1.789
        20           c19bf         1   UNL       c19        20    -0.16130       12.0110 ; qtot   -1.950
        21           n20bf         1   UNL       n20        21     0.08113       14.0070 ; qtot   -1.869
        22           n21bf         1   UNL       n21        22    -0.51273       14.0070 ; qtot   -2.381
        23           c22bf         1   UNL       c22        23     0.35610       12.0110 ; qtot   -2.025
        24           h23bf         1   UNL       h23        24     0.15229        1.0080 ; qtot   -1.873
        25           h24bf         1   UNL       h24        25     0.14424        1.0080 ; qtot   -1.729
        26           h25bf         1   UNL       h25        26     0.14618        1.0080 ; qtot   -1.583
        27           h26bf         1   UNL       h26        27     0.32635        1.0080 ; qtot   -1.256
        28           h27bf         1   UNL       h27        28     0.06341        1.0080 ; qtot   -1.193
        29           h28bf         1   UNL       h28        29     0.06341        1.0080 ; qtot   -1.129
        30           h29bf         1   UNL       h29        30     0.31152        1.0080 ; qtot   -0.818
        31           h30bf         1   UNL       h30        31     0.04389        1.0080 ; qtot   -0.774
        32           h31bf         1   UNL       h31        32     0.04389        1.0080 ; qtot   -0.730
        33           h32bf         1   UNL       h32        33     0.04389        1.0080 ; qtot   -0.686
        34           h33bf         1   UNL       h33        34     0.14192        1.0080 ; qtot   -0.544
        35           h34bf         1   UNL       h34        35     0.13953        1.0080 ; qtot   -0.405
        36           h35bf         1   UNL       h35        36     0.13552        1.0080 ; qtot   -0.269
        37           h36bf         1   UNL       h36        37     0.04904        1.0080 ; qtot   -0.220
        38           c37bf         1   UNL       c37        38     0.05159       12.0110 ; qtot   -0.169
        39           h38bf         1   UNL       h38        39     0.05623        1.0080 ; qtot   -0.112
        40           h39bf         1   UNL       h39        40     0.05623        1.0080 ; qtot   -0.056
        41           h40bf         1   UNL       h40        41     0.05620        1.0080 ; qtot   -0.000

[ bonds ]
;       ai        aj funct               r               k
         1         2     1        0.139237   359863.965576    ;  uncertainty r = 0.000118, k = 5.351341
         1         4     1        0.142239   330579.668457    ;  uncertainty r = 0.000083, k = 6.044291
         1        13     1        0.149821   241928.410449    ;  uncertainty r = 0.000056, k = 14.263391
         2         6     1        0.140049   363534.184473    ;  uncertainty r = 0.000073, k = 8.434576
         2        24     1        0.108710   333227.636865    ;  uncertainty r = 0.000045, k = 1.998599
         3         4     1        0.138479   368113.601074    ;  uncertainty r = 0.000041, k = 6.277183
         3         5     1        0.140256   361253.950439    ;  uncertainty r = 0.000049, k = 6.439366
         3        25     1        0.108847   335419.103906    ;  uncertainty r = 0.000007, k = 1.624567
         4        26     1        0.108679   333211.216504    ;  uncertainty r = 0.000025, k = 2.170996
         5         6     1        0.141755   401797.354785    ;  uncertainty r = 0.000066, k = 8.070514
         5         9     1        0.137355   299898.542529    ;  uncertainty r = 0.000054, k = 10.387935
         6         7     1        0.144237   227699.975830    ;  uncertainty r = 0.000104, k = 6.989674
         7         8     1        0.132794   464042.935254    ;  uncertainty r = 0.000108, k = 8.320606
         7        10     1        0.150187   236868.410986    ;  uncertainty r = 0.000067, k = 3.963542
         8         9     1        0.136819   297875.211816    ;  uncertainty r = 0.000034, k = 11.449749
         9        27     1        0.101020   416476.391699    ;  uncertainty r = 0.000031, k = 2.687214
        10        15     1        0.151812   233421.692871    ;  uncertainty r = 0.000057, k = 6.077540
        10        28     1        0.109649   309067.360742    ;  uncertainty r = 0.000022, k = 1.378770
        10        29     1        0.109649   309067.360742    ;  uncertainty r = 0.000022, k = 1.378770
        11        12     1        0.145747   274952.132031    ;  uncertainty r = 0.000051, k = 10.288066
        11        13     1        0.137394   291706.467676    ;  uncertainty r = 0.000107, k = 27.972621
        11        30     1        0.101152   415695.671191    ;  uncertainty r = 0.000042, k = 3.688403
        12        31     1        0.109421   314460.440723    ;  uncertainty r = 0.000003, k = 2.156506
        12        32     1        0.109421   314460.440723    ;  uncertainty r = 0.000003, k = 2.156538
        12        33     1        0.109421   314460.440723    ;  uncertainty r = 0.000003, k = 2.156538
        13        14     1        0.123557   783157.258789    ;  uncertainty r = 0.000026, k = 5.445684
        15        16     1        0.138977   354165.053174    ;  uncertainty r = 0.000085, k = 5.870540
        15        20     1        0.141888   329797.620020    ;  uncertainty r = 0.000091, k = 4.846256
        16        17     1        0.140284   355877.469580    ;  uncertainty r = 0.000053, k = 3.708507
        16        34     1        0.108861   335079.128369    ;  uncertainty r = 0.000063, k = 1.173302
        17        18     1        0.141869   406378.712207    ;  uncertainty r = 0.000082, k = 10.359537
        17        21     1        0.137023   267933.027686    ;  uncertainty r = 0.000046, k = 7.122395
        18        19     1        0.140698   363207.769141    ;  uncertainty r = 0.000079, k = 1.571520
        18        23     1        0.143247   238746.844141    ;  uncertainty r = 0.000063, k = 15.971275
        19        20     1        0.138655   364719.412793    ;  uncertainty r = 0.000052, k = 3.010724
        19        35     1        0.108811   334483.500830    ;  uncertainty r = 0.000033, k = 0.743248
        20        36     1        0.108852   335491.501611    ;  uncertainty r = 0.000025, k = 1.576314
        21        22     1        0.136688   279522.508496    ;  uncertainty r = 0.000045, k = 6.012565
        21        38     1        0.144804   255073.892871    ;  uncertainty r = 0.000018, k = 6.517211
        22        23     1        0.132564   473612.558398    ;  uncertainty r = 0.000021, k = 5.981233
        23        37     1        0.108418   339690.542969    ;  uncertainty r = 0.000019, k = 3.040215
        38        39     1        0.109372   311001.796777    ;  uncertainty r = 0.000009, k = 1.495173
        38        40     1        0.109372   311001.796777    ;  uncertainty r = 0.000009, k = 1.495173
        38        41     1        0.109372   311001.796777    ;  uncertainty r = 0.000009, k = 1.495173

[ angles ]
;       ai        aj        ak funct           theta             cth
         1         2         6     1      119.776108      552.645009    ;  uncertainty theta = 0.004852, k = 0.150328
         1         2        24     1      119.290024      269.283711    ;  uncertainty theta = 0.003574, k = 0.102631
         1         4         3     1      124.422043      528.718110    ;  uncertainty theta = 0.003508, k = 0.084816
         1         4        26     1      118.099083      271.019596    ;  uncertainty theta = 0.004016, k = 0.016276
         1        13        11     1      115.524948      456.318936    ;  uncertainty theta = 0.002929, k = 0.084964
         1        13        14     1      124.173317      521.936284    ;  uncertainty theta = 0.003655, k = 0.130633
         2         1         4     1      123.832458      467.644740    ;  uncertainty theta = 0.002092, k = 0.124991
         2         1        13     1      118.832520      336.319740    ;  uncertainty theta = 0.002498, k = 0.285073
         2         6         5     1      118.330849      399.327163    ;  uncertainty theta = 0.004069, k = 0.206543
         2         6         7     1      130.920685      342.180507    ;  uncertainty theta = 0.005409, k = 0.247357
         3         4        26     1      118.731369      285.901729    ;  uncertainty theta = 0.002284, k = 0.044639
         3         5         6     1      120.150856      384.411480    ;  uncertainty theta = 0.004787, k = 0.117462
         3         5         9     1      130.191513      397.568263    ;  uncertainty theta = 0.003272, k = 0.102030
         4         1        13     1      118.631042      344.901646    ;  uncertainty theta = 0.002886, k = 0.287094
         4         3         5     1      116.920395      527.290554    ;  uncertainty theta = 0.003908, k = 0.099179
         4         3        25     1      121.351547      280.972493    ;  uncertainty theta = 0.001883, k = 0.020745
         5         3        25     1      122.764755      290.284408    ;  uncertainty theta = 0.001693, k = 0.104531
         5         6         7     1      103.985596      709.447712    ;  uncertainty theta = 0.004830, k = 0.146954
         5         9         8     1      108.842224      996.723721    ;  uncertainty theta = 0.004081, k = 0.105419
         5         9        27     1      115.986206      285.859753    ;  uncertainty theta = 0.007695, k = 0.071788
         6         2        24     1      121.162277      289.846702    ;  uncertainty theta = 0.003858, k = 0.088926
         6         5         9     1      105.282448      701.291224    ;  uncertainty theta = 0.002660, k = 0.063345
         6         7         8     1      112.644714      860.153814    ;  uncertainty theta = 0.001655, k = 0.087754
         6         7        10     1      127.244225      338.993508    ;  uncertainty theta = 0.004474, k = 0.134663
         7         8         9     1      109.341934      911.155252    ;  uncertainty theta = 0.003499, k = 0.133312
         7        10        15     1      111.466003      532.368959    ;  uncertainty theta = 0.002700, k = 0.064743
         7        10        28     1      107.170387      404.439565    ;  uncertainty theta = 0.002629, k = 0.093232
         7        10        29     1      107.170387      404.439565    ;  uncertainty theta = 0.002629, k = 0.093232
         8         7        10     1      121.561241      407.525884    ;  uncertainty theta = 0.004786, k = 0.112916
         8         9        27     1      108.270935      348.057521    ;  uncertainty theta = 0.007607, k = 0.026261
        10        15        16     1      120.083420      419.883930    ;  uncertainty theta = 0.003256, k = 0.147654
        10        15        20     1      120.104591      433.022549    ;  uncertainty theta = 0.002007, k = 0.063849
        11        12        31     1      109.114990      463.321116    ;  uncertainty theta = 0.002020, k = 0.049188
        11        12        32     1      109.114990      463.321116    ;  uncertainty theta = 0.002020, k = 0.049188
        11        12        33     1      109.114990      463.321116    ;  uncertainty theta = 0.002020, k = 0.049188
        11        13        14     1      123.145607      774.394008    ;  uncertainty theta = 0.002863, k = 0.065807
        12        11        13     1      117.202759      444.572983    ;  uncertainty theta = 0.004194, k = 0.144387
        12        11        30     1      113.289574      324.789129    ;  uncertainty theta = 0.001730, k = 0.149038
        13        11        30     1      115.483727      336.899688    ;  uncertainty theta = 0.002435, k = 0.202507
        15        10        28     1      107.881180      399.304467    ;  uncertainty theta = 0.002484, k = 0.049912
        15        10        29     1      107.881180      399.304467    ;  uncertainty theta = 0.002484, k = 0.049912
        15        16        17     1      117.786621      522.466083    ;  uncertainty theta = 0.002436, k = 0.074255
        15        16        34     1      119.994400      268.653487    ;  uncertainty theta = 0.003273, k = 0.090407
        15        20        19     1      122.503860      510.912680    ;  uncertainty theta = 0.003242, k = 0.045377
        15        20        36     1      118.302467      273.338876    ;  uncertainty theta = 0.002470, k = 0.059806
        16        15        20     1      123.177406      459.928862    ;  uncertainty theta = 0.001613, k = 0.129260
        16        17        18     1      121.887192      372.643725    ;  uncertainty theta = 0.003312, k = 0.157350
        16        17        21     1      128.054047      376.644783    ;  uncertainty theta = 0.002887, k = 0.161847
        17        16        34     1      122.093468      289.671358    ;  uncertainty theta = 0.003201, k = 0.153050
        17        18        19     1      117.366188      403.149909    ;  uncertainty theta = 0.005187, k = 0.131170
        17        18        23     1      103.675919      727.538711    ;  uncertainty theta = 0.004097, k = 0.105564
        17        21        22     1      109.733093      956.970167    ;  uncertainty theta = 0.004509, k = 0.134495
        17        21        38     1      121.557632      395.920193    ;  uncertainty theta = 0.004310, k = 0.044019
        18        17        21     1      106.353836      686.679975    ;  uncertainty theta = 0.004970, k = 0.152100
        18        19        20     1      118.593674      549.710667    ;  uncertainty theta = 0.003237, k = 0.122960
        18        19        35     1      121.684570      294.128158    ;  uncertainty theta = 0.001310, k = 0.116454
        18        23        22     1      112.005775      923.508701    ;  uncertainty theta = 0.002999, k = 0.103751
        18        23        37     1      126.730774      245.709001    ;  uncertainty theta = 0.002703, k = 0.146329
        19        18        23     1      132.404510      361.104367    ;  uncertainty theta = 0.006264, k = 0.203804
        19        20        36     1      119.449890      292.841630    ;  uncertainty theta = 0.004287, k = 0.061307
        20        19        35     1      120.770302      280.744000    ;  uncertainty theta = 0.001825, k = 0.020152
        21        22        23     1      109.057022      920.718644    ;  uncertainty theta = 0.002487, k = 0.080409
        21        38        39     1      108.743240      473.447442    ;  uncertainty theta = 0.001417, k = 0.075380
        21        38        40     1      108.743240      473.447442    ;  uncertainty theta = 0.001417, k = 0.075380
        21        38        41     1      108.743225      473.447442    ;  uncertainty theta = 0.001417, k = 0.075380
        22        21        38     1      115.827515      453.443873    ;  uncertainty theta = 0.003728, k = 0.127303
        22        23        37     1      118.625290      291.030092    ;  uncertainty theta = 0.003323, k = 0.052527
        28        10        29     1      104.250450      312.652458    ;  uncertainty theta = 0.003816, k = 0.044410
        31        12        32     1      107.012878      321.487851    ;  uncertainty theta = 0.002661, k = 0.021792
        31        12        33     1      107.012878      321.487851    ;  uncertainty theta = 0.002661, k = 0.021792
        32        12        33     1      107.012878      321.487787    ;  uncertainty theta = 0.002661, k = 0.021792
        39        38        40     1      107.639565      320.364250    ;  uncertainty theta = 0.001662, k = 0.012143
        39        38        41     1      107.639565      320.364250    ;  uncertainty theta = 0.001662, k = 0.012143
        40        38        41     1      107.639565      320.364250    ;  uncertainty theta = 0.001662, k = 0.012143

[ dihedrals ] ; propers for gromacs 4.5 or higher, use funct 9
;       ai        aj        ak        al funct           phase               k        pn
         1         2         6         5     9        0.000000        0.125629         1    ;  uncertainty k = 0.380702
         1         2         6         5     9      180.000000       12.978592         2    ;  uncertainty k = 0.149323
         1         2         6         5     9        0.000000       -1.383969         3    ;  uncertainty k = 0.396103
         1         2         6         5     9      180.000000        0.797353         4    ;  uncertainty k = 0.202247
         1         2         6         7     9        0.000000        0.323810         1    ;  uncertainty k = 0.240214
         1         2         6         7     9      180.000000        8.108288         2    ;  uncertainty k = 0.383483
         1         2         6         7     9        0.000000        0.680840         3    ;  uncertainty k = 0.287623
         1         2         6         7     9      180.000000        1.236144         4    ;  uncertainty k = 0.134057
         1         4         3         5     9        0.000000        0.015030         1    ;  uncertainty k = 0.249477
         1         4         3         5     9      180.000000       16.540588         2    ;  uncertainty k = 0.211968
         1         4         3         5     9        0.000000       -0.194290         3    ;  uncertainty k = 0.497198
         1         4         3         5     9      180.000000        0.712331         4    ;  uncertainty k = 0.233284
         1         4         3        25     9        0.000000       -0.051117         1    ;  uncertainty k = 0.111938
         1         4         3        25     9      180.000000        9.754084         2    ;  uncertainty k = 0.656956
         1         4         3        25     9        0.000000        1.467636         3    ;  uncertainty k = 0.282914
         1         4         3        25     9      180.000000        1.830497         4    ;  uncertainty k = 0.313692
         1        13        11        12     9        0.000000        4.789197         1    ;  uncertainty k = 1.027114
         1        13        11        12     9      180.000000       12.705005         2    ;  uncertainty k = 0.239269
         1        13        11        12     9        0.000000        2.293218         3    ;  uncertainty k = 0.393456
         1        13        11        12     9      180.000000       -1.124949         4    ;  uncertainty k = 0.303384
         1        13        11        30     9        0.000000       -0.356362         1    ;  uncertainty k = 0.600602
         1        13        11        30     9      180.000000        7.718152         2    ;  uncertainty k = 0.676150
         1        13        11        30     9        0.000000        2.790951         3    ;  uncertainty k = 0.266286
         1        13        11        30     9      180.000000        0.051428         4    ;  uncertainty k = 0.420873
         2         1         4         3     9        0.000000       -0.051700         1    ;  uncertainty k = 0.203688
         2         1         4         3     9      180.000000        9.075687         2    ;  uncertainty k = 0.283250
         2         1         4         3     9        0.000000       -0.407673         3    ;  uncertainty k = 0.418648
         2         1         4         3     9      180.000000        1.128606         4    ;  uncertainty k = 0.223801
         2         1         4        26     9        0.000000        0.164836         1    ;  uncertainty k = 0.445056
         2         1         4        26     9      180.000000        6.464031         2    ;  uncertainty k = 0.432359
         2         1         4        26     9        0.000000        1.202892         3    ;  uncertainty k = 0.233746
         2         1         4        26     9      180.000000        1.549374         4    ;  uncertainty k = 0.224959
         2         1        13        11     9        0.000000       -0.152519         1    ;  uncertainty k = 0.249884
         2         1        13        11     9      180.000000        3.228438         2    ;  uncertainty k = 0.418593
         2         1        13        11     9        0.000000        0.314315         3    ;  uncertainty k = 0.208477
         2         1        13        11     9      180.000000       -0.121830         4    ;  uncertainty k = 0.079914
         2         1        13        14     9        0.000000       -0.165631         1    ;  uncertainty k = 0.601664
         2         1        13        14     9      180.000000        3.962067         2    ;  uncertainty k = 0.318736
         2         1        13        14     9        0.000000        0.331259         3    ;  uncertainty k = 0.292059
         2         1        13        14     9      180.000000       -0.059821         4    ;  uncertainty k = 0.139751
         2         6         5         3     9        0.000000       -0.385848         1    ;  uncertainty k = 0.436994
         2         6         5         3     9      180.000000        7.256451         2    ;  uncertainty k = 0.637048
         2         6         5         3     9        0.000000        0.262184         3    ;  uncertainty k = 0.227290
         2         6         5         3     9      180.000000        1.036594         4    ;  uncertainty k = 0.348675
         2         6         5         9     9        0.000000        0.074882         1    ;  uncertainty k = 0.653599
         2         6         5         9     9      180.000000        8.149280         2    ;  uncertainty k = 0.323861
         2         6         5         9     9        0.000000       -0.086823         3    ;  uncertainty k = 0.474800
         2         6         5         9     9      180.000000        1.262771         4    ;  uncertainty k = 0.353640
         2         6         7         8     9        0.000000        0.896066         1    ;  uncertainty k = 0.412983
         2         6         7         8     9      180.000000        6.188356         2    ;  uncertainty k = 0.301027
         2         6         7         8     9        0.000000        0.262226         3    ;  uncertainty k = 0.705506
         2         6         7         8     9      180.000000        0.845678         4    ;  uncertainty k = 0.115332
         2         6         7        10     9        0.000000       -0.664645         1    ;  uncertainty k = 1.020510
         2         6         7        10     9      180.000000        3.897048         2    ;  uncertainty k = 0.770492
         2         6         7        10     9        0.000000        1.361905         3    ;  uncertainty k = 0.284083
         2         6         7        10     9      180.000000        0.099806         4    ;  uncertainty k = 0.196513
         3         4         1        13     9        0.000000        0.114262         1    ;  uncertainty k = 0.338054
         3         4         1        13     9      180.000000        7.926098         2    ;  uncertainty k = 0.808325
         3         4         1        13     9        0.000000        1.514005         3    ;  uncertainty k = 0.300788
         3         4         1        13     9      180.000000        1.801910         4    ;  uncertainty k = 0.241800
         3         5         6         7     9        0.000000        0.039996         1    ;  uncertainty k = 0.451276
         3         5         6         7     9      180.000000        6.752216         2    ;  uncertainty k = 0.301293
         3         5         6         7     9        0.000000        0.183868         3    ;  uncertainty k = 0.444563
         3         5         6         7     9      180.000000        1.332176         4    ;  uncertainty k = 0.335394
         3         5         9         8     9        0.000000        0.851830         1    ;  uncertainty k = 1.080926
         3         5         9         8     9      180.000000        6.976261         2    ;  uncertainty k = 0.620103
         3         5         9         8     9        0.000000        0.547844         3    ;  uncertainty k = 0.692413
         3         5         9         8     9      180.000000        0.355562         4    ;  uncertainty k = 0.199816
         3         5         9        27     9        0.000000        1.678012         1    ;  uncertainty k = 1.047142
         3         5         9        27     9      180.000000        1.771471         2    ;  uncertainty k = 0.514806
         3         5         9        27     9        0.000000        1.346547         3    ;  uncertainty k = 0.533570
         3         5         9        27     9      180.000000        0.077494         4    ;  uncertainty k = 0.144083
         4         1         2         6     9        0.000000        0.042147         1    ;  uncertainty k = 0.418382
         4         1         2         6     9      180.000000       12.669048         2    ;  uncertainty k = 0.529104
         4         1         2         6     9        0.000000       -0.009662         3    ;  uncertainty k = 0.329780
         4         1         2         6     9      180.000000        1.108792         4    ;  uncertainty k = 0.394226
         4         1         2        24     9        0.000000        0.287836         1    ;  uncertainty k = 0.228123
         4         1         2        24     9      180.000000        8.055955         2    ;  uncertainty k = 0.369446
         4         1         2        24     9        0.000000        1.344577         3    ;  uncertainty k = 0.264675
         4         1         2        24     9      180.000000        1.719184         4    ;  uncertainty k = 0.287017
         4         1        13        11     9        0.000000        0.489271         1    ;  uncertainty k = 0.723554
         4         1        13        11     9      180.000000        3.331824         2    ;  uncertainty k = 0.333521
         4         1        13        11     9        0.000000        0.273230         3    ;  uncertainty k = 0.158705
         4         1        13        11     9      180.000000       -0.098128         4    ;  uncertainty k = 0.064913
         4         1        13        14     9        0.000000       -1.086296         1    ;  uncertainty k = 0.504309
         4         1        13        14     9      180.000000        3.795462         2    ;  uncertainty k = 0.347490
         4         1        13        14     9        0.000000        0.331862         3    ;  uncertainty k = 0.214277
         4         1        13        14     9      180.000000       -0.045720         4    ;  uncertainty k = 0.133443
         4         3         5         6     9        0.000000       -0.025107         1    ;  uncertainty k = 0.336935
         4         3         5         6     9      180.000000       12.168993         2    ;  uncertainty k = 0.165669
         4         3         5         6     9        0.000000       -1.429431         3    ;  uncertainty k = 0.448611
         4         3         5         6     9      180.000000        0.799135         4    ;  uncertainty k = 0.241618
         4         3         5         9     9        0.000000        0.101858         1    ;  uncertainty k = 0.318131
         4         3         5         9     9      180.000000       10.102838         2    ;  uncertainty k = 0.688442
         4         3         5         9     9        0.000000        0.789241         3    ;  uncertainty k = 0.243893
         4         3         5         9     9      180.000000        1.172140         4    ;  uncertainty k = 0.258288
         5         3         4        26     9        0.000000       -0.019785         1    ;  uncertainty k = 0.212714
         5         3         4        26     9      180.000000       11.549214         2    ;  uncertainty k = 0.356726
         5         3         4        26     9        0.000000        1.447938         3    ;  uncertainty k = 0.240285
         5         3         4        26     9      180.000000        1.566970         4    ;  uncertainty k = 0.280846
         5         6         2        24     9        0.000000       -0.001909         1    ;  uncertainty k = 0.461487
         5         6         2        24     9      180.000000        7.599205         2    ;  uncertainty k = 1.060636
         5         6         2        24     9        0.000000        1.279131         3    ;  uncertainty k = 0.283649
         5         6         2        24     9      180.000000        1.183489         4    ;  uncertainty k = 0.364227
         5         6         7         8     9        0.000000        0.518820         1    ;  uncertainty k = 0.580107
         5         6         7         8     9      180.000000       13.282786         2    ;  uncertainty k = 1.212638
         5         6         7         8     9        0.000000      -10.889082         3    ;  uncertainty k = 2.077761
         5         6         7         8     9      180.000000        2.084226         4    ;  uncertainty k = 0.616582
         5         6         7        10     9        0.000000        1.360603         1    ;  uncertainty k = 1.064544
         5         6         7        10     9      180.000000        8.393785         2    ;  uncertainty k = 0.565641
         5         6         7        10     9        0.000000        1.843119         3    ;  uncertainty k = 0.820358
         5         6         7        10     9      180.000000        0.292642         4    ;  uncertainty k = 0.322572
         5         9         8         7     9        0.000000       -0.735377         1    ;  uncertainty k = 0.955210
         5         9         8         7     9      180.000000       16.921826         2    ;  uncertainty k = 0.597359
         5         9         8         7     9        0.000000       -4.758182         3    ;  uncertainty k = 1.060596
         5         9         8         7     9      180.000000        1.042894         4    ;  uncertainty k = 0.541181
         6         2         1        13     9        0.000000       -0.059124         1    ;  uncertainty k = 0.382247
         6         2         1        13     9      180.000000       11.769283         2    ;  uncertainty k = 0.474793
         6         2         1        13     9        0.000000        1.558961         3    ;  uncertainty k = 0.136213
         6         2         1        13     9      180.000000        1.697066         4    ;  uncertainty k = 0.270914
         6         5         3        25     9        0.000000       -0.082808         1    ;  uncertainty k = 0.407511
         6         5         3        25     9      180.000000        6.515957         2    ;  uncertainty k = 1.128197
         6         5         3        25     9        0.000000        1.284129         3    ;  uncertainty k = 0.182900
         6         5         3        25     9      180.000000        1.092300         4    ;  uncertainty k = 0.490060
         6         5         9         8     9        0.000000        0.199563         1    ;  uncertainty k = 0.535624
         6         5         9         8     9      180.000000       17.318015         2    ;  uncertainty k = 1.037583
         6         5         9         8     9        0.000000       -8.693972         3    ;  uncertainty k = 1.678250
         6         5         9         8     9      180.000000        0.786245         4    ;  uncertainty k = 0.551361
         6         5         9        27     9        0.000000        4.181896         1    ;  uncertainty k = 2.136596
         6         5         9        27     9      180.000000        6.077364         2    ;  uncertainty k = 1.359048
         6         5         9        27     9        0.000000        1.446964         3    ;  uncertainty k = 0.313495
         6         5         9        27     9      180.000000       -0.008295         4    ;  uncertainty k = 0.147352
         6         7         8         9     9        0.000000       -0.385330         1    ;  uncertainty k = 0.587424
         6         7         8         9     9      180.000000       24.985502         2    ;  uncertainty k = 0.242385
         6         7         8         9     9        0.000000       -4.376738         3    ;  uncertainty k = 0.974230
         6         7         8         9     9      180.000000        1.986604         4    ;  uncertainty k = 0.353560
         6         7        10        15     9        0.000000       -0.319019         1    ;  uncertainty k = 0.556104
         6         7        10        15     9      180.000000        0.979844         2    ;  uncertainty k = 0.502954
         6         7        10        15     9        0.000000        0.992001         3    ;  uncertainty k = 0.209759
         6         7        10        15     9      180.000000        0.180325         4    ;  uncertainty k = 0.145180
         6         7        10        28     9        0.000000       -1.172444         1    ;  uncertainty k = 0.277783
         6         7        10        28     9      180.000000        1.776340         2    ;  uncertainty k = 0.479934
         6         7        10        28     9        0.000000        0.834687         3    ;  uncertainty k = 0.164754
         6         7        10        28     9      180.000000        0.104450         4    ;  uncertainty k = 0.066333
         6         7        10        29     9        0.000000       -1.172444         1    ;  uncertainty k = 0.277783
         6         7        10        29     9      180.000000        1.776340         2    ;  uncertainty k = 0.479934
         6         7        10        29     9        0.000000        0.834687         3    ;  uncertainty k = 0.164754
         6         7        10        29     9      180.000000        0.104450         4    ;  uncertainty k = 0.066333
         7         6         2        24     9        0.000000       -0.051752         1    ;  uncertainty k = 0.323850
         7         6         2        24     9      180.000000        5.554766         2    ;  uncertainty k = 0.815913
         7         6         2        24     9        0.000000        1.145356         3    ;  uncertainty k = 0.241466
         7         6         2        24     9      180.000000        0.679191         4    ;  uncertainty k = 0.306682
         7         6         5         9     9        0.000000       -0.358451         1    ;  uncertainty k = 0.333026
         7         6         5         9     9      180.000000       12.189079         2    ;  uncertainty k = 0.699750
         7         6         5         9     9        0.000000       -3.653481         3    ;  uncertainty k = 1.600587
         7         6         5         9     9      180.000000        1.629609         4    ;  uncertainty k = 0.585595
         7         8         9        27     9        0.000000        4.146951         1    ;  uncertainty k = 2.343420
         7         8         9        27     9      180.000000       12.933883         2    ;  uncertainty k = 0.107932
         7         8         9        27     9        0.000000        1.688928         3    ;  uncertainty k = 1.037473
         7         8         9        27     9      180.000000       -0.435126         4    ;  uncertainty k = 0.238097
         7        10        15        16     9        0.000000        0.718213         1    ;  uncertainty k = 0.230549
         7        10        15        16     9      180.000000        1.840296         2    ;  uncertainty k = 0.048496
         7        10        15        16     9        0.000000        0.338192         3    ;  uncertainty k = 0.100999
         7        10        15        16     9      180.000000        0.230861         4    ;  uncertainty k = 0.071227
         7        10        15        20     9        0.000000        0.728568         1    ;  uncertainty k = 0.399220
         7        10        15        20     9      180.000000        1.690455         2    ;  uncertainty k = 0.141217
         7        10        15        20     9        0.000000        0.653643         3    ;  uncertainty k = 0.163624
         7        10        15        20     9      180.000000        0.255374         4    ;  uncertainty k = 0.045961
         8         7        10        15     9        0.000000        0.926171         1    ;  uncertainty k = 0.364808
         8         7        10        15     9      180.000000        1.586071         2    ;  uncertainty k = 0.232864
         8         7        10        15     9        0.000000        0.039334         3    ;  uncertainty k = 0.159507
         8         7        10        15     9      180.000000        0.133208         4    ;  uncertainty k = 0.102818
         8         7        10        28     9        0.000000        1.784941         1    ;  uncertainty k = 0.123884
         8         7        10        28     9      180.000000        2.205107         2    ;  uncertainty k = 0.284100
         8         7        10        28     9        0.000000        0.157567         3    ;  uncertainty k = 0.099366
         8         7        10        28     9      180.000000        0.110499         4    ;  uncertainty k = 0.047818
         8         7        10        29     9        0.000000        1.784941         1    ;  uncertainty k = 0.123884
         8         7        10        29     9      180.000000        2.205107         2    ;  uncertainty k = 0.284100
         8         7        10        29     9        0.000000        0.157567         3    ;  uncertainty k = 0.099366
         8         7        10        29     9      180.000000        0.110499         4    ;  uncertainty k = 0.047818
         9         5         3        25     9        0.000000        0.448575         1    ;  uncertainty k = 0.396446
         9         5         3        25     9      180.000000        5.638355         2    ;  uncertainty k = 0.858183
         9         5         3        25     9        0.000000        1.145651         3    ;  uncertainty k = 0.127058
         9         5         3        25     9      180.000000        0.744521         4    ;  uncertainty k = 0.319502
         9         8         7        10     9        0.000000       -0.552746         1    ;  uncertainty k = 0.844981
         9         8         7        10     9      180.000000       25.075805         2    ;  uncertainty k = 0.176168
         9         8         7        10     9        0.000000        2.419807         3    ;  uncertainty k = 0.639339
         9         8         7        10     9      180.000000        1.107110         4    ;  uncertainty k = 0.276960
        10        15        16        17     9        0.000000       -0.094404         1    ;  uncertainty k = 0.210813
        10        15        16        17     9      180.000000       12.463488         2    ;  uncertainty k = 0.510760
        10        15        16        17     9        0.000000        1.482384         3    ;  uncertainty k = 0.293240
        10        15        16        17     9      180.000000        1.600663         4    ;  uncertainty k = 0.381586
        10        15        16        34     9        0.000000       -0.257554         1    ;  uncertainty k = 0.478026
        10        15        16        34     9      180.000000        8.145536         2    ;  uncertainty k = 0.419606
        10        15        16        34     9        0.000000        0.681092         3    ;  uncertainty k = 0.305253
        10        15        16        34     9      180.000000        1.052028         4    ;  uncertainty k = 0.259388
        10        15        20        19     9        0.000000        0.197708         1    ;  uncertainty k = 0.354492
        10        15        20        19     9      180.000000        7.897050         2    ;  uncertainty k = 0.394963
        10        15        20        19     9        0.000000        1.399497         3    ;  uncertainty k = 0.198032
        10        15        20        19     9      180.000000        1.804690         4    ;  uncertainty k = 0.096008
        10        15        20        36     9        0.000000       -0.121182         1    ;  uncertainty k = 0.215362
        10        15        20        36     9      180.000000        7.361653         2    ;  uncertainty k = 0.299484
        10        15        20        36     9        0.000000        0.618835         3    ;  uncertainty k = 0.373530
        10        15        20        36     9      180.000000        0.952359         4    ;  uncertainty k = 0.314553
        12        11        13        14     9        0.000000        2.908626         1    ;  uncertainty k = 0.608893
        12        11        13        14     9      180.000000       11.020841         2    ;  uncertainty k = 0.225485
        12        11        13        14     9        0.000000        0.587180         3    ;  uncertainty k = 0.297813
        12        11        13        14     9      180.000000        0.508956         4    ;  uncertainty k = 0.213308
        13         1         2        24     9        0.000000       -0.136665         1    ;  uncertainty k = 0.379945
        13         1         2        24     9      180.000000        8.460202         2    ;  uncertainty k = 0.444612
        13         1         2        24     9        0.000000        1.140838         3    ;  uncertainty k = 0.197062
        13         1         2        24     9      180.000000        1.213531         4    ;  uncertainty k = 0.231557
        13         1         4        26     9        0.000000       -0.103676         1    ;  uncertainty k = 0.427786
        13         1         4        26     9      180.000000        7.596315         2    ;  uncertainty k = 0.428562
        13         1         4        26     9        0.000000        0.928012         3    ;  uncertainty k = 0.201145
        13         1         4        26     9      180.000000        0.967211         4    ;  uncertainty k = 0.247422
        13        11        12        31     9        0.000000        0.271065         1    ;  uncertainty k = 0.210942
        13        11        12        31     9      180.000000       -0.535012         2    ;  uncertainty k = 0.296395
        13        11        12        31     9        0.000000        0.224758         3    ;  uncertainty k = 0.092791
        13        11        12        31     9      180.000000        0.342234         4    ;  uncertainty k = 0.050181
        13        11        12        32     9        0.000000        0.271066         1    ;  uncertainty k = 0.210944
        13        11        12        32     9      180.000000       -0.535011         2    ;  uncertainty k = 0.296394
        13        11        12        32     9        0.000000        0.224758         3    ;  uncertainty k = 0.092791
        13        11        12        32     9      180.000000        0.342234         4    ;  uncertainty k = 0.050181
        13        11        12        33     9        0.000000        0.271066         1    ;  uncertainty k = 0.210944
        13        11        12        33     9      180.000000       -0.535011         2    ;  uncertainty k = 0.296394
        13        11        12        33     9        0.000000        0.224758         3    ;  uncertainty k = 0.092791
        13        11        12        33     9      180.000000        0.342234         4    ;  uncertainty k = 0.050181
        14        13        11        30     9        0.000000        3.318940         1    ;  uncertainty k = 1.151661
        14        13        11        30     9      180.000000       14.296123         2    ;  uncertainty k = 0.216662
        14        13        11        30     9        0.000000        1.586854         3    ;  uncertainty k = 0.158255
        14        13        11        30     9      180.000000       -0.472643         4    ;  uncertainty k = 0.099040
        15        16        17        18     9        0.000000       -0.205520         1    ;  uncertainty k = 0.260985
        15        16        17        18     9      180.000000       11.575878         2    ;  uncertainty k = 0.206592
        15        16        17        18     9        0.000000       -1.384962         3    ;  uncertainty k = 0.413047
        15        16        17        18     9      180.000000        0.833935         4    ;  uncertainty k = 0.152435
        15        16        17        21     9        0.000000        0.395078         1    ;  uncertainty k = 0.482627
        15        16        17        21     9      180.000000        9.802545         2    ;  uncertainty k = 0.650801
        15        16        17        21     9        0.000000        0.738874         3    ;  uncertainty k = 0.125031
        15        16        17        21     9      180.000000        1.158892         4    ;  uncertainty k = 0.293253
        15        20        19        18     9        0.000000       -0.214058         1    ;  uncertainty k = 0.366512
        15        20        19        18     9      180.000000       16.702336         2    ;  uncertainty k = 0.310242
        15        20        19        18     9        0.000000       -0.309201         3    ;  uncertainty k = 0.368384
        15        20        19        18     9      180.000000        0.626028         4    ;  uncertainty k = 0.294804
        15        20        19        35     9        0.000000        0.015126         1    ;  uncertainty k = 0.235041
        15        20        19        35     9      180.000000        8.778064         2    ;  uncertainty k = 0.680352
        15        20        19        35     9        0.000000        1.431889         3    ;  uncertainty k = 0.209125
        15        20        19        35     9      180.000000        1.844082         4    ;  uncertainty k = 0.238439
        16        15        10        28     9        0.000000        0.181850         1    ;  uncertainty k = 0.280023
        16        15        10        28     9      180.000000        1.985325         2    ;  uncertainty k = 0.199434
        16        15        10        28     9        0.000000        0.251847         3    ;  uncertainty k = 0.073823
        16        15        10        28     9      180.000000        0.132292         4    ;  uncertainty k = 0.033335
        16        15        10        29     9        0.000000        0.181850         1    ;  uncertainty k = 0.280023
        16        15        10        29     9      180.000000        1.985325         2    ;  uncertainty k = 0.199434
        16        15        10        29     9        0.000000        0.251847         3    ;  uncertainty k = 0.073823
        16        15        10        29     9      180.000000        0.132292         4    ;  uncertainty k = 0.033335
        16        15        20        19     9        0.000000       -0.219224         1    ;  uncertainty k = 0.126661
        16        15        20        19     9      180.000000        9.371422         2    ;  uncertainty k = 0.454512
        16        15        20        19     9        0.000000       -0.078300         3    ;  uncertainty k = 0.330861
        16        15        20        19     9      180.000000        0.983999         4    ;  uncertainty k = 0.314104
        16        15        20        36     9        0.000000        0.163846         1    ;  uncertainty k = 0.251352
        16        15        20        36     9      180.000000        6.648581         2    ;  uncertainty k = 0.628036
        16        15        20        36     9        0.000000        1.374374         3    ;  uncertainty k = 0.239958
        16        15        20        36     9      180.000000        1.506598         4    ;  uncertainty k = 0.188286
        16        17        18        19     9        0.000000       -0.501441         1    ;  uncertainty k = 0.918212
        16        17        18        19     9      180.000000        7.363772         2    ;  uncertainty k = 0.623908
        16        17        18        19     9        0.000000        0.142112         3    ;  uncertainty k = 0.179190
        16        17        18        19     9      180.000000        0.978156         4    ;  uncertainty k = 0.360383
        16        17        18        23     9        0.000000        0.216738         1    ;  uncertainty k = 0.326526
        16        17        18        23     9      180.000000        7.313185         2    ;  uncertainty k = 0.373341
        16        17        18        23     9        0.000000        0.212718         3    ;  uncertainty k = 0.526744
        16        17        18        23     9      180.000000        1.257715         4    ;  uncertainty k = 0.294073
        16        17        21        22     9        0.000000        0.680095         1    ;  uncertainty k = 0.561868
        16        17        21        22     9      180.000000        7.326434         2    ;  uncertainty k = 0.720762
        16        17        21        22     9        0.000000        0.879398         3    ;  uncertainty k = 0.496336
        16        17        21        22     9      180.000000        0.382217         4    ;  uncertainty k = 0.187151
        16        17        21        38     9        0.000000        0.463008         1    ;  uncertainty k = 1.437373
        16        17        21        38     9      180.000000        2.945400         2    ;  uncertainty k = 0.632621
        16        17        21        38     9        0.000000        0.871518         3    ;  uncertainty k = 0.438147
        16        17        21        38     9      180.000000        0.100446         4    ;  uncertainty k = 0.168307
        17        16        15        20     9        0.000000       -0.089878         1    ;  uncertainty k = 0.242617
        17        16        15        20     9      180.000000       14.309850         2    ;  uncertainty k = 0.221966
        17        16        15        20     9        0.000000        0.274578         3    ;  uncertainty k = 0.242147
        17        16        15        20     9      180.000000        0.882851         4    ;  uncertainty k = 0.239975
        17        18        19        20     9        0.000000       -0.129091         1    ;  uncertainty k = 0.194660
        17        18        19        20     9      180.000000       13.293470         2    ;  uncertainty k = 0.227387
        17        18        19        20     9        0.000000       -1.955645         3    ;  uncertainty k = 0.643800
        17        18        19        20     9      180.000000        0.699004         4    ;  uncertainty k = 0.273747
        17        18        19        35     9        0.000000        0.021429         1    ;  uncertainty k = 0.422328
        17        18        19        35     9      180.000000        7.388493         2    ;  uncertainty k = 0.767040
        17        18        19        35     9        0.000000        1.312316         3    ;  uncertainty k = 0.406921
        17        18        19        35     9      180.000000        1.078463         4    ;  uncertainty k = 0.513897
        17        18        23        22     9        0.000000        0.404916         1    ;  uncertainty k = 1.027157
        17        18        23        22     9      180.000000       14.148226         2    ;  uncertainty k = 0.890051
        17        18        23        22     9        0.000000      -12.217083         3    ;  uncertainty k = 2.652967
        17        18        23        22     9      180.000000        2.178044         4    ;  uncertainty k = 0.533829
        17        18        23        37     9        0.000000        0.029030         1    ;  uncertainty k = 0.514914
        17        18        23        37     9      180.000000        7.788027         2    ;  uncertainty k = 1.035799
        17        18        23        37     9        0.000000        1.330893         3    ;  uncertainty k = 0.451068
        17        18        23        37     9      180.000000        0.363102         4    ;  uncertainty k = 0.236741
        17        21        22        23     9        0.000000       -0.344631         1    ;  uncertainty k = 0.731504
        17        21        22        23     9      180.000000       17.371088         2    ;  uncertainty k = 0.451191
        17        21        22        23     9        0.000000       -4.943529         3    ;  uncertainty k = 1.675339
        17        21        22        23     9      180.000000        1.185728         4    ;  uncertainty k = 0.546094
        17        21        38        39     9        0.000000       -0.472378         1    ;  uncertainty k = 0.242053
        17        21        38        39     9      180.000000       -1.093929         2    ;  uncertainty k = 0.056803
        17        21        38        39     9        0.000000        0.947802         3    ;  uncertainty k = 0.044851
        17        21        38        39     9      180.000000        0.195483         4    ;  uncertainty k = 0.037565
        17        21        38        40     9        0.000000       -0.472378         1    ;  uncertainty k = 0.242053
        17        21        38        40     9      180.000000       -1.093929         2    ;  uncertainty k = 0.056803
        17        21        38        40     9        0.000000        0.947802         3    ;  uncertainty k = 0.044851
        17        21        38        40     9      180.000000        0.195483         4    ;  uncertainty k = 0.037565
        17        21        38        41     9        0.000000       -0.472378         1    ;  uncertainty k = 0.242053
        17        21        38        41     9      180.000000       -1.093929         2    ;  uncertainty k = 0.056803
        17        21        38        41     9        0.000000        0.947802         3    ;  uncertainty k = 0.044851
        17        21        38        41     9      180.000000        0.195483         4    ;  uncertainty k = 0.037565
        18        17        16        34     9        0.000000        0.100004         1    ;  uncertainty k = 0.379643
        18        17        16        34     9      180.000000        6.963971         2    ;  uncertainty k = 1.186973
        18        17        16        34     9        0.000000        1.349183         3    ;  uncertainty k = 0.136053
        18        17        16        34     9      180.000000        1.147382         4    ;  uncertainty k = 0.504837
        18        17        21        22     9        0.000000        0.428032         1    ;  uncertainty k = 0.939687
        18        17        21        22     9      180.000000       16.521047         2    ;  uncertainty k = 0.968667
        18        17        21        22     9        0.000000       -8.171613         3    ;  uncertainty k = 1.089878
        18        17        21        22     9      180.000000        0.964210         4    ;  uncertainty k = 0.698043
        18        17        21        38     9        0.000000        2.324776         1    ;  uncertainty k = 1.135824
        18        17        21        38     9      180.000000        5.795714         2    ;  uncertainty k = 0.549010
        18        17        21        38     9        0.000000        1.706566         3    ;  uncertainty k = 0.319523
        18        17        21        38     9      180.000000        0.091836         4    ;  uncertainty k = 0.130105
        18        19        20        36     9        0.000000       -0.039628         1    ;  uncertainty k = 0.277617
        18        19        20        36     9      180.000000       11.729986         2    ;  uncertainty k = 0.319294
        18        19        20        36     9        0.000000        1.500573         3    ;  uncertainty k = 0.255792
        18        19        20        36     9      180.000000        1.696372         4    ;  uncertainty k = 0.306059
        18        23        22        21     9        0.000000        0.028096         1    ;  uncertainty k = 0.585651
        18        23        22        21     9      180.000000       25.588986         2    ;  uncertainty k = 0.203881
        18        23        22        21     9        0.000000       -5.266773         3    ;  uncertainty k = 0.847117
        18        23        22        21     9      180.000000        1.995174         4    ;  uncertainty k = 0.718305
        19        18        17        21     9        0.000000        0.281734         1    ;  uncertainty k = 0.454505
        19        18        17        21     9      180.000000        8.011140         2    ;  uncertainty k = 0.254916
        19        18        17        21     9        0.000000       -0.397994         3    ;  uncertainty k = 0.752724
        19        18        17        21     9      180.000000        1.364316         4    ;  uncertainty k = 0.430053
        19        18        23        22     9        0.000000        0.524397         1    ;  uncertainty k = 0.735438
        19        18        23        22     9      180.000000        7.073016         2    ;  uncertainty k = 0.251875
        19        18        23        22     9        0.000000        0.048714         3    ;  uncertainty k = 0.194965
        19        18        23        22     9      180.000000        0.988399         4    ;  uncertainty k = 0.189230
        19        18        23        37     9        0.000000        0.535055         1    ;  uncertainty k = 0.738803
        19        18        23        37     9      180.000000        3.490879         2    ;  uncertainty k = 0.801515
        19        18        23        37     9        0.000000        1.221670         3    ;  uncertainty k = 0.283994
        19        18        23        37     9      180.000000        0.083701         4    ;  uncertainty k = 0.145114
        20        15        10        28     9        0.000000       -0.478036         1    ;  uncertainty k = 0.262342
        20        15        10        28     9      180.000000        1.959082         2    ;  uncertainty k = 0.189103
        20        15        10        28     9        0.000000        0.462272         3    ;  uncertainty k = 0.134746
        20        15        10        28     9      180.000000        0.153005         4    ;  uncertainty k = 0.036316
        20        15        10        29     9        0.000000       -0.478036         1    ;  uncertainty k = 0.262342
        20        15        10        29     9      180.000000        1.959082         2    ;  uncertainty k = 0.189103
        20        15        10        29     9        0.000000        0.462272         3    ;  uncertainty k = 0.134746
        20        15        10        29     9      180.000000        0.153005         4    ;  uncertainty k = 0.036316
        20        15        16        34     9        0.000000        0.289444         1    ;  uncertainty k = 0.202876
        20        15        16        34     9      180.000000        8.108083         2    ;  uncertainty k = 0.541585
        20        15        16        34     9        0.000000        1.652487         3    ;  uncertainty k = 0.307186
        20        15        16        34     9      180.000000        1.763762         4    ;  uncertainty k = 0.151636
        20        19        18        23     9        0.000000        0.228888         1    ;  uncertainty k = 0.314520
        20        19        18        23     9      180.000000        8.519892         2    ;  uncertainty k = 0.411194
        20        19        18        23     9        0.000000        0.608852         3    ;  uncertainty k = 0.317952
        20        19        18        23     9      180.000000        1.290762         4    ;  uncertainty k = 0.081503
        21        17        16        34     9        0.000000        0.342934         1    ;  uncertainty k = 0.373860
        21        17        16        34     9      180.000000        5.354928         2    ;  uncertainty k = 0.485141
        21        17        16        34     9        0.000000        1.087841         3    ;  uncertainty k = 0.378986
        21        17        16        34     9      180.000000        0.797974         4    ;  uncertainty k = 0.402940
        21        17        18        23     9        0.000000       -0.659676         1    ;  uncertainty k = 0.460472
        21        17        18        23     9      180.000000       12.144174         2    ;  uncertainty k = 0.841300
        21        17        18        23     9        0.000000       -4.283942         3    ;  uncertainty k = 1.446451
        21        17        18        23     9      180.000000        1.687803         4    ;  uncertainty k = 0.622086
        21        22        23        37     9        0.000000        0.394568         1    ;  uncertainty k = 0.561567
        21        22        23        37     9      180.000000       23.599244         2    ;  uncertainty k = 0.464675
        21        22        23        37     9        0.000000        1.546941         3    ;  uncertainty k = 0.837301
        21        22        23        37     9      180.000000        1.213590         4    ;  uncertainty k = 0.496747
        22        21        38        39     9        0.000000        1.241340         1    ;  uncertainty k = 0.428763
        22        21        38        39     9      180.000000       -1.156669         2    ;  uncertainty k = 0.159619
        22        21        38        39     9        0.000000        0.693824         3    ;  uncertainty k = 0.015623
        22        21        38        39     9      180.000000        0.226956         4    ;  uncertainty k = 0.044691
        22        21        38        40     9        0.000000        1.241340         1    ;  uncertainty k = 0.428763
        22        21        38        40     9      180.000000       -1.156669         2    ;  uncertainty k = 0.159619
        22        21        38        40     9        0.000000        0.693824         3    ;  uncertainty k = 0.015623
        22        21        38        40     9      180.000000        0.226956         4    ;  uncertainty k = 0.044691
        22        21        38        41     9        0.000000        1.241340         1    ;  uncertainty k = 0.428763
        22        21        38        41     9      180.000000       -1.156669         2    ;  uncertainty k = 0.159619
        22        21        38        41     9        0.000000        0.693824         3    ;  uncertainty k = 0.015623
        22        21        38        41     9      180.000000        0.226956         4    ;  uncertainty k = 0.044691
        23        18        19        35     9        0.000000        0.213940         1    ;  uncertainty k = 0.452656
        23        18        19        35     9      180.000000        5.651539         2    ;  uncertainty k = 0.535291
        23        18        19        35     9        0.000000        0.959726         3    ;  uncertainty k = 0.197850
        23        18        19        35     9      180.000000        0.533555         4    ;  uncertainty k = 0.252838
        23        22        21        38     9        0.000000        1.011975         1    ;  uncertainty k = 1.441564
        23        22        21        38     9      180.000000       12.502053         2    ;  uncertainty k = 0.293210
        23        22        21        38     9        0.000000        1.690156         3    ;  uncertainty k = 0.504142
        23        22        21        38     9      180.000000       -0.285400         4    ;  uncertainty k = 0.340519
        25         3         4        26     9        0.000000       -0.105139         1    ;  uncertainty k = 0.445868
        25         3         4        26     9      180.000000        8.058792         2    ;  uncertainty k = 0.272877
        25         3         4        26     9        0.000000       -0.175321         3    ;  uncertainty k = 0.177486
        25         3         4        26     9      180.000000        0.287040         4    ;  uncertainty k = 0.200176
        30        11        12        31     9        0.000000       -0.221553         1    ;  uncertainty k = 0.185359
        30        11        12        31     9      180.000000       -1.047189         2    ;  uncertainty k = 0.167691
        30        11        12        31     9        0.000000        0.476718         3    ;  uncertainty k = 0.065685
        30        11        12        31     9      180.000000        0.159229         4    ;  uncertainty k = 0.070112
        30        11        12        32     9        0.000000       -0.221554         1    ;  uncertainty k = 0.185359
        30        11        12        32     9      180.000000       -1.047190         2    ;  uncertainty k = 0.167691
        30        11        12        32     9        0.000000        0.476718         3    ;  uncertainty k = 0.065685
        30        11        12        32     9      180.000000        0.159229         4    ;  uncertainty k = 0.070112
        30        11        12        33     9        0.000000       -0.221554         1    ;  uncertainty k = 0.185359
        30        11        12        33     9      180.000000       -1.047190         2    ;  uncertainty k = 0.167691
        30        11        12        33     9        0.000000        0.476718         3    ;  uncertainty k = 0.065685
        30        11        12        33     9      180.000000        0.159229         4    ;  uncertainty k = 0.070112
        35        19        20        36     9        0.000000       -0.143986         1    ;  uncertainty k = 0.139697
        35        19        20        36     9      180.000000        8.243009         2    ;  uncertainty k = 0.290157
        35        19        20        36     9        0.000000       -0.149158         3    ;  uncertainty k = 0.302699
        35        19        20        36     9      180.000000        0.235490         4    ;  uncertainty k = 0.249153

[ dihedrals ] ; impropers
;       ai        aj        ak        al funct           phase               k        pn
         1         2         4        13     4      180.000000        6.582133         2    ;  uncertainty k = 0.207573
         1         4        13         2     4      180.000000        6.582133         2    ;  uncertainty k = 0.207573
         1        13         2         4     4      180.000000        6.582133         2    ;  uncertainty k = 0.207573
         2         1         6        24     4      180.000000        5.259542         2    ;  uncertainty k = 0.249666
         2         6        24         1     4      180.000000        5.259542         2    ;  uncertainty k = 0.249666
         2        24         1         6     4      180.000000        5.259542         2    ;  uncertainty k = 0.249666
         3         4         5        25     4      180.000000        2.311019         2    ;  uncertainty k = 0.299231
         3         5        25         4     4      180.000000        2.311019         2    ;  uncertainty k = 0.299231
         3        25         4         5     4      180.000000        2.311019         2    ;  uncertainty k = 0.299231
         4         1         3        26     4      180.000000        4.235064         2    ;  uncertainty k = 0.145743
         4         3        26         1     4      180.000000        4.235064         2    ;  uncertainty k = 0.145743
         4        26         1         3     4      180.000000        4.235064         2    ;  uncertainty k = 0.145743
         5         3         6         9     4      180.000000        1.603037         2    ;  uncertainty k = 0.899835
         5         6         9         3     4      180.000000        1.603037         2    ;  uncertainty k = 0.899835
         5         9         3         6     4      180.000000        1.603037         2    ;  uncertainty k = 0.899835
         7         6         8        10     4      180.000000        7.584597         2    ;  uncertainty k = 0.252511
         7         8        10         6     4      180.000000        7.584597         2    ;  uncertainty k = 0.252511
         7        10         6         8     4      180.000000        7.584597         2    ;  uncertainty k = 0.252511
        13         1        11        14     4      180.000000       51.366033         2    ;  uncertainty k = 0.016901
        13        11        14         1     4      180.000000       51.366033         2    ;  uncertainty k = 0.016901
        13        14         1        11     4      180.000000       51.366033         2    ;  uncertainty k = 0.016901
        15        10        16        20     4      180.000000       14.433683         2    ;  uncertainty k = 0.030570
        15        16        20        10     4      180.000000       14.433683         2    ;  uncertainty k = 0.030570
        15        20        10        16     4      180.000000       14.433683         2    ;  uncertainty k = 0.030570
        16        15        17        34     4      180.000000        3.135420         2    ;  uncertainty k = 0.423917
        16        17        34        15     4      180.000000        3.135420         2    ;  uncertainty k = 0.423917
        16        34        15        17     4      180.000000        3.135420         2    ;  uncertainty k = 0.423917
        17        16        18        21     4      180.000000        1.222164         2    ;  uncertainty k = 0.801516
        17        18        21        16     4      180.000000        1.222164         2    ;  uncertainty k = 0.801516
        17        21        16        18     4      180.000000        1.222164         2    ;  uncertainty k = 0.801516
        19        18        20        35     4      180.000000        4.930324         2    ;  uncertainty k = 0.068523
        19        20        35        18     4      180.000000        4.930324         2    ;  uncertainty k = 0.068523
        19        35        18        20     4      180.000000        4.930324         2    ;  uncertainty k = 0.068523
        20        15        19        36     4      180.000000        3.177271         2    ;  uncertainty k = 0.102707
        20        19        36        15     4      180.000000        3.177271         2    ;  uncertainty k = 0.102707
        20        36        15        19     4      180.000000        3.177271         2    ;  uncertainty k = 0.102707
        23        18        22        37     4      180.000000        1.249345         2    ;  uncertainty k = 0.355936
        23        22        37        18     4      180.000000        1.249345         2    ;  uncertainty k = 0.355936
        23        37        18        22     4      180.000000        1.249345         2    ;  uncertainty k = 0.355936

[ pairs ]
;       ai        aj funct
         1         5     1
         1         7     1
         1        12     1
         1        25     1
         1        30     1
         2         3     1
         2         8     1
         2         9     1
         2        10     1
         2        11     1
         2        14     1
         2        26     1
         3         7     1
         3         8     1
         3        13     1
         3        27     1
         4         6     1
         4         9     1
         4        11     1
         4        14     1
         4        24     1
         5        10     1
         5        24     1
         5        26     1
         6        13     1
         6        15     1
         6        25     1
         6        27     1
         6        28     1
         6        29     1
         7        16     1
         7        20     1
         7        24     1
         7        27     1
         8        15     1
         8        28     1
         8        29     1
         9        10     1
         9        25     1
        10        17     1
        10        19     1
        10        34     1
        10        36     1
        12        14     1
        13        24     1
        13        26     1
        13        31     1
        13        32     1
        13        33     1
        14        30     1
        15        18     1
        15        21     1
        15        35     1
        16        19     1
        16        22     1
        16        23     1
        16        28     1
        16        29     1
        16        36     1
        16        38     1
        17        20     1
        17        35     1
        17        37     1
        17        39     1
        17        40     1
        17        41     1
        18        34     1
        18        36     1
        18        38     1
        19        21     1
        19        22     1
        19        37     1
        20        23     1
        20        28     1
        20        29     1
        20        34     1
        21        34     1
        21        37     1
        22        39     1
        22        40     1
        22        41     1
        23        35     1
        23        38     1
        25        26     1
        30        31     1
        30        32     1
        30        33     1
        35        36     1
