; ITP file created by ByteFF-joint-25, 2026-02-17 09:05:36.044095

[ atomtypes ]
;name           bonded.type        at.num        mass        charge   ptype           sigma         epsilon
 c0bf                                   6      0.0000       0.00000       A     3.31521e-01     4.13400e-01    ;  uncertainty sigma = 0.000017, epsilon = 0.000777
 c1bf                                   6      0.0000       0.00000       A     3.31525e-01     4.13189e-01    ;  uncertainty sigma = 0.000007, epsilon = 0.000427
 c2bf                                   6      0.0000       0.00000       A     3.31520e-01     4.13315e-01    ;  uncertainty sigma = 0.000006, epsilon = 0.000869
 c3bf                                   6      0.0000       0.00000       A     3.31525e-01     4.13545e-01    ;  uncertainty sigma = 0.000005, epsilon = 0.000538
 c4bf                                   6      0.0000       0.00000       A     3.31513e-01     4.13127e-01    ;  uncertainty sigma = 0.000006, epsilon = 0.000908
 c5bf                                   6      0.0000       0.00000       A     3.31532e-01     4.13349e-01    ;  uncertainty sigma = 0.000008, epsilon = 0.000623
 c6bf                                   6      0.0000       0.00000       A     3.31510e-01     4.13714e-01    ;  uncertainty sigma = 0.000012, epsilon = 0.000569
 n7bf                                   7      0.0000       0.00000       A     3.38378e-01     3.93289e-01    ;  uncertainty sigma = 0.000011, epsilon = 0.000859
 n8bf                                   7      0.0000       0.00000       A     3.20594e-01     8.54239e-01    ;  uncertainty sigma = 0.000008, epsilon = 0.000871
 c9bf                                   6      0.0000       0.00000       A     3.39770e-01     4.50660e-01    ;  uncertainty sigma = 0.000014, epsilon = 0.000901
 n10bf                                  7      0.0000       0.00000       A     3.26997e-01     4.90178e-01    ;  uncertainty sigma = 0.000021, epsilon = 0.001667
 c11bf                                  6      0.0000       0.00000       A     3.39778e-01     4.51149e-01    ;  uncertainty sigma = 0.000008, epsilon = 0.000607
 c12bf                                  6      0.0000       0.00000       A     3.31547e-01     4.13028e-01    ;  uncertainty sigma = 0.000011, epsilon = 0.000504
 o13bf                                  8      0.0000       0.00000       A     3.04817e-01     6.12265e-01    ;  uncertainty sigma = 0.000016, epsilon = 0.001487
 c14bf                                  6      0.0000       0.00000       A     3.31538e-01     4.13216e-01    ;  uncertainty sigma = 0.000005, epsilon = 0.000759
 c15bf                                  6      0.0000       0.00000       A     3.31521e-01     4.13352e-01    ;  uncertainty sigma = 0.000011, epsilon = 0.001038
 c16bf                                  6      0.0000       0.00000       A     3.31501e-01     4.13562e-01    ;  uncertainty sigma = 0.000007, epsilon = 0.000822
 c17bf                                  6      0.0000       0.00000       A     3.31511e-01     4.13323e-01    ;  uncertainty sigma = 0.000004, epsilon = 0.000386
 c18bf                                  6      0.0000       0.00000       A     3.31515e-01     4.13243e-01    ;  uncertainty sigma = 0.000008, epsilon = 0.000423
 c19bf                                  6      0.0000       0.00000       A     3.31521e-01     4.13491e-01    ;  uncertainty sigma = 0.000007, epsilon = 0.000445
 c20bf                                  6      0.0000       0.00000       A     3.31515e-01     4.13245e-01    ;  uncertainty sigma = 0.000006, epsilon = 0.000305
 n21bf                                  7      0.0000       0.00000       A     3.38405e-01     3.93634e-01    ;  uncertainty sigma = 0.000008, epsilon = 0.000679
 n22bf                                  7      0.0000       0.00000       A     3.20609e-01     8.54245e-01    ;  uncertainty sigma = 0.000014, epsilon = 0.001618
 c23bf                                  6      0.0000       0.00000       A     3.39777e-01     4.51192e-01    ;  uncertainty sigma = 0.000009, epsilon = 0.000493
 h24bf                                  1      0.0000       0.00000       A     2.62573e-01     6.70552e-02    ;  uncertainty sigma = 0.000013, epsilon = 0.000866
 h25bf                                  1      0.0000       0.00000       A     2.62571e-01     6.70414e-02    ;  uncertainty sigma = 0.000009, epsilon = 0.000485
 h26bf                                  1      0.0000       0.00000       A     2.62555e-01     6.71833e-02    ;  uncertainty sigma = 0.000010, epsilon = 0.000661
 h27bf                                  1      0.0000       0.00000       A     1.10648e-01     4.14022e-02    ;  uncertainty sigma = 0.000065, epsilon = 0.000771
 h28bf                                  1      0.0000       0.00000       A     2.60077e-01     8.67671e-02    ;  uncertainty sigma = 0.000031, epsilon = 0.000769
 h29bf                                  1      0.0000       0.00000       A     2.60077e-01     8.67671e-02    ;  uncertainty sigma = 0.000031, epsilon = 0.000769
 h30bf                                  1      0.0000       0.00000       A     1.10718e-01     4.14284e-02    ;  uncertainty sigma = 0.000071, epsilon = 0.000519
 h31bf                                  1      0.0000       0.00000       A     2.42204e-01     8.66943e-02    ;  uncertainty sigma = 0.000014, epsilon = 0.000595
 h32bf                                  1      0.0000       0.00000       A     2.42204e-01     8.66943e-02    ;  uncertainty sigma = 0.000014, epsilon = 0.000595
 h33bf                                  1      0.0000       0.00000       A     2.42204e-01     8.66943e-02    ;  uncertainty sigma = 0.000014, epsilon = 0.000595
 h34bf                                  1      0.0000       0.00000       A     2.62573e-01     6.70513e-02    ;  uncertainty sigma = 0.000012, epsilon = 0.000419
 h35bf                                  1      0.0000       0.00000       A     2.62570e-01     6.70811e-02    ;  uncertainty sigma = 0.000008, epsilon = 0.000545
 h36bf                                  1      0.0000       0.00000       A     2.62560e-01     6.70766e-02    ;  uncertainty sigma = 0.000008, epsilon = 0.000661
 h37bf                                  1      0.0000       0.00000       A     2.53650e-01     6.72969e-02    ;  uncertainty sigma = 0.000027, epsilon = 0.000384
 h38bf                                  1      0.0000       0.00000       A     2.42200e-01     8.67756e-02    ;  uncertainty sigma = 0.000018, epsilon = 0.000504
 h39bf                                  1      0.0000       0.00000       A     2.42200e-01     8.67756e-02    ;  uncertainty sigma = 0.000018, epsilon = 0.000504
 h40bf                                  1      0.0000       0.00000       A     2.42200e-01     8.67756e-02    ;  uncertainty sigma = 0.000018, epsilon = 0.000504

[ moleculetype ]
;name             nrexcl
 MOL                   3

[ atoms ]
;       nr            type      resi   res      atom      cgnr      charge          mass ; qtot
         1            c0bf         1   UNL        c0         1    -0.19453       12.0110 ; qtot   -0.195
         2            c1bf         1   UNL        c1         2    -0.00272       12.0110 ; qtot   -0.197
         3            c2bf         1   UNL        c2         3    -0.16064       12.0110 ; qtot   -0.358
         4            c3bf         1   UNL        c3         4    -0.05982       12.0110 ; qtot   -0.418
         5            c4bf         1   UNL        c4         5    -0.00020       12.0110 ; qtot   -0.418
         6            c5bf         1   UNL        c5         6    -0.23560       12.0110 ; qtot   -0.654
         7            c6bf         1   UNL        c6         7     0.37247       12.0110 ; qtot   -0.281
         8            n7bf         1   UNL        n7         8    -0.50882       14.0070 ; qtot   -0.790
         9            n8bf         1   UNL        n8         9    -0.03606       14.0070 ; qtot   -0.826
        10            c9bf         1   UNL        c9        10    -0.04285       12.0110 ; qtot   -0.869
        11           n10bf         1   UNL       n10        11    -0.57186       14.0070 ; qtot   -1.441
        12           c11bf         1   UNL       c11        12     0.08587       12.0110 ; qtot   -1.355
        13           c12bf         1   UNL       c12        13     0.67187       12.0110 ; qtot   -0.683
        14           o13bf         1   UNL       o13        14    -0.59715       15.9990 ; qtot   -1.280
        15           c14bf         1   UNL       c14        15    -0.12484       12.0110 ; qtot   -1.405
        16           c15bf         1   UNL       c15        16    -0.04511       12.0110 ; qtot   -1.450
        17           c16bf         1   UNL       c16        17    -0.23109       12.0110 ; qtot   -1.681
        18           c17bf         1   UNL       c17        18    -0.02934       12.0110 ; qtot   -1.710
        19           c18bf         1   UNL       c18        19    -0.15075       12.0110 ; qtot   -1.861
        20           c19bf         1   UNL       c19        20    -0.08408       12.0110 ; qtot   -1.945
        21           c20bf         1   UNL       c20        21     0.35572       12.0110 ; qtot   -1.590
        22           n21bf         1   UNL       n21        22    -0.51263       14.0070 ; qtot   -2.102
        23           n22bf         1   UNL       n22        23     0.08156       14.0070 ; qtot   -2.021
        24           c23bf         1   UNL       c23        24     0.05157       12.0110 ; qtot   -1.969
        25           h24bf         1   UNL       h24        25     0.15229        1.0080 ; qtot   -1.817
        26           h25bf         1   UNL       h25        26     0.14424        1.0080 ; qtot   -1.673
        27           h26bf         1   UNL       h26        27     0.14618        1.0080 ; qtot   -1.526
        28           h27bf         1   UNL       h27        28     0.32635        1.0080 ; qtot   -1.200
        29           h28bf         1   UNL       h28        29     0.06237        1.0080 ; qtot   -1.138
        30           h29bf         1   UNL       h29        30     0.06237        1.0080 ; qtot   -1.075
        31           h30bf         1   UNL       h30        31     0.31152        1.0080 ; qtot   -0.764
        32           h31bf         1   UNL       h31        32     0.04389        1.0080 ; qtot   -0.720
        33           h32bf         1   UNL       h32        33     0.04389        1.0080 ; qtot   -0.676
        34           h33bf         1   UNL       h33        34     0.04389        1.0080 ; qtot   -0.632
        35           h34bf         1   UNL       h34        35     0.14114        1.0080 ; qtot   -0.491
        36           h35bf         1   UNL       h35        36     0.13808        1.0080 ; qtot   -0.353
        37           h36bf         1   UNL       h36        37     0.13508        1.0080 ; qtot   -0.218
        38           h37bf         1   UNL       h37        38     0.04907        1.0080 ; qtot   -0.169
        39           h38bf         1   UNL       h38        39     0.05623        1.0080 ; qtot   -0.112
        40           h39bf         1   UNL       h39        40     0.05623        1.0080 ; qtot   -0.056
        41           h40bf         1   UNL       h40        41     0.05621        1.0080 ; qtot   -0.000

[ bonds ]
;       ai        aj funct               r               k
         1         2     1        0.139237   359863.965576    ;  uncertainty r = 0.000118, k = 5.351341
         1         4     1        0.142239   330579.668457    ;  uncertainty r = 0.000083, k = 6.044291
         1        13     1        0.149821   241928.410449    ;  uncertainty r = 0.000056, k = 14.263391
         2         6     1        0.140049   363534.184473    ;  uncertainty r = 0.000073, k = 8.434576
         2        25     1        0.108710   333227.636865    ;  uncertainty r = 0.000045, k = 1.998599
         3         4     1        0.138479   368113.601074    ;  uncertainty r = 0.000041, k = 6.277183
         3         5     1        0.140256   361253.950439    ;  uncertainty r = 0.000049, k = 6.439366
         3        26     1        0.108847   335419.103906    ;  uncertainty r = 0.000007, k = 1.624567
         4        27     1        0.108679   333211.216504    ;  uncertainty r = 0.000025, k = 2.170996
         5         6     1        0.141755   401797.354785    ;  uncertainty r = 0.000066, k = 8.070514
         5         9     1        0.137355   299898.542529    ;  uncertainty r = 0.000054, k = 10.387935
         6         7     1        0.144237   227699.975830    ;  uncertainty r = 0.000104, k = 6.989674
         7         8     1        0.132794   464042.935254    ;  uncertainty r = 0.000108, k = 8.320606
         7        10     1        0.150186   236656.759424    ;  uncertainty r = 0.000066, k = 3.903695
         8         9     1        0.136819   297875.211816    ;  uncertainty r = 0.000034, k = 11.449749
         9        28     1        0.101020   416476.391699    ;  uncertainty r = 0.000031, k = 2.687214
        10        15     1        0.151852   234345.293506    ;  uncertainty r = 0.000055, k = 5.924888
        10        29     1        0.109655   309009.033984    ;  uncertainty r = 0.000022, k = 1.344390
        10        30     1        0.109655   309009.033984    ;  uncertainty r = 0.000022, k = 1.344390
        11        12     1        0.145747   274952.132031    ;  uncertainty r = 0.000051, k = 10.288066
        11        13     1        0.137394   291706.467676    ;  uncertainty r = 0.000107, k = 27.972621
        11        31     1        0.101152   415695.671191    ;  uncertainty r = 0.000042, k = 3.688403
        12        32     1        0.109421   314460.440723    ;  uncertainty r = 0.000003, k = 2.156538
        12        33     1        0.109421   314460.440723    ;  uncertainty r = 0.000003, k = 2.156538
        12        34     1        0.109421   314460.440723    ;  uncertainty r = 0.000003, k = 2.156538
        13        14     1        0.123557   783157.258789    ;  uncertainty r = 0.000026, k = 5.445684
        15        16     1        0.138878   355681.753174    ;  uncertainty r = 0.000078, k = 4.999731
        15        20     1        0.141853   329614.621094    ;  uncertainty r = 0.000053, k = 3.742452
        16        17     1        0.140610   362340.809814    ;  uncertainty r = 0.000048, k = 2.617311
        16        35     1        0.108865   333059.730371    ;  uncertainty r = 0.000031, k = 0.836923
        17        18     1        0.141822   408951.218457    ;  uncertainty r = 0.000074, k = 10.080650
        17        21     1        0.143279   239541.712207    ;  uncertainty r = 0.000047, k = 17.246369
        18        19     1        0.140312   358538.232080    ;  uncertainty r = 0.000024, k = 4.438997
        18        23     1        0.137029   268521.581445    ;  uncertainty r = 0.000070, k = 6.075978
        19        20     1        0.138774   365693.500293    ;  uncertainty r = 0.000069, k = 5.039263
        19        36     1        0.108813   336980.595996    ;  uncertainty r = 0.000030, k = 1.562399
        20        37     1        0.108844   334144.010498    ;  uncertainty r = 0.000020, k = 1.114908
        21        22     1        0.132586   472090.955273    ;  uncertainty r = 0.000019, k = 5.450469
        21        38     1        0.108414   339507.237598    ;  uncertainty r = 0.000020, k = 3.182844
        22        23     1        0.136613   279811.409814    ;  uncertainty r = 0.000032, k = 6.120895
        23        24     1        0.144822   254675.667187    ;  uncertainty r = 0.000011, k = 6.797019
        24        39     1        0.109372   311001.796777    ;  uncertainty r = 0.000009, k = 1.495172
        24        40     1        0.109372   311001.796777    ;  uncertainty r = 0.000009, k = 1.495172
        24        41     1        0.109372   311001.796777    ;  uncertainty r = 0.000009, k = 1.495172

[ angles ]
;       ai        aj        ak funct           theta             cth
         1         2         6     1      119.776108      552.645009    ;  uncertainty theta = 0.004852, k = 0.150328
         1         2        25     1      119.290024      269.283711    ;  uncertainty theta = 0.003574, k = 0.102631
         1         4         3     1      124.422043      528.718110    ;  uncertainty theta = 0.003508, k = 0.084816
         1         4        27     1      118.099083      271.019596    ;  uncertainty theta = 0.004016, k = 0.016276
         1        13        11     1      115.524948      456.318936    ;  uncertainty theta = 0.002929, k = 0.084964
         1        13        14     1      124.173317      521.936284    ;  uncertainty theta = 0.003655, k = 0.130633
         2         1         4     1      123.832458      467.644740    ;  uncertainty theta = 0.002092, k = 0.124991
         2         1        13     1      118.832520      336.319740    ;  uncertainty theta = 0.002498, k = 0.285073
         2         6         5     1      118.330849      399.327163    ;  uncertainty theta = 0.004069, k = 0.206543
         2         6         7     1      130.920685      342.180507    ;  uncertainty theta = 0.005409, k = 0.247357
         3         4        27     1      118.731369      285.901729    ;  uncertainty theta = 0.002284, k = 0.044639
         3         5         6     1      120.150856      384.411480    ;  uncertainty theta = 0.004787, k = 0.117462
         3         5         9     1      130.191513      397.568263    ;  uncertainty theta = 0.003272, k = 0.102030
         4         1        13     1      118.631042      344.901646    ;  uncertainty theta = 0.002886, k = 0.287094
         4         3         5     1      116.920395      527.290554    ;  uncertainty theta = 0.003908, k = 0.099179
         4         3        26     1      121.351547      280.972493    ;  uncertainty theta = 0.001883, k = 0.020745
         5         3        26     1      122.764755      290.284408    ;  uncertainty theta = 0.001693, k = 0.104531
         5         6         7     1      103.985596      709.447712    ;  uncertainty theta = 0.004830, k = 0.146954
         5         9         8     1      108.842224      996.723721    ;  uncertainty theta = 0.004081, k = 0.105419
         5         9        28     1      115.986206      285.859753    ;  uncertainty theta = 0.007695, k = 0.071788
         6         2        25     1      121.162277      289.846702    ;  uncertainty theta = 0.003858, k = 0.088926
         6         5         9     1      105.282448      701.291224    ;  uncertainty theta = 0.002660, k = 0.063345
         6         7         8     1      112.644714      860.153814    ;  uncertainty theta = 0.001655, k = 0.087754
         6         7        10     1      127.273109      339.164893    ;  uncertainty theta = 0.004389, k = 0.133920
         7         8         9     1      109.341934      911.155252    ;  uncertainty theta = 0.003499, k = 0.133312
         7        10        15     1      111.392555      536.308792    ;  uncertainty theta = 0.002460, k = 0.088519
         7        10        29     1      107.143959      404.578742    ;  uncertainty theta = 0.002686, k = 0.090739
         7        10        30     1      107.143959      404.578742    ;  uncertainty theta = 0.002686, k = 0.090739
         8         7        10     1      121.567871      407.510402    ;  uncertainty theta = 0.004731, k = 0.115348
         8         9        28     1      108.270935      348.057521    ;  uncertainty theta = 0.007607, k = 0.026261
        10        15        16     1      120.627419      417.702645    ;  uncertainty theta = 0.002664, k = 0.132336
        10        15        20     1      120.019066      426.041405    ;  uncertainty theta = 0.001582, k = 0.065678
        11        12        32     1      109.114990      463.321116    ;  uncertainty theta = 0.002020, k = 0.049188
        11        12        33     1      109.114990      463.321116    ;  uncertainty theta = 0.002020, k = 0.049188
        11        12        34     1      109.114990      463.321116    ;  uncertainty theta = 0.002020, k = 0.049188
        11        13        14     1      123.145607      774.394008    ;  uncertainty theta = 0.002863, k = 0.065807
        12        11        13     1      117.202759      444.572983    ;  uncertainty theta = 0.004194, k = 0.144387
        12        11        31     1      113.289574      324.789129    ;  uncertainty theta = 0.001730, k = 0.149038
        13        11        31     1      115.483727      336.899688    ;  uncertainty theta = 0.002435, k = 0.202507
        15        10        29     1      107.888550      399.523926    ;  uncertainty theta = 0.002530, k = 0.043709
        15        10        30     1      107.888550      399.523926    ;  uncertainty theta = 0.002530, k = 0.043709
        15        16        17     1      119.289772      558.193712    ;  uncertainty theta = 0.003219, k = 0.122129
        15        16        35     1      119.584335      269.982630    ;  uncertainty theta = 0.002413, k = 0.116556
        15        20        19     1      123.962013      512.155858    ;  uncertainty theta = 0.003468, k = 0.054940
        15        20        37     1      118.398865      272.960544    ;  uncertainty theta = 0.001458, k = 0.038725
        16        15        20     1      121.663498      462.508015    ;  uncertainty theta = 0.001823, k = 0.105066
        16        17        18     1      118.102539      400.506754    ;  uncertainty theta = 0.004595, k = 0.180009
        16        17        21     1      132.179718      359.717319    ;  uncertainty theta = 0.006200, k = 0.128760
        17        16        35     1      121.214096      298.179046    ;  uncertainty theta = 0.003395, k = 0.061731
        17        18        19     1      120.913010      374.999108    ;  uncertainty theta = 0.004884, k = 0.054475
        17        18        23     1      106.404091      697.540269    ;  uncertainty theta = 0.004689, k = 0.150231
        17        21        22     1      111.952271      924.544486    ;  uncertainty theta = 0.003164, k = 0.105680
        17        21        38     1      126.710922      247.103917    ;  uncertainty theta = 0.002209, k = 0.157386
        18        17        21     1      103.710167      705.662985    ;  uncertainty theta = 0.004424, k = 0.082111
        18        19        20     1      117.165916      531.174876    ;  uncertainty theta = 0.004124, k = 0.097049
        18        19        36     1      122.596191      288.134279    ;  uncertainty theta = 0.002016, k = 0.124041
        18        23        22     1      109.755417      962.555644    ;  uncertainty theta = 0.004363, k = 0.117872
        18        23        24     1      121.588524      397.546333    ;  uncertainty theta = 0.004284, k = 0.038130
        19        18        23     1      128.426102      374.228653    ;  uncertainty theta = 0.002264, k = 0.126874
        19        20        37     1      118.810913      287.863171    ;  uncertainty theta = 0.002838, k = 0.040854
        20        19        36     1      121.119118      280.780198    ;  uncertainty theta = 0.001843, k = 0.055624
        21        22        23     1      109.082703      918.912851    ;  uncertainty theta = 0.002451, k = 0.089301
        22        21        38     1      118.620117      291.417937    ;  uncertainty theta = 0.003326, k = 0.060507
        22        23        24     1      115.846252      451.680057    ;  uncertainty theta = 0.003722, k = 0.096729
        23        24        39     1      108.738235      473.260446    ;  uncertainty theta = 0.001513, k = 0.071563
        23        24        40     1      108.738235      473.260446    ;  uncertainty theta = 0.001513, k = 0.071563
        23        24        41     1      108.738235      473.260446    ;  uncertainty theta = 0.001513, k = 0.071563
        29        10        30     1      104.231224      312.600330    ;  uncertainty theta = 0.003830, k = 0.046404
        32        12        33     1      107.012878      321.487787    ;  uncertainty theta = 0.002661, k = 0.021792
        32        12        34     1      107.012878      321.487787    ;  uncertainty theta = 0.002661, k = 0.021792
        33        12        34     1      107.012878      321.487787    ;  uncertainty theta = 0.002661, k = 0.021792
        39        24        40     1      107.639565      320.364250    ;  uncertainty theta = 0.001662, k = 0.012143
        39        24        41     1      107.639565      320.364250    ;  uncertainty theta = 0.001662, k = 0.012143
        40        24        41     1      107.639565      320.364250    ;  uncertainty theta = 0.001662, k = 0.012143

[ dihedrals ] ; propers for gromacs 4.5 or higher, use funct 9
;       ai        aj        ak        al funct           phase               k        pn
         1         2         6         5     9        0.000000        0.125629         1    ;  uncertainty k = 0.380702
         1         2         6         5     9      180.000000       12.978592         2    ;  uncertainty k = 0.149323
         1         2         6         5     9        0.000000       -1.383969         3    ;  uncertainty k = 0.396103
         1         2         6         5     9      180.000000        0.797353         4    ;  uncertainty k = 0.202247
         1         2         6         7     9        0.000000        0.323810         1    ;  uncertainty k = 0.240214
         1         2         6         7     9      180.000000        8.108288         2    ;  uncertainty k = 0.383483
         1         2         6         7     9        0.000000        0.680840         3    ;  uncertainty k = 0.287623
         1         2         6         7     9      180.000000        1.236144         4    ;  uncertainty k = 0.134057
         1         4         3         5     9        0.000000        0.015030         1    ;  uncertainty k = 0.249477
         1         4         3         5     9      180.000000       16.540588         2    ;  uncertainty k = 0.211968
         1         4         3         5     9        0.000000       -0.194290         3    ;  uncertainty k = 0.497198
         1         4         3         5     9      180.000000        0.712331         4    ;  uncertainty k = 0.233284
         1         4         3        26     9        0.000000       -0.051117         1    ;  uncertainty k = 0.111938
         1         4         3        26     9      180.000000        9.754084         2    ;  uncertainty k = 0.656956
         1         4         3        26     9        0.000000        1.467636         3    ;  uncertainty k = 0.282914
         1         4         3        26     9      180.000000        1.830497         4    ;  uncertainty k = 0.313692
         1        13        11        12     9        0.000000        4.789197         1    ;  uncertainty k = 1.027114
         1        13        11        12     9      180.000000       12.705005         2    ;  uncertainty k = 0.239269
         1        13        11        12     9        0.000000        2.293218         3    ;  uncertainty k = 0.393456
         1        13        11        12     9      180.000000       -1.124949         4    ;  uncertainty k = 0.303384
         1        13        11        31     9        0.000000       -0.356362         1    ;  uncertainty k = 0.600602
         1        13        11        31     9      180.000000        7.718152         2    ;  uncertainty k = 0.676150
         1        13        11        31     9        0.000000        2.790951         3    ;  uncertainty k = 0.266286
         1        13        11        31     9      180.000000        0.051428         4    ;  uncertainty k = 0.420873
         2         1         4         3     9        0.000000       -0.051700         1    ;  uncertainty k = 0.203688
         2         1         4         3     9      180.000000        9.075687         2    ;  uncertainty k = 0.283250
         2         1         4         3     9        0.000000       -0.407673         3    ;  uncertainty k = 0.418648
         2         1         4         3     9      180.000000        1.128606         4    ;  uncertainty k = 0.223801
         2         1         4        27     9        0.000000        0.164836         1    ;  uncertainty k = 0.445056
         2         1         4        27     9      180.000000        6.464031         2    ;  uncertainty k = 0.432359
         2         1         4        27     9        0.000000        1.202892         3    ;  uncertainty k = 0.233746
         2         1         4        27     9      180.000000        1.549374         4    ;  uncertainty k = 0.224959
         2         1        13        11     9        0.000000       -0.152519         1    ;  uncertainty k = 0.249884
         2         1        13        11     9      180.000000        3.228438         2    ;  uncertainty k = 0.418593
         2         1        13        11     9        0.000000        0.314315         3    ;  uncertainty k = 0.208477
         2         1        13        11     9      180.000000       -0.121830         4    ;  uncertainty k = 0.079914
         2         1        13        14     9        0.000000       -0.165631         1    ;  uncertainty k = 0.601664
         2         1        13        14     9      180.000000        3.962067         2    ;  uncertainty k = 0.318736
         2         1        13        14     9        0.000000        0.331259         3    ;  uncertainty k = 0.292059
         2         1        13        14     9      180.000000       -0.059821         4    ;  uncertainty k = 0.139751
         2         6         5         3     9        0.000000       -0.385848         1    ;  uncertainty k = 0.436994
         2         6         5         3     9      180.000000        7.256451         2    ;  uncertainty k = 0.637048
         2         6         5         3     9        0.000000        0.262184         3    ;  uncertainty k = 0.227290
         2         6         5         3     9      180.000000        1.036594         4    ;  uncertainty k = 0.348675
         2         6         5         9     9        0.000000        0.074882         1    ;  uncertainty k = 0.653599
         2         6         5         9     9      180.000000        8.149280         2    ;  uncertainty k = 0.323861
         2         6         5         9     9        0.000000       -0.086823         3    ;  uncertainty k = 0.474800
         2         6         5         9     9      180.000000        1.262771         4    ;  uncertainty k = 0.353640
         2         6         7         8     9        0.000000        0.896066         1    ;  uncertainty k = 0.412983
         2         6         7         8     9      180.000000        6.188356         2    ;  uncertainty k = 0.301027
         2         6         7         8     9        0.000000        0.262226         3    ;  uncertainty k = 0.705506
         2         6         7         8     9      180.000000        0.845678         4    ;  uncertainty k = 0.115332
         2         6         7        10     9        0.000000       -0.664067         1    ;  uncertainty k = 1.022666
         2         6         7        10     9      180.000000        3.897293         2    ;  uncertainty k = 0.753897
         2         6         7        10     9        0.000000        1.359915         3    ;  uncertainty k = 0.282570
         2         6         7        10     9      180.000000        0.100590         4    ;  uncertainty k = 0.195190
         3         4         1        13     9        0.000000        0.114262         1    ;  uncertainty k = 0.338054
         3         4         1        13     9      180.000000        7.926098         2    ;  uncertainty k = 0.808325
         3         4         1        13     9        0.000000        1.514005         3    ;  uncertainty k = 0.300788
         3         4         1        13     9      180.000000        1.801910         4    ;  uncertainty k = 0.241800
         3         5         6         7     9        0.000000        0.039996         1    ;  uncertainty k = 0.451276
         3         5         6         7     9      180.000000        6.752216         2    ;  uncertainty k = 0.301293
         3         5         6         7     9        0.000000        0.183868         3    ;  uncertainty k = 0.444563
         3         5         6         7     9      180.000000        1.332176         4    ;  uncertainty k = 0.335394
         3         5         9         8     9        0.000000        0.851830         1    ;  uncertainty k = 1.080926
         3         5         9         8     9      180.000000        6.976261         2    ;  uncertainty k = 0.620103
         3         5         9         8     9        0.000000        0.547844         3    ;  uncertainty k = 0.692413
         3         5         9         8     9      180.000000        0.355562         4    ;  uncertainty k = 0.199816
         3         5         9        28     9        0.000000        1.678012         1    ;  uncertainty k = 1.047142
         3         5         9        28     9      180.000000        1.771471         2    ;  uncertainty k = 0.514806
         3         5         9        28     9        0.000000        1.346547         3    ;  uncertainty k = 0.533570
         3         5         9        28     9      180.000000        0.077494         4    ;  uncertainty k = 0.144083
         4         1         2         6     9        0.000000        0.042147         1    ;  uncertainty k = 0.418382
         4         1         2         6     9      180.000000       12.669048         2    ;  uncertainty k = 0.529104
         4         1         2         6     9        0.000000       -0.009662         3    ;  uncertainty k = 0.329780
         4         1         2         6     9      180.000000        1.108792         4    ;  uncertainty k = 0.394226
         4         1         2        25     9        0.000000        0.287836         1    ;  uncertainty k = 0.228123
         4         1         2        25     9      180.000000        8.055955         2    ;  uncertainty k = 0.369446
         4         1         2        25     9        0.000000        1.344577         3    ;  uncertainty k = 0.264675
         4         1         2        25     9      180.000000        1.719184         4    ;  uncertainty k = 0.287017
         4         1        13        11     9        0.000000        0.489271         1    ;  uncertainty k = 0.723554
         4         1        13        11     9      180.000000        3.331824         2    ;  uncertainty k = 0.333521
         4         1        13        11     9        0.000000        0.273230         3    ;  uncertainty k = 0.158705
         4         1        13        11     9      180.000000       -0.098128         4    ;  uncertainty k = 0.064913
         4         1        13        14     9        0.000000       -1.086296         1    ;  uncertainty k = 0.504309
         4         1        13        14     9      180.000000        3.795462         2    ;  uncertainty k = 0.347490
         4         1        13        14     9        0.000000        0.331862         3    ;  uncertainty k = 0.214277
         4         1        13        14     9      180.000000       -0.045720         4    ;  uncertainty k = 0.133443
         4         3         5         6     9        0.000000       -0.025107         1    ;  uncertainty k = 0.336935
         4         3         5         6     9      180.000000       12.168993         2    ;  uncertainty k = 0.165669
         4         3         5         6     9        0.000000       -1.429431         3    ;  uncertainty k = 0.448611
         4         3         5         6     9      180.000000        0.799135         4    ;  uncertainty k = 0.241618
         4         3         5         9     9        0.000000        0.101858         1    ;  uncertainty k = 0.318131
         4         3         5         9     9      180.000000       10.102838         2    ;  uncertainty k = 0.688442
         4         3         5         9     9        0.000000        0.789241         3    ;  uncertainty k = 0.243893
         4         3         5         9     9      180.000000        1.172140         4    ;  uncertainty k = 0.258288
         5         3         4        27     9        0.000000       -0.019785         1    ;  uncertainty k = 0.212714
         5         3         4        27     9      180.000000       11.549214         2    ;  uncertainty k = 0.356726
         5         3         4        27     9        0.000000        1.447938         3    ;  uncertainty k = 0.240285
         5         3         4        27     9      180.000000        1.566970         4    ;  uncertainty k = 0.280846
         5         6         2        25     9        0.000000       -0.001909         1    ;  uncertainty k = 0.461487
         5         6         2        25     9      180.000000        7.599205         2    ;  uncertainty k = 1.060636
         5         6         2        25     9        0.000000        1.279131         3    ;  uncertainty k = 0.283649
         5         6         2        25     9      180.000000        1.183489         4    ;  uncertainty k = 0.364227
         5         6         7         8     9        0.000000        0.518820         1    ;  uncertainty k = 0.580107
         5         6         7         8     9      180.000000       13.282786         2    ;  uncertainty k = 1.212638
         5         6         7         8     9        0.000000      -10.889082         3    ;  uncertainty k = 2.077761
         5         6         7         8     9      180.000000        2.084226         4    ;  uncertainty k = 0.616582
         5         6         7        10     9        0.000000        1.359662         1    ;  uncertainty k = 1.068636
         5         6         7        10     9      180.000000        8.402250         2    ;  uncertainty k = 0.556821
         5         6         7        10     9        0.000000        1.839412         3    ;  uncertainty k = 0.818421
         5         6         7        10     9      180.000000        0.292965         4    ;  uncertainty k = 0.327236
         5         9         8         7     9        0.000000       -0.735377         1    ;  uncertainty k = 0.955210
         5         9         8         7     9      180.000000       16.921826         2    ;  uncertainty k = 0.597359
         5         9         8         7     9        0.000000       -4.758182         3    ;  uncertainty k = 1.060596
         5         9         8         7     9      180.000000        1.042894         4    ;  uncertainty k = 0.541181
         6         2         1        13     9        0.000000       -0.059124         1    ;  uncertainty k = 0.382247
         6         2         1        13     9      180.000000       11.769283         2    ;  uncertainty k = 0.474793
         6         2         1        13     9        0.000000        1.558961         3    ;  uncertainty k = 0.136213
         6         2         1        13     9      180.000000        1.697066         4    ;  uncertainty k = 0.270914
         6         5         3        26     9        0.000000       -0.082808         1    ;  uncertainty k = 0.407511
         6         5         3        26     9      180.000000        6.515957         2    ;  uncertainty k = 1.128197
         6         5         3        26     9        0.000000        1.284129         3    ;  uncertainty k = 0.182900
         6         5         3        26     9      180.000000        1.092300         4    ;  uncertainty k = 0.490060
         6         5         9         8     9        0.000000        0.199563         1    ;  uncertainty k = 0.535624
         6         5         9         8     9      180.000000       17.318015         2    ;  uncertainty k = 1.037583
         6         5         9         8     9        0.000000       -8.693972         3    ;  uncertainty k = 1.678250
         6         5         9         8     9      180.000000        0.786245         4    ;  uncertainty k = 0.551361
         6         5         9        28     9        0.000000        4.181896         1    ;  uncertainty k = 2.136596
         6         5         9        28     9      180.000000        6.077364         2    ;  uncertainty k = 1.359048
         6         5         9        28     9        0.000000        1.446964         3    ;  uncertainty k = 0.313495
         6         5         9        28     9      180.000000       -0.008295         4    ;  uncertainty k = 0.147352
         6         7         8         9     9        0.000000       -0.385330         1    ;  uncertainty k = 0.587424
         6         7         8         9     9      180.000000       24.985502         2    ;  uncertainty k = 0.242385
         6         7         8         9     9        0.000000       -4.376738         3    ;  uncertainty k = 0.974230
         6         7         8         9     9      180.000000        1.986604         4    ;  uncertainty k = 0.353560
         6         7        10        15     9        0.000000       -0.217828         1    ;  uncertainty k = 0.602154
         6         7        10        15     9      180.000000        1.003072         2    ;  uncertainty k = 0.474050
         6         7        10        15     9        0.000000        1.014277         3    ;  uncertainty k = 0.207557
         6         7        10        15     9      180.000000        0.175850         4    ;  uncertainty k = 0.142061
         6         7        10        29     9        0.000000       -1.172686         1    ;  uncertainty k = 0.287443
         6         7        10        29     9      180.000000        1.776192         2    ;  uncertainty k = 0.486164
         6         7        10        29     9        0.000000        0.834284         3    ;  uncertainty k = 0.164412
         6         7        10        29     9      180.000000        0.103405         4    ;  uncertainty k = 0.066983
         6         7        10        30     9        0.000000       -1.172686         1    ;  uncertainty k = 0.287443
         6         7        10        30     9      180.000000        1.776192         2    ;  uncertainty k = 0.486164
         6         7        10        30     9        0.000000        0.834284         3    ;  uncertainty k = 0.164412
         6         7        10        30     9      180.000000        0.103405         4    ;  uncertainty k = 0.066983
         7         6         2        25     9        0.000000       -0.051752         1    ;  uncertainty k = 0.323850
         7         6         2        25     9      180.000000        5.554766         2    ;  uncertainty k = 0.815913
         7         6         2        25     9        0.000000        1.145356         3    ;  uncertainty k = 0.241466
         7         6         2        25     9      180.000000        0.679191         4    ;  uncertainty k = 0.306682
         7         6         5         9     9        0.000000       -0.358451         1    ;  uncertainty k = 0.333026
         7         6         5         9     9      180.000000       12.189079         2    ;  uncertainty k = 0.699750
         7         6         5         9     9        0.000000       -3.653481         3    ;  uncertainty k = 1.600587
         7         6         5         9     9      180.000000        1.629609         4    ;  uncertainty k = 0.585595
         7         8         9        28     9        0.000000        4.146951         1    ;  uncertainty k = 2.343420
         7         8         9        28     9      180.000000       12.933883         2    ;  uncertainty k = 0.107932
         7         8         9        28     9        0.000000        1.688928         3    ;  uncertainty k = 1.037473
         7         8         9        28     9      180.000000       -0.435126         4    ;  uncertainty k = 0.238097
         7        10        15        16     9        0.000000        1.125767         1    ;  uncertainty k = 0.280968
         7        10        15        16     9      180.000000        1.582624         2    ;  uncertainty k = 0.145585
         7        10        15        16     9        0.000000        0.251099         3    ;  uncertainty k = 0.119564
         7        10        15        16     9      180.000000        0.218169         4    ;  uncertainty k = 0.100669
         7        10        15        20     9        0.000000        0.677225         1    ;  uncertainty k = 0.230016
         7        10        15        20     9      180.000000        1.476972         2    ;  uncertainty k = 0.184467
         7        10        15        20     9        0.000000        0.624089         3    ;  uncertainty k = 0.171843
         7        10        15        20     9      180.000000        0.245812         4    ;  uncertainty k = 0.039097
         8         7        10        15     9        0.000000        1.063376         1    ;  uncertainty k = 0.422390
         8         7        10        15     9      180.000000        1.551769         2    ;  uncertainty k = 0.326914
         8         7        10        15     9        0.000000        0.022498         3    ;  uncertainty k = 0.191423
         8         7        10        15     9      180.000000        0.137975         4    ;  uncertainty k = 0.090538
         8         7        10        29     9        0.000000        1.790050         1    ;  uncertainty k = 0.115920
         8         7        10        29     9      180.000000        2.198230         2    ;  uncertainty k = 0.276881
         8         7        10        29     9        0.000000        0.156678         3    ;  uncertainty k = 0.099927
         8         7        10        29     9      180.000000        0.109872         4    ;  uncertainty k = 0.046931
         8         7        10        30     9        0.000000        1.790050         1    ;  uncertainty k = 0.115920
         8         7        10        30     9      180.000000        2.198230         2    ;  uncertainty k = 0.276881
         8         7        10        30     9        0.000000        0.156678         3    ;  uncertainty k = 0.099927
         8         7        10        30     9      180.000000        0.109872         4    ;  uncertainty k = 0.046931
         9         5         3        26     9        0.000000        0.448575         1    ;  uncertainty k = 0.396446
         9         5         3        26     9      180.000000        5.638355         2    ;  uncertainty k = 0.858183
         9         5         3        26     9        0.000000        1.145651         3    ;  uncertainty k = 0.127058
         9         5         3        26     9      180.000000        0.744521         4    ;  uncertainty k = 0.319502
         9         8         7        10     9        0.000000       -0.553032         1    ;  uncertainty k = 0.833109
         9         8         7        10     9      180.000000       25.085254         2    ;  uncertainty k = 0.174677
         9         8         7        10     9        0.000000        2.411761         3    ;  uncertainty k = 0.636073
         9         8         7        10     9      180.000000        1.106762         4    ;  uncertainty k = 0.274894
        10        15        16        17     9        0.000000        0.038705         1    ;  uncertainty k = 0.266105
        10        15        16        17     9      180.000000       13.093215         2    ;  uncertainty k = 0.498414
        10        15        16        17     9        0.000000        1.487596         3    ;  uncertainty k = 0.355839
        10        15        16        17     9      180.000000        1.560890         4    ;  uncertainty k = 0.271117
        10        15        16        35     9        0.000000       -0.287399         1    ;  uncertainty k = 0.412691
        10        15        16        35     9      180.000000        8.431862         2    ;  uncertainty k = 0.502915
        10        15        16        35     9        0.000000        0.776194         3    ;  uncertainty k = 0.217286
        10        15        16        35     9      180.000000        1.104994         4    ;  uncertainty k = 0.244964
        10        15        20        19     9        0.000000        0.192731         1    ;  uncertainty k = 0.412248
        10        15        20        19     9      180.000000        8.048822         2    ;  uncertainty k = 0.422487
        10        15        20        19     9        0.000000        1.417732         3    ;  uncertainty k = 0.273506
        10        15        20        19     9      180.000000        1.844498         4    ;  uncertainty k = 0.086365
        10        15        20        37     9        0.000000       -0.187189         1    ;  uncertainty k = 0.180149
        10        15        20        37     9      180.000000        7.468031         2    ;  uncertainty k = 0.337412
        10        15        20        37     9        0.000000        0.616001         3    ;  uncertainty k = 0.320174
        10        15        20        37     9      180.000000        0.952562         4    ;  uncertainty k = 0.283690
        12        11        13        14     9        0.000000        2.908626         1    ;  uncertainty k = 0.608893
        12        11        13        14     9      180.000000       11.020841         2    ;  uncertainty k = 0.225485
        12        11        13        14     9        0.000000        0.587180         3    ;  uncertainty k = 0.297813
        12        11        13        14     9      180.000000        0.508956         4    ;  uncertainty k = 0.213308
        13         1         2        25     9        0.000000       -0.136665         1    ;  uncertainty k = 0.379945
        13         1         2        25     9      180.000000        8.460202         2    ;  uncertainty k = 0.444612
        13         1         2        25     9        0.000000        1.140838         3    ;  uncertainty k = 0.197062
        13         1         2        25     9      180.000000        1.213531         4    ;  uncertainty k = 0.231557
        13         1         4        27     9        0.000000       -0.103676         1    ;  uncertainty k = 0.427786
        13         1         4        27     9      180.000000        7.596315         2    ;  uncertainty k = 0.428562
        13         1         4        27     9        0.000000        0.928012         3    ;  uncertainty k = 0.201145
        13         1         4        27     9      180.000000        0.967211         4    ;  uncertainty k = 0.247422
        13        11        12        32     9        0.000000        0.271066         1    ;  uncertainty k = 0.210944
        13        11        12        32     9      180.000000       -0.535011         2    ;  uncertainty k = 0.296394
        13        11        12        32     9        0.000000        0.224758         3    ;  uncertainty k = 0.092791
        13        11        12        32     9      180.000000        0.342234         4    ;  uncertainty k = 0.050181
        13        11        12        33     9        0.000000        0.271066         1    ;  uncertainty k = 0.210944
        13        11        12        33     9      180.000000       -0.535011         2    ;  uncertainty k = 0.296394
        13        11        12        33     9        0.000000        0.224758         3    ;  uncertainty k = 0.092791
        13        11        12        33     9      180.000000        0.342234         4    ;  uncertainty k = 0.050181
        13        11        12        34     9        0.000000        0.271066         1    ;  uncertainty k = 0.210944
        13        11        12        34     9      180.000000       -0.535011         2    ;  uncertainty k = 0.296394
        13        11        12        34     9        0.000000        0.224758         3    ;  uncertainty k = 0.092791
        13        11        12        34     9      180.000000        0.342234         4    ;  uncertainty k = 0.050181
        14        13        11        31     9        0.000000        3.318940         1    ;  uncertainty k = 1.151661
        14        13        11        31     9      180.000000       14.296123         2    ;  uncertainty k = 0.216662
        14        13        11        31     9        0.000000        1.586854         3    ;  uncertainty k = 0.158255
        14        13        11        31     9      180.000000       -0.472643         4    ;  uncertainty k = 0.099040
        15        16        17        18     9        0.000000       -0.101862         1    ;  uncertainty k = 0.169313
        15        16        17        18     9      180.000000       12.991302         2    ;  uncertainty k = 0.476587
        15        16        17        18     9        0.000000       -1.732895         3    ;  uncertainty k = 0.340023
        15        16        17        18     9      180.000000        0.695341         4    ;  uncertainty k = 0.241743
        15        16        17        21     9        0.000000        0.139169         1    ;  uncertainty k = 0.457234
        15        16        17        21     9      180.000000        8.483018         2    ;  uncertainty k = 0.733767
        15        16        17        21     9        0.000000        0.699852         3    ;  uncertainty k = 0.090578
        15        16        17        21     9      180.000000        1.299040         4    ;  uncertainty k = 0.213478
        15        20        19        18     9        0.000000       -0.102670         1    ;  uncertainty k = 0.280862
        15        20        19        18     9      180.000000       16.467570         2    ;  uncertainty k = 0.346024
        15        20        19        18     9        0.000000       -0.207119         3    ;  uncertainty k = 0.328953
        15        20        19        18     9      180.000000        0.673461         4    ;  uncertainty k = 0.319019
        15        20        19        36     9        0.000000        0.103911         1    ;  uncertainty k = 0.190063
        15        20        19        36     9      180.000000        8.956584         2    ;  uncertainty k = 0.757560
        15        20        19        36     9        0.000000        1.507355         3    ;  uncertainty k = 0.273219
        15        20        19        36     9      180.000000        1.906657         4    ;  uncertainty k = 0.273730
        16        15        10        29     9        0.000000       -0.000331         1    ;  uncertainty k = 0.225003
        16        15        10        29     9      180.000000        1.932428         2    ;  uncertainty k = 0.158645
        16        15        10        29     9        0.000000        0.218015         3    ;  uncertainty k = 0.084966
        16        15        10        29     9      180.000000        0.123746         4    ;  uncertainty k = 0.043544
        16        15        10        30     9        0.000000       -0.000331         1    ;  uncertainty k = 0.225003
        16        15        10        30     9      180.000000        1.932428         2    ;  uncertainty k = 0.158645
        16        15        10        30     9        0.000000        0.218015         3    ;  uncertainty k = 0.084966
        16        15        10        30     9      180.000000        0.123746         4    ;  uncertainty k = 0.043544
        16        15        20        19     9        0.000000       -0.227330         1    ;  uncertainty k = 0.233809
        16        15        20        19     9      180.000000        9.261510         2    ;  uncertainty k = 0.588907
        16        15        20        19     9        0.000000       -0.143212         3    ;  uncertainty k = 0.383335
        16        15        20        19     9      180.000000        0.985403         4    ;  uncertainty k = 0.420727
        16        15        20        37     9        0.000000        0.056558         1    ;  uncertainty k = 0.300962
        16        15        20        37     9      180.000000        6.430301         2    ;  uncertainty k = 0.637807
        16        15        20        37     9        0.000000        1.290209         3    ;  uncertainty k = 0.152621
        16        15        20        37     9      180.000000        1.431233         4    ;  uncertainty k = 0.182124
        16        17        18        19     9        0.000000       -0.410645         1    ;  uncertainty k = 0.826512
        16        17        18        19     9      180.000000        7.281658         2    ;  uncertainty k = 0.662964
        16        17        18        19     9        0.000000        0.191517         3    ;  uncertainty k = 0.184137
        16        17        18        19     9      180.000000        0.979182         4    ;  uncertainty k = 0.372782
        16        17        18        23     9        0.000000        0.232637         1    ;  uncertainty k = 0.491635
        16        17        18        23     9      180.000000        8.129818         2    ;  uncertainty k = 0.286192
        16        17        18        23     9        0.000000       -0.317646         3    ;  uncertainty k = 0.623603
        16        17        18        23     9      180.000000        1.319708         4    ;  uncertainty k = 0.365004
        16        17        21        22     9        0.000000        0.675464         1    ;  uncertainty k = 0.606888
        16        17        21        22     9      180.000000        6.936883         2    ;  uncertainty k = 0.262209
        16        17        21        22     9        0.000000        0.046028         3    ;  uncertainty k = 0.357842
        16        17        21        22     9      180.000000        0.945387         4    ;  uncertainty k = 0.107835
        16        17        21        38     9        0.000000        0.681140         1    ;  uncertainty k = 0.842681
        16        17        21        38     9      180.000000        3.548898         2    ;  uncertainty k = 0.782668
        16        17        21        38     9        0.000000        1.215927         3    ;  uncertainty k = 0.313571
        16        17        21        38     9      180.000000        0.047952         4    ;  uncertainty k = 0.100056
        17        16        15        20     9        0.000000       -0.044415         1    ;  uncertainty k = 0.351541
        17        16        15        20     9      180.000000       14.119757         2    ;  uncertainty k = 0.271502
        17        16        15        20     9        0.000000        0.120915         3    ;  uncertainty k = 0.313371
        17        16        15        20     9      180.000000        0.844806         4    ;  uncertainty k = 0.390805
        17        18        19        20     9        0.000000       -0.064799         1    ;  uncertainty k = 0.253686
        17        18        19        20     9      180.000000       12.103544         2    ;  uncertainty k = 0.077826
        17        18        19        20     9        0.000000       -1.424985         3    ;  uncertainty k = 0.374545
        17        18        19        20     9      180.000000        0.850079         4    ;  uncertainty k = 0.230311
        17        18        19        36     9        0.000000        0.057304         1    ;  uncertainty k = 0.355373
        17        18        19        36     9      180.000000        6.673478         2    ;  uncertainty k = 1.123455
        17        18        19        36     9        0.000000        1.323951         3    ;  uncertainty k = 0.122433
        17        18        19        36     9      180.000000        1.105256         4    ;  uncertainty k = 0.527474
        17        18        23        22     9        0.000000        0.326555         1    ;  uncertainty k = 1.046881
        17        18        23        22     9      180.000000       16.548642         2    ;  uncertainty k = 0.946064
        17        18        23        22     9        0.000000       -8.163231         3    ;  uncertainty k = 1.084986
        17        18        23        22     9      180.000000        0.972536         4    ;  uncertainty k = 0.714778
        17        18        23        24     9        0.000000        2.230340         1    ;  uncertainty k = 1.075266
        17        18        23        24     9      180.000000        5.890920         2    ;  uncertainty k = 0.515478
        17        18        23        24     9        0.000000        1.689984         3    ;  uncertainty k = 0.317749
        17        18        23        24     9      180.000000        0.111283         4    ;  uncertainty k = 0.133782
        17        21        22        23     9        0.000000       -0.003175         1    ;  uncertainty k = 0.604235
        17        21        22        23     9      180.000000       25.554532         2    ;  uncertainty k = 0.141761
        17        21        22        23     9        0.000000       -5.215030         3    ;  uncertainty k = 0.783443
        17        21        22        23     9      180.000000        1.985626         4    ;  uncertainty k = 0.644666
        18        17        16        35     9        0.000000        0.193683         1    ;  uncertainty k = 0.394947
        18        17        16        35     9      180.000000        7.595847         2    ;  uncertainty k = 0.980795
        18        17        16        35     9        0.000000        1.361018         3    ;  uncertainty k = 0.322362
        18        17        16        35     9      180.000000        1.117394         4    ;  uncertainty k = 0.434029
        18        17        21        22     9        0.000000        0.420030         1    ;  uncertainty k = 1.061187
        18        17        21        22     9      180.000000       14.182550         2    ;  uncertainty k = 0.925723
        18        17        21        22     9        0.000000      -12.090493         3    ;  uncertainty k = 2.542934
        18        17        21        22     9      180.000000        2.140844         4    ;  uncertainty k = 0.486474
        18        17        21        38     9        0.000000        0.138428         1    ;  uncertainty k = 0.379857
        18        17        21        38     9      180.000000        7.467898         2    ;  uncertainty k = 0.884542
        18        17        21        38     9        0.000000        1.325364         3    ;  uncertainty k = 0.388242
        18        17        21        38     9      180.000000        0.373438         4    ;  uncertainty k = 0.184576
        18        19        20        37     9        0.000000       -0.011095         1    ;  uncertainty k = 0.267475
        18        19        20        37     9      180.000000       11.327250         2    ;  uncertainty k = 0.524910
        18        19        20        37     9        0.000000        1.493658         3    ;  uncertainty k = 0.268860
        18        19        20        37     9      180.000000        1.590448         4    ;  uncertainty k = 0.261766
        18        23        22        21     9        0.000000       -0.394666         1    ;  uncertainty k = 0.721043
        18        23        22        21     9      180.000000       17.537063         2    ;  uncertainty k = 0.450039
        18        23        22        21     9        0.000000       -4.898957         3    ;  uncertainty k = 1.441715
        18        23        22        21     9      180.000000        1.194024         4    ;  uncertainty k = 0.533100
        18        23        24        39     9        0.000000       -0.489294         1    ;  uncertainty k = 0.243611
        18        23        24        39     9      180.000000       -1.085806         2    ;  uncertainty k = 0.137924
        18        23        24        39     9        0.000000        0.931565         3    ;  uncertainty k = 0.048216
        18        23        24        39     9      180.000000        0.203686         4    ;  uncertainty k = 0.044796
        18        23        24        40     9        0.000000       -0.489294         1    ;  uncertainty k = 0.243611
        18        23        24        40     9      180.000000       -1.085806         2    ;  uncertainty k = 0.137924
        18        23        24        40     9        0.000000        0.931565         3    ;  uncertainty k = 0.048216
        18        23        24        40     9      180.000000        0.203686         4    ;  uncertainty k = 0.044796
        18        23        24        41     9        0.000000       -0.489294         1    ;  uncertainty k = 0.243611
        18        23        24        41     9      180.000000       -1.085806         2    ;  uncertainty k = 0.137924
        18        23        24        41     9        0.000000        0.931565         3    ;  uncertainty k = 0.048216
        18        23        24        41     9      180.000000        0.203686         4    ;  uncertainty k = 0.044796
        19        18        17        21     9        0.000000        0.244117         1    ;  uncertainty k = 0.321940
        19        18        17        21     9      180.000000        7.307248         2    ;  uncertainty k = 0.450607
        19        18        17        21     9        0.000000        0.254148         3    ;  uncertainty k = 0.502524
        19        18        17        21     9      180.000000        1.252045         4    ;  uncertainty k = 0.287501
        19        18        23        22     9        0.000000        0.719963         1    ;  uncertainty k = 0.424041
        19        18        23        22     9      180.000000        7.145077         2    ;  uncertainty k = 0.692952
        19        18        23        22     9        0.000000        0.852899         3    ;  uncertainty k = 0.516826
        19        18        23        22     9      180.000000        0.421083         4    ;  uncertainty k = 0.185552
        19        18        23        24     9        0.000000        0.461981         1    ;  uncertainty k = 1.367393
        19        18        23        24     9      180.000000        2.766598         2    ;  uncertainty k = 0.660684
        19        18        23        24     9        0.000000        0.888021         3    ;  uncertainty k = 0.440575
        19        18        23        24     9      180.000000        0.136911         4    ;  uncertainty k = 0.129749
        20        15        10        29     9        0.000000       -0.456836         1    ;  uncertainty k = 0.126952
        20        15        10        29     9      180.000000        1.872407         2    ;  uncertainty k = 0.142970
        20        15        10        29     9        0.000000        0.459454         3    ;  uncertainty k = 0.101697
        20        15        10        29     9      180.000000        0.129664         4    ;  uncertainty k = 0.027178
        20        15        10        30     9        0.000000       -0.456836         1    ;  uncertainty k = 0.126952
        20        15        10        30     9      180.000000        1.872407         2    ;  uncertainty k = 0.142970
        20        15        10        30     9        0.000000        0.459454         3    ;  uncertainty k = 0.101697
        20        15        10        30     9      180.000000        0.129664         4    ;  uncertainty k = 0.027178
        20        15        16        35     9        0.000000        0.203348         1    ;  uncertainty k = 0.263080
        20        15        16        35     9      180.000000        8.139089         2    ;  uncertainty k = 0.508367
        20        15        16        35     9        0.000000        1.528921         3    ;  uncertainty k = 0.280869
        20        15        16        35     9      180.000000        1.728635         4    ;  uncertainty k = 0.156758
        20        19        18        23     9        0.000000        0.333591         1    ;  uncertainty k = 0.472737
        20        19        18        23     9      180.000000       10.048034         2    ;  uncertainty k = 0.552504
        20        19        18        23     9        0.000000        0.609415         3    ;  uncertainty k = 0.193603
        20        19        18        23     9      180.000000        1.110893         4    ;  uncertainty k = 0.213654
        21        17        16        35     9        0.000000        0.114118         1    ;  uncertainty k = 0.290170
        21        17        16        35     9      180.000000        5.795153         2    ;  uncertainty k = 0.663669
        21        17        16        35     9        0.000000        1.052468         3    ;  uncertainty k = 0.199053
        21        17        16        35     9      180.000000        0.612592         4    ;  uncertainty k = 0.322538
        21        17        18        23     9        0.000000       -0.619385         1    ;  uncertainty k = 0.488354
        21        17        18        23     9      180.000000       12.214457         2    ;  uncertainty k = 0.853833
        21        17        18        23     9        0.000000       -4.230452         3    ;  uncertainty k = 1.480560
        21        17        18        23     9      180.000000        1.663894         4    ;  uncertainty k = 0.624334
        21        22        23        24     9        0.000000        0.936435         1    ;  uncertainty k = 1.503574
        21        22        23        24     9      180.000000       12.507480         2    ;  uncertainty k = 0.275253
        21        22        23        24     9        0.000000        1.689891         3    ;  uncertainty k = 0.505928
        21        22        23        24     9      180.000000       -0.273392         4    ;  uncertainty k = 0.338458
        22        23        24        39     9        0.000000        1.238093         1    ;  uncertainty k = 0.404135
        22        23        24        39     9      180.000000       -1.136906         2    ;  uncertainty k = 0.174773
        22        23        24        39     9        0.000000        0.694967         3    ;  uncertainty k = 0.014971
        22        23        24        39     9      180.000000        0.226668         4    ;  uncertainty k = 0.044479
        22        23        24        40     9        0.000000        1.238093         1    ;  uncertainty k = 0.404135
        22        23        24        40     9      180.000000       -1.136906         2    ;  uncertainty k = 0.174773
        22        23        24        40     9        0.000000        0.694967         3    ;  uncertainty k = 0.014971
        22        23        24        40     9      180.000000        0.226668         4    ;  uncertainty k = 0.044479
        22        23        24        41     9        0.000000        1.238093         1    ;  uncertainty k = 0.404135
        22        23        24        41     9      180.000000       -1.136906         2    ;  uncertainty k = 0.174773
        22        23        24        41     9        0.000000        0.694967         3    ;  uncertainty k = 0.014971
        22        23        24        41     9      180.000000        0.226668         4    ;  uncertainty k = 0.044479
        23        18        19        36     9        0.000000        0.415030         1    ;  uncertainty k = 0.446576
        23        18        19        36     9      180.000000        5.279248         2    ;  uncertainty k = 0.531066
        23        18        19        36     9        0.000000        1.118463         3    ;  uncertainty k = 0.220467
        23        18        19        36     9      180.000000        0.729073         4    ;  uncertainty k = 0.390554
        23        22        21        38     9        0.000000        0.386881         1    ;  uncertainty k = 0.582455
        23        22        21        38     9      180.000000       23.653163         2    ;  uncertainty k = 0.465475
        23        22        21        38     9        0.000000        1.548933         3    ;  uncertainty k = 0.853249
        23        22        21        38     9      180.000000        1.212527         4    ;  uncertainty k = 0.504246
        26         3         4        27     9        0.000000       -0.105139         1    ;  uncertainty k = 0.445868
        26         3         4        27     9      180.000000        8.058792         2    ;  uncertainty k = 0.272877
        26         3         4        27     9        0.000000       -0.175321         3    ;  uncertainty k = 0.177486
        26         3         4        27     9      180.000000        0.287040         4    ;  uncertainty k = 0.200176
        31        11        12        32     9        0.000000       -0.221554         1    ;  uncertainty k = 0.185359
        31        11        12        32     9      180.000000       -1.047190         2    ;  uncertainty k = 0.167691
        31        11        12        32     9        0.000000        0.476718         3    ;  uncertainty k = 0.065685
        31        11        12        32     9      180.000000        0.159229         4    ;  uncertainty k = 0.070112
        31        11        12        33     9        0.000000       -0.221554         1    ;  uncertainty k = 0.185359
        31        11        12        33     9      180.000000       -1.047190         2    ;  uncertainty k = 0.167691
        31        11        12        33     9        0.000000        0.476718         3    ;  uncertainty k = 0.065685
        31        11        12        33     9      180.000000        0.159229         4    ;  uncertainty k = 0.070112
        31        11        12        34     9        0.000000       -0.221554         1    ;  uncertainty k = 0.185359
        31        11        12        34     9      180.000000       -1.047190         2    ;  uncertainty k = 0.167691
        31        11        12        34     9        0.000000        0.476718         3    ;  uncertainty k = 0.065685
        31        11        12        34     9      180.000000        0.159229         4    ;  uncertainty k = 0.070112
        36        19        20        37     9        0.000000        0.021574         1    ;  uncertainty k = 0.254750
        36        19        20        37     9      180.000000        7.940473         2    ;  uncertainty k = 0.282301
        36        19        20        37     9        0.000000       -0.305359         3    ;  uncertainty k = 0.285246
        36        19        20        37     9      180.000000        0.205736         4    ;  uncertainty k = 0.224949

[ dihedrals ] ; impropers
;       ai        aj        ak        al funct           phase               k        pn
         1         2         4        13     4      180.000000        6.582133         2    ;  uncertainty k = 0.207573
         1         4        13         2     4      180.000000        6.582133         2    ;  uncertainty k = 0.207573
         1        13         2         4     4      180.000000        6.582133         2    ;  uncertainty k = 0.207573
         2         1         6        25     4      180.000000        5.259542         2    ;  uncertainty k = 0.249666
         2         6        25         1     4      180.000000        5.259542         2    ;  uncertainty k = 0.249666
         2        25         1         6     4      180.000000        5.259542         2    ;  uncertainty k = 0.249666
         3         4         5        26     4      180.000000        2.311019         2    ;  uncertainty k = 0.299231
         3         5        26         4     4      180.000000        2.311019         2    ;  uncertainty k = 0.299231
         3        26         4         5     4      180.000000        2.311019         2    ;  uncertainty k = 0.299231
         4         1         3        27     4      180.000000        4.235064         2    ;  uncertainty k = 0.145743
         4         3        27         1     4      180.000000        4.235064         2    ;  uncertainty k = 0.145743
         4        27         1         3     4      180.000000        4.235064         2    ;  uncertainty k = 0.145743
         5         3         6         9     4      180.000000        1.603037         2    ;  uncertainty k = 0.899835
         5         6         9         3     4      180.000000        1.603037         2    ;  uncertainty k = 0.899835
         5         9         3         6     4      180.000000        1.603037         2    ;  uncertainty k = 0.899835
         7         6         8        10     4      180.000000        7.589951         2    ;  uncertainty k = 0.249815
         7         8        10         6     4      180.000000        7.589951         2    ;  uncertainty k = 0.249815
         7        10         6         8     4      180.000000        7.589951         2    ;  uncertainty k = 0.249815
        13         1        11        14     4      180.000000       51.366033         2    ;  uncertainty k = 0.016901
        13        11        14         1     4      180.000000       51.366033         2    ;  uncertainty k = 0.016901
        13        14         1        11     4      180.000000       51.366033         2    ;  uncertainty k = 0.016901
        15        10        16        20     4      180.000000       12.040859         2    ;  uncertainty k = 0.089348
        15        16        20        10     4      180.000000       12.040859         2    ;  uncertainty k = 0.089348
        15        20        10        16     4      180.000000       12.040859         2    ;  uncertainty k = 0.089348
        16        15        17        35     4      180.000000        5.186098         2    ;  uncertainty k = 0.102924
        16        17        35        15     4      180.000000        5.186098         2    ;  uncertainty k = 0.102924
        16        35        15        17     4      180.000000        5.186098         2    ;  uncertainty k = 0.102924
        18        17        19        23     4      180.000000        1.037214         2    ;  uncertainty k = 0.607921
        18        19        23        17     4      180.000000        1.037214         2    ;  uncertainty k = 0.607921
        18        23        17        19     4      180.000000        1.037214         2    ;  uncertainty k = 0.607921
        19        18        20        36     4      180.000000        2.743229         2    ;  uncertainty k = 0.237096
        19        20        36        18     4      180.000000        2.743229         2    ;  uncertainty k = 0.237096
        19        36        18        20     4      180.000000        2.743229         2    ;  uncertainty k = 0.237096
        20        15        19        37     4      180.000000        4.557972         2    ;  uncertainty k = 0.061218
        20        19        37        15     4      180.000000        4.557972         2    ;  uncertainty k = 0.061218
        20        37        15        19     4      180.000000        4.557972         2    ;  uncertainty k = 0.061218
        21        17        22        38     4      180.000000        1.306167         2    ;  uncertainty k = 0.301993
        21        22        38        17     4      180.000000        1.306167         2    ;  uncertainty k = 0.301993
        21        38        17        22     4      180.000000        1.306167         2    ;  uncertainty k = 0.301993

[ pairs ]
;       ai        aj funct
         1         5     1
         1         7     1
         1        12     1
         1        26     1
         1        31     1
         2         3     1
         2         8     1
         2         9     1
         2        10     1
         2        11     1
         2        14     1
         2        27     1
         3         7     1
         3         8     1
         3        13     1
         3        28     1
         4         6     1
         4         9     1
         4        11     1
         4        14     1
         4        25     1
         5        10     1
         5        25     1
         5        27     1
         6        13     1
         6        15     1
         6        26     1
         6        28     1
         6        29     1
         6        30     1
         7        16     1
         7        20     1
         7        25     1
         7        28     1
         8        15     1
         8        29     1
         8        30     1
         9        10     1
         9        26     1
        10        17     1
        10        19     1
        10        35     1
        10        37     1
        12        14     1
        13        25     1
        13        27     1
        13        32     1
        13        33     1
        13        34     1
        14        31     1
        15        18     1
        15        21     1
        15        36     1
        16        19     1
        16        22     1
        16        23     1
        16        29     1
        16        30     1
        16        37     1
        16        38     1
        17        20     1
        17        24     1
        17        36     1
        18        35     1
        18        37     1
        18        38     1
        18        39     1
        18        40     1
        18        41     1
        19        21     1
        19        22     1
        19        24     1
        20        23     1
        20        29     1
        20        30     1
        20        35     1
        21        24     1
        21        35     1
        22        39     1
        22        40     1
        22        41     1
        23        36     1
        23        38     1
        26        27     1
        31        32     1
        31        33     1
        31        34     1
        36        37     1
