; ITP file created by ByteFF-joint-25, 2026-02-17 09:07:52.854724

[ atomtypes ]
;name           bonded.type        at.num        mass        charge   ptype           sigma         epsilon
 c0bf                                   6      0.0000       0.00000       A     3.31521e-01     4.13400e-01    ;  uncertainty sigma = 0.000017, epsilon = 0.000777
 c1bf                                   6      0.0000       0.00000       A     3.31525e-01     4.13189e-01    ;  uncertainty sigma = 0.000007, epsilon = 0.000427
 c2bf                                   6      0.0000       0.00000       A     3.31520e-01     4.13315e-01    ;  uncertainty sigma = 0.000006, epsilon = 0.000869
 c3bf                                   6      0.0000       0.00000       A     3.31525e-01     4.13545e-01    ;  uncertainty sigma = 0.000005, epsilon = 0.000538
 c4bf                                   6      0.0000       0.00000       A     3.31513e-01     4.13127e-01    ;  uncertainty sigma = 0.000006, epsilon = 0.000908
 c5bf                                   6      0.0000       0.00000       A     3.31532e-01     4.13349e-01    ;  uncertainty sigma = 0.000008, epsilon = 0.000623
 c6bf                                   6      0.0000       0.00000       A     3.31510e-01     4.13718e-01    ;  uncertainty sigma = 0.000012, epsilon = 0.000573
 n7bf                                   7      0.0000       0.00000       A     3.38378e-01     3.93289e-01    ;  uncertainty sigma = 0.000011, epsilon = 0.000859
 n8bf                                   7      0.0000       0.00000       A     3.20594e-01     8.54239e-01    ;  uncertainty sigma = 0.000008, epsilon = 0.000871
 c9bf                                   6      0.0000       0.00000       A     3.39770e-01     4.50677e-01    ;  uncertainty sigma = 0.000014, epsilon = 0.000932
 n10bf                                  7      0.0000       0.00000       A     3.26997e-01     4.90178e-01    ;  uncertainty sigma = 0.000021, epsilon = 0.001667
 c11bf                                  6      0.0000       0.00000       A     3.39778e-01     4.51149e-01    ;  uncertainty sigma = 0.000008, epsilon = 0.000607
 c12bf                                  6      0.0000       0.00000       A     3.31547e-01     4.13028e-01    ;  uncertainty sigma = 0.000011, epsilon = 0.000504
 o13bf                                  8      0.0000       0.00000       A     3.04817e-01     6.12265e-01    ;  uncertainty sigma = 0.000016, epsilon = 0.001487
 c14bf                                  6      0.0000       0.00000       A     3.31526e-01     4.13322e-01    ;  uncertainty sigma = 0.000007, epsilon = 0.000745
 c15bf                                  6      0.0000       0.00000       A     3.31523e-01     4.13371e-01    ;  uncertainty sigma = 0.000005, epsilon = 0.000423
 c16bf                                  6      0.0000       0.00000       A     3.31520e-01     4.13353e-01    ;  uncertainty sigma = 0.000004, epsilon = 0.000667
 c17bf                                  6      0.0000       0.00000       A     3.31533e-01     4.13284e-01    ;  uncertainty sigma = 0.000006, epsilon = 0.001098
 c18bf                                  6      0.0000       0.00000       A     3.31520e-01     4.13353e-01    ;  uncertainty sigma = 0.000004, epsilon = 0.000667
 c19bf                                  6      0.0000       0.00000       A     3.31523e-01     4.13371e-01    ;  uncertainty sigma = 0.000005, epsilon = 0.000423
 c20bf                                  6      0.0000       0.00000       A     3.31531e-01     4.13203e-01    ;  uncertainty sigma = 0.000005, epsilon = 0.000910
 c21bf                                  6      0.0000       0.00000       A     3.31520e-01     4.13556e-01    ;  uncertainty sigma = 0.000007, epsilon = 0.000533
 n22bf                                  7      0.0000       0.00000       A     3.20573e-01     8.53815e-01    ;  uncertainty sigma = 0.000028, epsilon = 0.000727
 n23bf                                  7      0.0000       0.00000       A     3.38410e-01     3.93746e-01    ;  uncertainty sigma = 0.000011, epsilon = 0.000572
 c24bf                                  6      0.0000       0.00000       A     3.31531e-01     4.13031e-01    ;  uncertainty sigma = 0.000007, epsilon = 0.000793
 c25bf                                  6      0.0000       0.00000       A     3.39761e-01     4.50522e-01    ;  uncertainty sigma = 0.000008, epsilon = 0.000692
 c26bf                                  6      0.0000       0.00000       A     3.39762e-01     4.50877e-01    ;  uncertainty sigma = 0.000022, epsilon = 0.000720
 o27bf                                  8      0.0000       0.00000       A     3.24277e-01     3.90042e-01    ;  uncertainty sigma = 0.000025, epsilon = 0.000952
 c28bf                                  6      0.0000       0.00000       A     3.39772e-01     4.50634e-01    ;  uncertainty sigma = 0.000006, epsilon = 0.000586
 c29bf                                  6      0.0000       0.00000       A     3.39772e-01     4.50634e-01    ;  uncertainty sigma = 0.000006, epsilon = 0.000586
 h30bf                                  1      0.0000       0.00000       A     2.62573e-01     6.70552e-02    ;  uncertainty sigma = 0.000013, epsilon = 0.000866
 h31bf                                  1      0.0000       0.00000       A     2.62571e-01     6.70414e-02    ;  uncertainty sigma = 0.000009, epsilon = 0.000485
 h32bf                                  1      0.0000       0.00000       A     2.62555e-01     6.71833e-02    ;  uncertainty sigma = 0.000010, epsilon = 0.000661
 h33bf                                  1      0.0000       0.00000       A     1.10648e-01     4.14022e-02    ;  uncertainty sigma = 0.000065, epsilon = 0.000771
 h34bf                                  1      0.0000       0.00000       A     2.60075e-01     8.67590e-02    ;  uncertainty sigma = 0.000029, epsilon = 0.000876
 h35bf                                  1      0.0000       0.00000       A     2.60075e-01     8.67590e-02    ;  uncertainty sigma = 0.000029, epsilon = 0.000876
 h36bf                                  1      0.0000       0.00000       A     1.10718e-01     4.14284e-02    ;  uncertainty sigma = 0.000071, epsilon = 0.000519
 h37bf                                  1      0.0000       0.00000       A     2.42204e-01     8.66943e-02    ;  uncertainty sigma = 0.000014, epsilon = 0.000595
 h38bf                                  1      0.0000       0.00000       A     2.42204e-01     8.66943e-02    ;  uncertainty sigma = 0.000014, epsilon = 0.000595
 h39bf                                  1      0.0000       0.00000       A     2.42204e-01     8.66943e-02    ;  uncertainty sigma = 0.000014, epsilon = 0.000595
 h40bf                                  1      0.0000       0.00000       A     2.62562e-01     6.71169e-02    ;  uncertainty sigma = 0.000007, epsilon = 0.000513
 h41bf                                  1      0.0000       0.00000       A     2.62566e-01     6.70543e-02    ;  uncertainty sigma = 0.000011, epsilon = 0.000444
 h42bf                                  1      0.0000       0.00000       A     2.62566e-01     6.70543e-02    ;  uncertainty sigma = 0.000011, epsilon = 0.000444
 h43bf                                  1      0.0000       0.00000       A     2.62562e-01     6.71171e-02    ;  uncertainty sigma = 0.000007, epsilon = 0.000513
 h44bf                                  1      0.0000       0.00000       A     2.53662e-01     6.71147e-02    ;  uncertainty sigma = 0.000023, epsilon = 0.000681
 h45bf                                  1      0.0000       0.00000       A     2.53681e-01     6.72123e-02    ;  uncertainty sigma = 0.000016, epsilon = 0.000497
 h46bf                                  1      0.0000       0.00000       A     2.42225e-01     8.67757e-02    ;  uncertainty sigma = 0.000027, epsilon = 0.000832
 h47bf                                  1      0.0000       0.00000       A     2.42225e-01     8.67757e-02    ;  uncertainty sigma = 0.000027, epsilon = 0.000832
 h48bf                                  1      0.0000       0.00000       A     5.38127e-02     1.93690e-02    ;  uncertainty sigma = 0.000139, epsilon = 0.001408
 h49bf                                  1      0.0000       0.00000       A     2.60020e-01     8.67588e-02    ;  uncertainty sigma = 0.000008, epsilon = 0.000436
 h50bf                                  1      0.0000       0.00000       A     2.60020e-01     8.67588e-02    ;  uncertainty sigma = 0.000008, epsilon = 0.000436
 h51bf                                  1      0.0000       0.00000       A     2.60020e-01     8.67588e-02    ;  uncertainty sigma = 0.000008, epsilon = 0.000436
 h52bf                                  1      0.0000       0.00000       A     2.60020e-01     8.67588e-02    ;  uncertainty sigma = 0.000008, epsilon = 0.000436
 h53bf                                  1      0.0000       0.00000       A     2.60020e-01     8.67587e-02    ;  uncertainty sigma = 0.000008, epsilon = 0.000436
 h54bf                                  1      0.0000       0.00000       A     2.60020e-01     8.67588e-02    ;  uncertainty sigma = 0.000008, epsilon = 0.000436

[ moleculetype ]
;name             nrexcl
 MOL                   3

[ atoms ]
;       nr            type      resi   res      atom      cgnr      charge          mass ; qtot
         1            c0bf         1   UNL        c0         1    -0.19453       12.0110 ; qtot   -0.195
         2            c1bf         1   UNL        c1         2    -0.00272       12.0110 ; qtot   -0.197
         3            c2bf         1   UNL        c2         3    -0.16064       12.0110 ; qtot   -0.358
         4            c3bf         1   UNL        c3         4    -0.05982       12.0110 ; qtot   -0.418
         5            c4bf         1   UNL        c4         5    -0.00020       12.0110 ; qtot   -0.418
         6            c5bf         1   UNL        c5         6    -0.23567       12.0110 ; qtot   -0.654
         7            c6bf         1   UNL        c6         7     0.37213       12.0110 ; qtot   -0.281
         8            n7bf         1   UNL        n7         8    -0.50863       14.0070 ; qtot   -0.790
         9            n8bf         1   UNL        n8         9    -0.03606       14.0070 ; qtot   -0.826
        10            c9bf         1   UNL        c9        10    -0.04574       12.0110 ; qtot   -0.872
        11           n10bf         1   UNL       n10        11    -0.57186       14.0070 ; qtot   -1.444
        12           c11bf         1   UNL       c11        12     0.08587       12.0110 ; qtot   -1.358
        13           c12bf         1   UNL       c12        13     0.67187       12.0110 ; qtot   -0.686
        14           o13bf         1   UNL       o13        14    -0.59715       15.9990 ; qtot   -1.283
        15           c14bf         1   UNL       c14        15    -0.08175       12.0110 ; qtot   -1.365
        16           c15bf         1   UNL       c15        16    -0.11939       12.0110 ; qtot   -1.484
        17           c16bf         1   UNL       c16        17    -0.12732       12.0110 ; qtot   -1.612
        18           c17bf         1   UNL       c17        18     0.00929       12.0110 ; qtot   -1.602
        19           c18bf         1   UNL       c18        19    -0.12732       12.0110 ; qtot   -1.730
        20           c19bf         1   UNL       c19        20    -0.11939       12.0110 ; qtot   -1.849
        21           c20bf         1   UNL       c20        21    -0.22594       12.0110 ; qtot   -2.075
        22           c21bf         1   UNL       c21        22    -0.10188       12.0110 ; qtot   -2.177
        23           n22bf         1   UNL       n22        23     0.08817       14.0070 ; qtot   -2.089
        24           n23bf         1   UNL       n23        24    -0.52759       14.0070 ; qtot   -2.616
        25           c24bf         1   UNL       c24        25     0.32462       12.0110 ; qtot   -2.292
        26           c25bf         1   UNL       c25        26     0.03827       12.0110 ; qtot   -2.253
        27           c26bf         1   UNL       c26        27     0.14353       12.0110 ; qtot   -2.110
        28           o27bf         1   UNL       o27        28    -0.60544       15.9990 ; qtot   -2.715
        29           c28bf         1   UNL       c28        29    -0.10850       12.0110 ; qtot   -2.824
        30           c29bf         1   UNL       c29        30    -0.10850       12.0110 ; qtot   -2.932
        31           h30bf         1   UNL       h30        31     0.15229        1.0080 ; qtot   -2.780
        32           h31bf         1   UNL       h31        32     0.14424        1.0080 ; qtot   -2.636
        33           h32bf         1   UNL       h32        33     0.14618        1.0080 ; qtot   -2.490
        34           h33bf         1   UNL       h33        34     0.32635        1.0080 ; qtot   -2.163
        35           h34bf         1   UNL       h34        35     0.06335        1.0080 ; qtot   -2.100
        36           h35bf         1   UNL       h35        36     0.06335        1.0080 ; qtot   -2.037
        37           h36bf         1   UNL       h36        37     0.31152        1.0080 ; qtot   -1.725
        38           h37bf         1   UNL       h37        38     0.04389        1.0080 ; qtot   -1.681
        39           h38bf         1   UNL       h38        39     0.04389        1.0080 ; qtot   -1.637
        40           h39bf         1   UNL       h39        40     0.04389        1.0080 ; qtot   -1.593
        41           h40bf         1   UNL       h40        41     0.13610        1.0080 ; qtot   -1.457
        42           h41bf         1   UNL       h41        42     0.13384        1.0080 ; qtot   -1.323
        43           h42bf         1   UNL       h42        43     0.13384        1.0080 ; qtot   -1.190
        44           h43bf         1   UNL       h43        44     0.13610        1.0080 ; qtot   -1.053
        45           h44bf         1   UNL       h44        45     0.17938        1.0080 ; qtot   -0.874
        46           h45bf         1   UNL       h45        46     0.03874        1.0080 ; qtot   -0.835
        47           h46bf         1   UNL       h46        47     0.07326        1.0080 ; qtot   -0.762
        48           h47bf         1   UNL       h47        48     0.07326        1.0080 ; qtot   -0.689
        49           h48bf         1   UNL       h48        49     0.40972        1.0080 ; qtot   -0.279
        50           h49bf         1   UNL       h49        50     0.04652        1.0080 ; qtot   -0.233
        51           h50bf         1   UNL       h50        51     0.04652        1.0080 ; qtot   -0.186
        52           h51bf         1   UNL       h51        52     0.04652        1.0080 ; qtot   -0.140
        53           h52bf         1   UNL       h52        53     0.04652        1.0080 ; qtot   -0.093
        54           h53bf         1   UNL       h53        54     0.04652        1.0080 ; qtot   -0.047
        55           h54bf         1   UNL       h54        55     0.04650        1.0080 ; qtot   -0.000

[ bonds ]
;       ai        aj funct               r               k
         1         2     1        0.139237   359863.965576    ;  uncertainty r = 0.000118, k = 5.351341
         1         4     1        0.142239   330579.668457    ;  uncertainty r = 0.000083, k = 6.044291
         1        13     1        0.149821   241928.410449    ;  uncertainty r = 0.000056, k = 14.263391
         2         6     1        0.140049   363534.184473    ;  uncertainty r = 0.000073, k = 8.434576
         2        31     1        0.108710   333227.636865    ;  uncertainty r = 0.000045, k = 1.998599
         3         4     1        0.138479   368113.601074    ;  uncertainty r = 0.000041, k = 6.277183
         3         5     1        0.140256   361253.950439    ;  uncertainty r = 0.000049, k = 6.439366
         3        32     1        0.108847   335419.103906    ;  uncertainty r = 0.000007, k = 1.624567
         4        33     1        0.108679   333211.216504    ;  uncertainty r = 0.000025, k = 2.170996
         5         6     1        0.141755   401797.354785    ;  uncertainty r = 0.000066, k = 8.070514
         5         9     1        0.137355   299898.542529    ;  uncertainty r = 0.000054, k = 10.387935
         6         7     1        0.144233   227707.713574    ;  uncertainty r = 0.000105, k = 7.161742
         7         8     1        0.132796   464085.122559    ;  uncertainty r = 0.000107, k = 7.952511
         7        10     1        0.150186   237414.777441    ;  uncertainty r = 0.000064, k = 4.415855
         8         9     1        0.136819   297875.211816    ;  uncertainty r = 0.000034, k = 11.449749
         9        34     1        0.101020   416476.391699    ;  uncertainty r = 0.000031, k = 2.687214
        10        15     1        0.151795   233478.870459    ;  uncertainty r = 0.000063, k = 3.628626
        10        35     1        0.109648   308979.130029    ;  uncertainty r = 0.000023, k = 1.425937
        10        36     1        0.109648   308979.130029    ;  uncertainty r = 0.000023, k = 1.425937
        11        12     1        0.145747   274952.132031    ;  uncertainty r = 0.000051, k = 10.288066
        11        13     1        0.137394   291706.467676    ;  uncertainty r = 0.000107, k = 27.972621
        11        37     1        0.101152   415695.671191    ;  uncertainty r = 0.000042, k = 3.688403
        12        38     1        0.109421   314460.389648    ;  uncertainty r = 0.000003, k = 2.156520
        12        39     1        0.109421   314460.389648    ;  uncertainty r = 0.000003, k = 2.156520
        12        40     1        0.109421   314460.389648    ;  uncertainty r = 0.000003, k = 2.156520
        13        14     1        0.123557   783157.258789    ;  uncertainty r = 0.000026, k = 5.445672
        15        16     1        0.139794   355474.059863    ;  uncertainty r = 0.000028, k = 2.352255
        15        20     1        0.139794   355474.059863    ;  uncertainty r = 0.000028, k = 2.352255
        16        17     1        0.139338   362972.291455    ;  uncertainty r = 0.000020, k = 2.159620
        16        41     1        0.108902   333492.329004    ;  uncertainty r = 0.000022, k = 1.112447
        17        18     1        0.140253   353391.993799    ;  uncertainty r = 0.000028, k = 3.610472
        17        42     1        0.108868   334958.771973    ;  uncertainty r = 0.000030, k = 0.809239
        18        19     1        0.140253   353391.993799    ;  uncertainty r = 0.000028, k = 3.610472
        18        21     1        0.146617   274971.387012    ;  uncertainty r = 0.000049, k = 5.833566
        19        20     1        0.139338   362972.291455    ;  uncertainty r = 0.000020, k = 2.159629
        19        43     1        0.108868   334958.771973    ;  uncertainty r = 0.000030, k = 0.809236
        20        44     1        0.108902   333492.303467    ;  uncertainty r = 0.000022, k = 1.112442
        21        22     1        0.138876   416915.910889    ;  uncertainty r = 0.000054, k = 4.625596
        21        25     1        0.142539   246182.407666    ;  uncertainty r = 0.000046, k = 9.608478
        22        23     1        0.136235   291472.139160    ;  uncertainty r = 0.000043, k = 3.482180
        22        45     1        0.108243   339259.783008    ;  uncertainty r = 0.000026, k = 1.661732
        23        24     1        0.135592   273159.886621    ;  uncertainty r = 0.000082, k = 8.819797
        23        26     1        0.144921   242437.007520    ;  uncertainty r = 0.000067, k = 8.721603
        24        25     1        0.133207   458294.531934    ;  uncertainty r = 0.000030, k = 3.895733
        25        46     1        0.108445   337528.060547    ;  uncertainty r = 0.000021, k = 2.104530
        26        27     1        0.153536   199402.815674    ;  uncertainty r = 0.000092, k = 3.930858
        26        47     1        0.109489   310274.295605    ;  uncertainty r = 0.000029, k = 3.165889
        26        48     1        0.109489   310274.295605    ;  uncertainty r = 0.000029, k = 3.165889
        27        28     1        0.144044   245421.146436    ;  uncertainty r = 0.000125, k = 11.931988
        27        29     1        0.152876   206171.400977    ;  uncertainty r = 0.000055, k = 6.788955
        27        30     1        0.152876   206171.400977    ;  uncertainty r = 0.000055, k = 6.788955
        28        49     1        0.097136   459475.010352    ;  uncertainty r = 0.000065, k = 1.202435
        29        50     1        0.109590   310363.777637    ;  uncertainty r = 0.000004, k = 1.105606
        29        51     1        0.109590   310363.777637    ;  uncertainty r = 0.000004, k = 1.105606
        29        52     1        0.109590   310363.777637    ;  uncertainty r = 0.000004, k = 1.105606
        30        53     1        0.109590   310363.777637    ;  uncertainty r = 0.000004, k = 1.105606
        30        54     1        0.109590   310363.752100    ;  uncertainty r = 0.000004, k = 1.105619
        30        55     1        0.109590   310363.777637    ;  uncertainty r = 0.000004, k = 1.105606

[ angles ]
;       ai        aj        ak funct           theta             cth
         1         2         6     1      119.776108      552.645009    ;  uncertainty theta = 0.004852, k = 0.150328
         1         2        31     1      119.290024      269.283711    ;  uncertainty theta = 0.003574, k = 0.102631
         1         4         3     1      124.422043      528.718110    ;  uncertainty theta = 0.003508, k = 0.084816
         1         4        33     1      118.099083      271.019596    ;  uncertainty theta = 0.004016, k = 0.016276
         1        13        11     1      115.524948      456.318936    ;  uncertainty theta = 0.002929, k = 0.084964
         1        13        14     1      124.173317      521.936284    ;  uncertainty theta = 0.003655, k = 0.130633
         2         1         4     1      123.832458      467.644740    ;  uncertainty theta = 0.002092, k = 0.124991
         2         1        13     1      118.832520      336.319740    ;  uncertainty theta = 0.002498, k = 0.285073
         2         6         5     1      118.330849      399.327163    ;  uncertainty theta = 0.004069, k = 0.206543
         2         6         7     1      130.920868      342.100161    ;  uncertainty theta = 0.005413, k = 0.246314
         3         4        33     1      118.731369      285.901729    ;  uncertainty theta = 0.002284, k = 0.044639
         3         5         6     1      120.150856      384.411480    ;  uncertainty theta = 0.004787, k = 0.117462
         3         5         9     1      130.191513      397.568263    ;  uncertainty theta = 0.003272, k = 0.102030
         4         1        13     1      118.631042      344.901646    ;  uncertainty theta = 0.002886, k = 0.287094
         4         3         5     1      116.920395      527.290554    ;  uncertainty theta = 0.003908, k = 0.099179
         4         3        32     1      121.351547      280.972493    ;  uncertainty theta = 0.001883, k = 0.020745
         5         3        32     1      122.764755      290.284408    ;  uncertainty theta = 0.001693, k = 0.104531
         5         6         7     1      103.984818      709.379784    ;  uncertainty theta = 0.004798, k = 0.148845
         5         9         8     1      108.842224      996.723721    ;  uncertainty theta = 0.004081, k = 0.105419
         5         9        34     1      115.986206      285.859753    ;  uncertainty theta = 0.007695, k = 0.071788
         6         2        31     1      121.162277      289.846702    ;  uncertainty theta = 0.003858, k = 0.088926
         6         5         9     1      105.282448      701.291224    ;  uncertainty theta = 0.002660, k = 0.063345
         6         7         8     1      112.650650      860.633082    ;  uncertainty theta = 0.001637, k = 0.087469
         6         7        10     1      127.240479      339.369063    ;  uncertainty theta = 0.004499, k = 0.133350
         7         8         9     1      109.338829      911.050678    ;  uncertainty theta = 0.003490, k = 0.133446
         7        10        15     1      111.408203      538.561740    ;  uncertainty theta = 0.002686, k = 0.063134
         7        10        35     1      107.195206      404.091717    ;  uncertainty theta = 0.002677, k = 0.094742
         7        10        36     1      107.195206      404.091717    ;  uncertainty theta = 0.002677, k = 0.094742
         8         7        10     1      121.565857      408.256054    ;  uncertainty theta = 0.004764, k = 0.110630
         8         9        34     1      108.270935      348.057521    ;  uncertainty theta = 0.007607, k = 0.026261
        10        15        16     1      121.045166      422.581127    ;  uncertainty theta = 0.002275, k = 0.038270
        10        15        20     1      121.045166      422.581127    ;  uncertainty theta = 0.002275, k = 0.038270
        11        12        38     1      109.114990      463.321116    ;  uncertainty theta = 0.002020, k = 0.049188
        11        12        39     1      109.114990      463.321116    ;  uncertainty theta = 0.002020, k = 0.049188
        11        12        40     1      109.114990      463.321116    ;  uncertainty theta = 0.002020, k = 0.049188
        11        13        14     1      123.145607      774.394008    ;  uncertainty theta = 0.002863, k = 0.065807
        12        11        13     1      117.202759      444.572983    ;  uncertainty theta = 0.004194, k = 0.144387
        12        11        37     1      113.289574      324.789129    ;  uncertainty theta = 0.001730, k = 0.149038
        13        11        37     1      115.483727      336.899688    ;  uncertainty theta = 0.002435, k = 0.202507
        15        10        35     1      107.837601      399.901237    ;  uncertainty theta = 0.002249, k = 0.057837
        15        10        36     1      107.837601      399.901237    ;  uncertainty theta = 0.002249, k = 0.057837
        15        16        17     1      121.318886      514.235568    ;  uncertainty theta = 0.001778, k = 0.059752
        15        16        41     1      119.166016      270.523857    ;  uncertainty theta = 0.002269, k = 0.008290
        15        20        19     1      121.318886      514.235568    ;  uncertainty theta = 0.001778, k = 0.059752
        15        20        44     1      119.166000      270.523857    ;  uncertainty theta = 0.002269, k = 0.008290
        16        15        20     1      118.819534      462.266433    ;  uncertainty theta = 0.001838, k = 0.080865
        16        17        18     1      121.217484      515.997661    ;  uncertainty theta = 0.001896, k = 0.077715
        16        17        42     1      119.997902      290.785989    ;  uncertainty theta = 0.002435, k = 0.029685
        17        16        41     1      119.867722      290.821262    ;  uncertainty theta = 0.002696, k = 0.045566
        17        18        19     1      118.904152      401.449329    ;  uncertainty theta = 0.000792, k = 0.077724
        17        18        21     1      121.679848      440.075803    ;  uncertainty theta = 0.001242, k = 0.104233
        18        17        42     1      119.095055      282.559209    ;  uncertainty theta = 0.001574, k = 0.076416
        18        19        20     1      121.217484      515.997661    ;  uncertainty theta = 0.001896, k = 0.077715
        18        19        43     1      119.095055      282.559113    ;  uncertainty theta = 0.001574, k = 0.076417
        18        21        22     1      127.488243      347.484213    ;  uncertainty theta = 0.002888, k = 0.122842
        18        21        25     1      126.676208      352.415780    ;  uncertainty theta = 0.003317, k = 0.213411
        19        18        21     1      121.679848      440.075803    ;  uncertainty theta = 0.001242, k = 0.104233
        19        20        44     1      119.867722      290.821262    ;  uncertainty theta = 0.002696, k = 0.045566
        20        19        43     1      119.997902      290.785989    ;  uncertainty theta = 0.002435, k = 0.029685
        21        22        23     1      108.007202      710.093929    ;  uncertainty theta = 0.003103, k = 0.235450
        21        22        45     1      129.422943      225.933957    ;  uncertainty theta = 0.004469, k = 0.113376
        21        25        24     1      112.810501      882.924105    ;  uncertainty theta = 0.003416, k = 0.066598
        21        25        46     1      126.045509      241.261937    ;  uncertainty theta = 0.003924, k = 0.074257
        22        21        25     1      104.412369      684.586826    ;  uncertainty theta = 0.005078, k = 0.192022
        22        23        24     1      110.026917      978.811738    ;  uncertainty theta = 0.002378, k = 0.079908
        22        23        26     1      121.902466      389.351730    ;  uncertainty theta = 0.002828, k = 0.078160
        23        22        45     1      118.218689      268.140000    ;  uncertainty theta = 0.004445, k = 0.061706
        23        24        25     1      106.446655      898.704124    ;  uncertainty theta = 0.001487, k = 0.078688
        23        26        27     1      109.643784      600.631408    ;  uncertainty theta = 0.002098, k = 0.125783
        23        26        47     1      106.598282      467.760519    ;  uncertainty theta = 0.001353, k = 0.089161
        23        26        48     1      106.598282      467.760519    ;  uncertainty theta = 0.001353, k = 0.089161
        24        23        26     1      115.690331      461.367878    ;  uncertainty theta = 0.004102, k = 0.142714
        24        25        46     1      118.606369      286.055208    ;  uncertainty theta = 0.004083, k = 0.089865
        26        27        28     1      108.381554      623.700356    ;  uncertainty theta = 0.002463, k = 0.218940
        26        27        29     1      108.445702      512.345152    ;  uncertainty theta = 0.001419, k = 0.123342
        26        27        30     1      108.445702      512.345152    ;  uncertainty theta = 0.001419, k = 0.123342
        27        26        47     1      108.498962      376.345839    ;  uncertainty theta = 0.001871, k = 0.137127
        27        26        48     1      108.498962      376.345839    ;  uncertainty theta = 0.001871, k = 0.137127
        27        28        49     1      107.581322      467.422919    ;  uncertainty theta = 0.001212, k = 0.111632
        27        29        50     1      107.008263      377.801104    ;  uncertainty theta = 0.001140, k = 0.037654
        27        29        51     1      107.008263      377.801104    ;  uncertainty theta = 0.001140, k = 0.037654
        27        29        52     1      107.008263      377.801104    ;  uncertainty theta = 0.001140, k = 0.037654
        27        30        53     1      107.008263      377.801104    ;  uncertainty theta = 0.001140, k = 0.037654
        27        30        54     1      107.008263      377.801104    ;  uncertainty theta = 0.001140, k = 0.037654
        27        30        55     1      107.008263      377.801104    ;  uncertainty theta = 0.001140, k = 0.037654
        28        27        29     1      110.202286      694.665748    ;  uncertainty theta = 0.001837, k = 0.083771
        28        27        30     1      110.202286      694.665748    ;  uncertainty theta = 0.001837, k = 0.083771
        29        27        30     1      110.969467      561.346460    ;  uncertainty theta = 0.001317, k = 0.067913
        35        10        36     1      104.257248      312.827994    ;  uncertainty theta = 0.003792, k = 0.040478
        38        12        39     1      107.012878      321.487787    ;  uncertainty theta = 0.002661, k = 0.021791
        38        12        40     1      107.012878      321.487787    ;  uncertainty theta = 0.002661, k = 0.021791
        39        12        40     1      107.012878      321.487787    ;  uncertainty theta = 0.002661, k = 0.021791
        47        26        48     1      107.080589      321.100134    ;  uncertainty theta = 0.002018, k = 0.060001
        50        29        51     1      105.643265      318.040884    ;  uncertainty theta = 0.000805, k = 0.010998
        50        29        52     1      105.643265      318.040884    ;  uncertainty theta = 0.000805, k = 0.010998
        51        29        52     1      105.643265      318.040884    ;  uncertainty theta = 0.000805, k = 0.010998
        53        30        54     1      105.643265      318.040884    ;  uncertainty theta = 0.000805, k = 0.010998
        53        30        55     1      105.643265      318.040884    ;  uncertainty theta = 0.000805, k = 0.010998
        54        30        55     1      105.643265      318.040884    ;  uncertainty theta = 0.000805, k = 0.010998

[ dihedrals ] ; propers for gromacs 4.5 or higher, use funct 9
;       ai        aj        ak        al funct           phase               k        pn
         1         2         6         5     9        0.000000        0.125629         1    ;  uncertainty k = 0.380702
         1         2         6         5     9      180.000000       12.978592         2    ;  uncertainty k = 0.149323
         1         2         6         5     9        0.000000       -1.383969         3    ;  uncertainty k = 0.396103
         1         2         6         5     9      180.000000        0.797353         4    ;  uncertainty k = 0.202247
         1         2         6         7     9        0.000000        0.325142         1    ;  uncertainty k = 0.241650
         1         2         6         7     9      180.000000        8.114539         2    ;  uncertainty k = 0.386182
         1         2         6         7     9        0.000000        0.680937         3    ;  uncertainty k = 0.287485
         1         2         6         7     9      180.000000        1.235852         4    ;  uncertainty k = 0.133665
         1         4         3         5     9        0.000000        0.015030         1    ;  uncertainty k = 0.249477
         1         4         3         5     9      180.000000       16.540588         2    ;  uncertainty k = 0.211968
         1         4         3         5     9        0.000000       -0.194290         3    ;  uncertainty k = 0.497198
         1         4         3         5     9      180.000000        0.712331         4    ;  uncertainty k = 0.233284
         1         4         3        32     9        0.000000       -0.051117         1    ;  uncertainty k = 0.111938
         1         4         3        32     9      180.000000        9.754084         2    ;  uncertainty k = 0.656956
         1         4         3        32     9        0.000000        1.467636         3    ;  uncertainty k = 0.282914
         1         4         3        32     9      180.000000        1.830497         4    ;  uncertainty k = 0.313692
         1        13        11        12     9        0.000000        4.789197         1    ;  uncertainty k = 1.027114
         1        13        11        12     9      180.000000       12.705005         2    ;  uncertainty k = 0.239269
         1        13        11        12     9        0.000000        2.293218         3    ;  uncertainty k = 0.393456
         1        13        11        12     9      180.000000       -1.124949         4    ;  uncertainty k = 0.303384
         1        13        11        37     9        0.000000       -0.356362         1    ;  uncertainty k = 0.600602
         1        13        11        37     9      180.000000        7.718152         2    ;  uncertainty k = 0.676150
         1        13        11        37     9        0.000000        2.790951         3    ;  uncertainty k = 0.266286
         1        13        11        37     9      180.000000        0.051428         4    ;  uncertainty k = 0.420873
         2         1         4         3     9        0.000000       -0.051700         1    ;  uncertainty k = 0.203688
         2         1         4         3     9      180.000000        9.075687         2    ;  uncertainty k = 0.283250
         2         1         4         3     9        0.000000       -0.407673         3    ;  uncertainty k = 0.418648
         2         1         4         3     9      180.000000        1.128606         4    ;  uncertainty k = 0.223801
         2         1         4        33     9        0.000000        0.164836         1    ;  uncertainty k = 0.445056
         2         1         4        33     9      180.000000        6.464031         2    ;  uncertainty k = 0.432359
         2         1         4        33     9        0.000000        1.202892         3    ;  uncertainty k = 0.233746
         2         1         4        33     9      180.000000        1.549374         4    ;  uncertainty k = 0.224959
         2         1        13        11     9        0.000000       -0.152519         1    ;  uncertainty k = 0.249884
         2         1        13        11     9      180.000000        3.228438         2    ;  uncertainty k = 0.418593
         2         1        13        11     9        0.000000        0.314315         3    ;  uncertainty k = 0.208477
         2         1        13        11     9      180.000000       -0.121830         4    ;  uncertainty k = 0.079914
         2         1        13        14     9        0.000000       -0.165631         1    ;  uncertainty k = 0.601664
         2         1        13        14     9      180.000000        3.962067         2    ;  uncertainty k = 0.318736
         2         1        13        14     9        0.000000        0.331259         3    ;  uncertainty k = 0.292059
         2         1        13        14     9      180.000000       -0.059821         4    ;  uncertainty k = 0.139751
         2         6         5         3     9        0.000000       -0.385848         1    ;  uncertainty k = 0.436994
         2         6         5         3     9      180.000000        7.256451         2    ;  uncertainty k = 0.637048
         2         6         5         3     9        0.000000        0.262184         3    ;  uncertainty k = 0.227290
         2         6         5         3     9      180.000000        1.036594         4    ;  uncertainty k = 0.348675
         2         6         5         9     9        0.000000        0.074882         1    ;  uncertainty k = 0.653599
         2         6         5         9     9      180.000000        8.149280         2    ;  uncertainty k = 0.323861
         2         6         5         9     9        0.000000       -0.086823         3    ;  uncertainty k = 0.474800
         2         6         5         9     9      180.000000        1.262771         4    ;  uncertainty k = 0.353640
         2         6         7         8     9        0.000000        0.900665         1    ;  uncertainty k = 0.408262
         2         6         7         8     9      180.000000        6.181195         2    ;  uncertainty k = 0.311522
         2         6         7         8     9        0.000000        0.263887         3    ;  uncertainty k = 0.702220
         2         6         7         8     9      180.000000        0.846448         4    ;  uncertainty k = 0.116443
         2         6         7        10     9        0.000000       -0.672121         1    ;  uncertainty k = 1.014566
         2         6         7        10     9      180.000000        3.898300         2    ;  uncertainty k = 0.762404
         2         6         7        10     9        0.000000        1.363904         3    ;  uncertainty k = 0.292778
         2         6         7        10     9      180.000000        0.100685         4    ;  uncertainty k = 0.196258
         3         4         1        13     9        0.000000        0.114262         1    ;  uncertainty k = 0.338054
         3         4         1        13     9      180.000000        7.926098         2    ;  uncertainty k = 0.808325
         3         4         1        13     9        0.000000        1.514005         3    ;  uncertainty k = 0.300788
         3         4         1        13     9      180.000000        1.801910         4    ;  uncertainty k = 0.241800
         3         5         6         7     9        0.000000        0.039529         1    ;  uncertainty k = 0.454624
         3         5         6         7     9      180.000000        6.752464         2    ;  uncertainty k = 0.299383
         3         5         6         7     9        0.000000        0.184566         3    ;  uncertainty k = 0.443123
         3         5         6         7     9      180.000000        1.333062         4    ;  uncertainty k = 0.333350
         3         5         9         8     9        0.000000        0.851830         1    ;  uncertainty k = 1.080926
         3         5         9         8     9      180.000000        6.976261         2    ;  uncertainty k = 0.620103
         3         5         9         8     9        0.000000        0.547844         3    ;  uncertainty k = 0.692413
         3         5         9         8     9      180.000000        0.355562         4    ;  uncertainty k = 0.199816
         3         5         9        34     9        0.000000        1.678012         1    ;  uncertainty k = 1.047142
         3         5         9        34     9      180.000000        1.771471         2    ;  uncertainty k = 0.514806
         3         5         9        34     9        0.000000        1.346547         3    ;  uncertainty k = 0.533570
         3         5         9        34     9      180.000000        0.077494         4    ;  uncertainty k = 0.144083
         4         1         2         6     9        0.000000        0.042147         1    ;  uncertainty k = 0.418382
         4         1         2         6     9      180.000000       12.669048         2    ;  uncertainty k = 0.529104
         4         1         2         6     9        0.000000       -0.009662         3    ;  uncertainty k = 0.329780
         4         1         2         6     9      180.000000        1.108792         4    ;  uncertainty k = 0.394226
         4         1         2        31     9        0.000000        0.287836         1    ;  uncertainty k = 0.228123
         4         1         2        31     9      180.000000        8.055955         2    ;  uncertainty k = 0.369446
         4         1         2        31     9        0.000000        1.344577         3    ;  uncertainty k = 0.264675
         4         1         2        31     9      180.000000        1.719184         4    ;  uncertainty k = 0.287017
         4         1        13        11     9        0.000000        0.489271         1    ;  uncertainty k = 0.723554
         4         1        13        11     9      180.000000        3.331824         2    ;  uncertainty k = 0.333521
         4         1        13        11     9        0.000000        0.273230         3    ;  uncertainty k = 0.158705
         4         1        13        11     9      180.000000       -0.098128         4    ;  uncertainty k = 0.064913
         4         1        13        14     9        0.000000       -1.086296         1    ;  uncertainty k = 0.504309
         4         1        13        14     9      180.000000        3.795462         2    ;  uncertainty k = 0.347490
         4         1        13        14     9        0.000000        0.331862         3    ;  uncertainty k = 0.214277
         4         1        13        14     9      180.000000       -0.045720         4    ;  uncertainty k = 0.133443
         4         3         5         6     9        0.000000       -0.025107         1    ;  uncertainty k = 0.336935
         4         3         5         6     9      180.000000       12.168993         2    ;  uncertainty k = 0.165669
         4         3         5         6     9        0.000000       -1.429431         3    ;  uncertainty k = 0.448611
         4         3         5         6     9      180.000000        0.799135         4    ;  uncertainty k = 0.241618
         4         3         5         9     9        0.000000        0.101858         1    ;  uncertainty k = 0.318131
         4         3         5         9     9      180.000000       10.102838         2    ;  uncertainty k = 0.688442
         4         3         5         9     9        0.000000        0.789241         3    ;  uncertainty k = 0.243893
         4         3         5         9     9      180.000000        1.172140         4    ;  uncertainty k = 0.258288
         5         3         4        33     9        0.000000       -0.019785         1    ;  uncertainty k = 0.212714
         5         3         4        33     9      180.000000       11.549214         2    ;  uncertainty k = 0.356726
         5         3         4        33     9        0.000000        1.447938         3    ;  uncertainty k = 0.240285
         5         3         4        33     9      180.000000        1.566970         4    ;  uncertainty k = 0.280846
         5         6         2        31     9        0.000000       -0.001909         1    ;  uncertainty k = 0.461487
         5         6         2        31     9      180.000000        7.599205         2    ;  uncertainty k = 1.060636
         5         6         2        31     9        0.000000        1.279131         3    ;  uncertainty k = 0.283649
         5         6         2        31     9      180.000000        1.183489         4    ;  uncertainty k = 0.364227
         5         6         7         8     9        0.000000        0.519186         1    ;  uncertainty k = 0.586004
         5         6         7         8     9      180.000000       13.286019         2    ;  uncertainty k = 1.213128
         5         6         7         8     9        0.000000      -10.885433         3    ;  uncertainty k = 2.076862
         5         6         7         8     9      180.000000        2.087554         4    ;  uncertainty k = 0.616114
         5         6         7        10     9        0.000000        1.381005         1    ;  uncertainty k = 1.086959
         5         6         7        10     9      180.000000        8.393320         2    ;  uncertainty k = 0.564868
         5         6         7        10     9        0.000000        1.846460         3    ;  uncertainty k = 0.829549
         5         6         7        10     9      180.000000        0.288672         4    ;  uncertainty k = 0.324028
         5         9         8         7     9        0.000000       -0.732794         1    ;  uncertainty k = 0.954835
         5         9         8         7     9      180.000000       16.926646         2    ;  uncertainty k = 0.598355
         5         9         8         7     9        0.000000       -4.757043         3    ;  uncertainty k = 1.054235
         5         9         8         7     9      180.000000        1.043401         4    ;  uncertainty k = 0.539952
         6         2         1        13     9        0.000000       -0.059124         1    ;  uncertainty k = 0.382247
         6         2         1        13     9      180.000000       11.769283         2    ;  uncertainty k = 0.474793
         6         2         1        13     9        0.000000        1.558961         3    ;  uncertainty k = 0.136213
         6         2         1        13     9      180.000000        1.697066         4    ;  uncertainty k = 0.270914
         6         5         3        32     9        0.000000       -0.082808         1    ;  uncertainty k = 0.407511
         6         5         3        32     9      180.000000        6.515957         2    ;  uncertainty k = 1.128197
         6         5         3        32     9        0.000000        1.284129         3    ;  uncertainty k = 0.182900
         6         5         3        32     9      180.000000        1.092300         4    ;  uncertainty k = 0.490060
         6         5         9         8     9        0.000000        0.199563         1    ;  uncertainty k = 0.535624
         6         5         9         8     9      180.000000       17.318015         2    ;  uncertainty k = 1.037583
         6         5         9         8     9        0.000000       -8.693972         3    ;  uncertainty k = 1.678250
         6         5         9         8     9      180.000000        0.786245         4    ;  uncertainty k = 0.551361
         6         5         9        34     9        0.000000        4.181896         1    ;  uncertainty k = 2.136596
         6         5         9        34     9      180.000000        6.077364         2    ;  uncertainty k = 1.359048
         6         5         9        34     9        0.000000        1.446964         3    ;  uncertainty k = 0.313495
         6         5         9        34     9      180.000000       -0.008295         4    ;  uncertainty k = 0.147352
         6         7         8         9     9        0.000000       -0.386726         1    ;  uncertainty k = 0.588577
         6         7         8         9     9      180.000000       24.987016         2    ;  uncertainty k = 0.243297
         6         7         8         9     9        0.000000       -4.381029         3    ;  uncertainty k = 0.979814
         6         7         8         9     9      180.000000        1.986215         4    ;  uncertainty k = 0.353830
         6         7        10        15     9        0.000000       -0.267681         1    ;  uncertainty k = 0.593909
         6         7        10        15     9      180.000000        0.982479         2    ;  uncertainty k = 0.476022
         6         7        10        15     9        0.000000        0.994773         3    ;  uncertainty k = 0.176077
         6         7        10        15     9      180.000000        0.177497         4    ;  uncertainty k = 0.111607
         6         7        10        35     9        0.000000       -1.168958         1    ;  uncertainty k = 0.284668
         6         7        10        35     9      180.000000        1.771679         2    ;  uncertainty k = 0.490767
         6         7        10        35     9        0.000000        0.837385         3    ;  uncertainty k = 0.169037
         6         7        10        35     9      180.000000        0.104354         4    ;  uncertainty k = 0.068589
         6         7        10        36     9        0.000000       -1.168958         1    ;  uncertainty k = 0.284668
         6         7        10        36     9      180.000000        1.771679         2    ;  uncertainty k = 0.490767
         6         7        10        36     9        0.000000        0.837385         3    ;  uncertainty k = 0.169037
         6         7        10        36     9      180.000000        0.104354         4    ;  uncertainty k = 0.068589
         7         6         2        31     9        0.000000       -0.051610         1    ;  uncertainty k = 0.320840
         7         6         2        31     9      180.000000        5.558148         2    ;  uncertainty k = 0.816916
         7         6         2        31     9        0.000000        1.145734         3    ;  uncertainty k = 0.240363
         7         6         2        31     9      180.000000        0.679653         4    ;  uncertainty k = 0.306734
         7         6         5         9     9        0.000000       -0.360016         1    ;  uncertainty k = 0.340589
         7         6         5         9     9      180.000000       12.173777         2    ;  uncertainty k = 0.701359
         7         6         5         9     9        0.000000       -3.649526         3    ;  uncertainty k = 1.604158
         7         6         5         9     9      180.000000        1.631141         4    ;  uncertainty k = 0.584088
         7         8         9        34     9        0.000000        4.144135         1    ;  uncertainty k = 2.338578
         7         8         9        34     9      180.000000       12.929218         2    ;  uncertainty k = 0.107569
         7         8         9        34     9        0.000000        1.684855         3    ;  uncertainty k = 1.042986
         7         8         9        34     9      180.000000       -0.435064         4    ;  uncertainty k = 0.243227
         7        10        15        16     9        0.000000        0.615450         1    ;  uncertainty k = 0.167630
         7        10        15        16     9      180.000000        1.853983         2    ;  uncertainty k = 0.188927
         7        10        15        16     9        0.000000        0.526773         3    ;  uncertainty k = 0.173391
         7        10        15        16     9      180.000000        0.244261         4    ;  uncertainty k = 0.069919
         7        10        15        20     9        0.000000        0.615450         1    ;  uncertainty k = 0.167630
         7        10        15        20     9      180.000000        1.853983         2    ;  uncertainty k = 0.188927
         7        10        15        20     9        0.000000        0.526773         3    ;  uncertainty k = 0.173391
         7        10        15        20     9      180.000000        0.244261         4    ;  uncertainty k = 0.069919
         8         7        10        15     9        0.000000        1.031421         1    ;  uncertainty k = 0.400690
         8         7        10        15     9      180.000000        1.557547         2    ;  uncertainty k = 0.289374
         8         7        10        15     9        0.000000        0.020179         3    ;  uncertainty k = 0.160875
         8         7        10        15     9      180.000000        0.136006         4    ;  uncertainty k = 0.098308
         8         7        10        35     9        0.000000        1.780982         1    ;  uncertainty k = 0.113031
         8         7        10        35     9      180.000000        2.205549         2    ;  uncertainty k = 0.265227
         8         7        10        35     9        0.000000        0.158854         3    ;  uncertainty k = 0.096052
         8         7        10        35     9      180.000000        0.111225         4    ;  uncertainty k = 0.047919
         8         7        10        36     9        0.000000        1.780982         1    ;  uncertainty k = 0.113031
         8         7        10        36     9      180.000000        2.205549         2    ;  uncertainty k = 0.265227
         8         7        10        36     9        0.000000        0.158854         3    ;  uncertainty k = 0.096052
         8         7        10        36     9      180.000000        0.111225         4    ;  uncertainty k = 0.047919
         9         5         3        32     9        0.000000        0.448575         1    ;  uncertainty k = 0.396446
         9         5         3        32     9      180.000000        5.638355         2    ;  uncertainty k = 0.858183
         9         5         3        32     9        0.000000        1.145651         3    ;  uncertainty k = 0.127058
         9         5         3        32     9      180.000000        0.744521         4    ;  uncertainty k = 0.319502
         9         8         7        10     9        0.000000       -0.553410         1    ;  uncertainty k = 0.837657
         9         8         7        10     9      180.000000       25.077413         2    ;  uncertainty k = 0.175016
         9         8         7        10     9        0.000000        2.419201         3    ;  uncertainty k = 0.621653
         9         8         7        10     9      180.000000        1.110046         4    ;  uncertainty k = 0.279838
        10        15        16        17     9        0.000000        0.169204         1    ;  uncertainty k = 0.242807
        10        15        16        17     9      180.000000        8.593729         2    ;  uncertainty k = 0.401443
        10        15        16        17     9        0.000000        1.459163         3    ;  uncertainty k = 0.363057
        10        15        16        17     9      180.000000        1.890470         4    ;  uncertainty k = 0.111180
        10        15        16        41     9        0.000000       -0.145242         1    ;  uncertainty k = 0.181744
        10        15        16        41     9      180.000000        7.615666         2    ;  uncertainty k = 0.278473
        10        15        16        41     9        0.000000        0.580734         3    ;  uncertainty k = 0.342497
        10        15        16        41     9      180.000000        0.989521         4    ;  uncertainty k = 0.234579
        10        15        20        19     9        0.000000        0.169204         1    ;  uncertainty k = 0.242807
        10        15        20        19     9      180.000000        8.593729         2    ;  uncertainty k = 0.401443
        10        15        20        19     9        0.000000        1.459163         3    ;  uncertainty k = 0.363057
        10        15        20        19     9      180.000000        1.890470         4    ;  uncertainty k = 0.111180
        10        15        20        44     9        0.000000       -0.145243         1    ;  uncertainty k = 0.181743
        10        15        20        44     9      180.000000        7.615666         2    ;  uncertainty k = 0.278472
        10        15        20        44     9        0.000000        0.580734         3    ;  uncertainty k = 0.342497
        10        15        20        44     9      180.000000        0.989521         4    ;  uncertainty k = 0.234579
        12        11        13        14     9        0.000000        2.908626         1    ;  uncertainty k = 0.608893
        12        11        13        14     9      180.000000       11.020841         2    ;  uncertainty k = 0.225485
        12        11        13        14     9        0.000000        0.587180         3    ;  uncertainty k = 0.297813
        12        11        13        14     9      180.000000        0.508956         4    ;  uncertainty k = 0.213308
        13         1         2        31     9        0.000000       -0.136665         1    ;  uncertainty k = 0.379945
        13         1         2        31     9      180.000000        8.460202         2    ;  uncertainty k = 0.444612
        13         1         2        31     9        0.000000        1.140838         3    ;  uncertainty k = 0.197062
        13         1         2        31     9      180.000000        1.213531         4    ;  uncertainty k = 0.231557
        13         1         4        33     9        0.000000       -0.103676         1    ;  uncertainty k = 0.427786
        13         1         4        33     9      180.000000        7.596315         2    ;  uncertainty k = 0.428562
        13         1         4        33     9        0.000000        0.928012         3    ;  uncertainty k = 0.201145
        13         1         4        33     9      180.000000        0.967211         4    ;  uncertainty k = 0.247422
        13        11        12        38     9        0.000000        0.271065         1    ;  uncertainty k = 0.210942
        13        11        12        38     9      180.000000       -0.535012         2    ;  uncertainty k = 0.296395
        13        11        12        38     9        0.000000        0.224758         3    ;  uncertainty k = 0.092791
        13        11        12        38     9      180.000000        0.342234         4    ;  uncertainty k = 0.050181
        13        11        12        39     9        0.000000        0.271065         1    ;  uncertainty k = 0.210942
        13        11        12        39     9      180.000000       -0.535012         2    ;  uncertainty k = 0.296395
        13        11        12        39     9        0.000000        0.224758         3    ;  uncertainty k = 0.092791
        13        11        12        39     9      180.000000        0.342234         4    ;  uncertainty k = 0.050181
        13        11        12        40     9        0.000000        0.271065         1    ;  uncertainty k = 0.210942
        13        11        12        40     9      180.000000       -0.535012         2    ;  uncertainty k = 0.296395
        13        11        12        40     9        0.000000        0.224758         3    ;  uncertainty k = 0.092791
        13        11        12        40     9      180.000000        0.342234         4    ;  uncertainty k = 0.050181
        14        13        11        37     9        0.000000        3.318940         1    ;  uncertainty k = 1.151661
        14        13        11        37     9      180.000000       14.296123         2    ;  uncertainty k = 0.216662
        14        13        11        37     9        0.000000        1.586854         3    ;  uncertainty k = 0.158255
        14        13        11        37     9      180.000000       -0.472643         4    ;  uncertainty k = 0.099040
        15        16        17        18     9        0.000000       -0.087057         1    ;  uncertainty k = 0.154901
        15        16        17        18     9      180.000000       13.600436         2    ;  uncertainty k = 0.230971
        15        16        17        18     9        0.000000       -0.751784         3    ;  uncertainty k = 0.436421
        15        16        17        18     9      180.000000        0.777514         4    ;  uncertainty k = 0.245178
        15        16        17        42     9        0.000000        0.010829         1    ;  uncertainty k = 0.163132
        15        16        17        42     9      180.000000        7.805433         2    ;  uncertainty k = 0.422071
        15        16        17        42     9        0.000000        1.391790         3    ;  uncertainty k = 0.234314
        15        16        17        42     9      180.000000        1.880931         4    ;  uncertainty k = 0.189420
        15        20        19        18     9        0.000000       -0.087057         1    ;  uncertainty k = 0.154901
        15        20        19        18     9      180.000000       13.600436         2    ;  uncertainty k = 0.230971
        15        20        19        18     9        0.000000       -0.751784         3    ;  uncertainty k = 0.436421
        15        20        19        18     9      180.000000        0.777514         4    ;  uncertainty k = 0.245178
        15        20        19        43     9        0.000000        0.010827         1    ;  uncertainty k = 0.163132
        15        20        19        43     9      180.000000        7.805433         2    ;  uncertainty k = 0.422073
        15        20        19        43     9        0.000000        1.391790         3    ;  uncertainty k = 0.234314
        15        20        19        43     9      180.000000        1.880931         4    ;  uncertainty k = 0.189420
        16        15        10        35     9        0.000000       -0.300138         1    ;  uncertainty k = 0.153189
        16        15        10        35     9      180.000000        1.928373         2    ;  uncertainty k = 0.130920
        16        15        10        35     9        0.000000        0.360376         3    ;  uncertainty k = 0.118491
        16        15        10        35     9      180.000000        0.117080         4    ;  uncertainty k = 0.032968
        16        15        10        36     9        0.000000       -0.300138         1    ;  uncertainty k = 0.153189
        16        15        10        36     9      180.000000        1.928373         2    ;  uncertainty k = 0.130920
        16        15        10        36     9        0.000000        0.360376         3    ;  uncertainty k = 0.118491
        16        15        10        36     9      180.000000        0.117080         4    ;  uncertainty k = 0.032968
        16        15        20        19     9        0.000000       -0.141019         1    ;  uncertainty k = 0.190132
        16        15        20        19     9      180.000000       11.565169         2    ;  uncertainty k = 0.450751
        16        15        20        19     9        0.000000       -0.482803         3    ;  uncertainty k = 0.323947
        16        15        20        19     9      180.000000        0.820385         4    ;  uncertainty k = 0.428180
        16        15        20        44     9        0.000000        0.161510         1    ;  uncertainty k = 0.189284
        16        15        20        44     9      180.000000        7.143526         2    ;  uncertainty k = 0.548274
        16        15        20        44     9        0.000000        1.383620         3    ;  uncertainty k = 0.306740
        16        15        20        44     9      180.000000        1.646182         4    ;  uncertainty k = 0.144811
        16        17        18        19     9        0.000000        0.099530         1    ;  uncertainty k = 0.198850
        16        17        18        19     9      180.000000       10.864272         2    ;  uncertainty k = 0.250101
        16        17        18        19     9        0.000000       -0.460426         3    ;  uncertainty k = 0.291547
        16        17        18        19     9      180.000000        0.910602         4    ;  uncertainty k = 0.279798
        16        17        18        21     9        0.000000       -0.093857         1    ;  uncertainty k = 0.301271
        16        17        18        21     9      180.000000        8.913887         2    ;  uncertainty k = 0.546349
        16        17        18        21     9        0.000000        1.230932         3    ;  uncertainty k = 0.293479
        16        17        18        21     9      180.000000        1.613533         4    ;  uncertainty k = 0.231658
        17        16        15        20     9        0.000000       -0.141019         1    ;  uncertainty k = 0.190132
        17        16        15        20     9      180.000000       11.565169         2    ;  uncertainty k = 0.450751
        17        16        15        20     9        0.000000       -0.482803         3    ;  uncertainty k = 0.323947
        17        16        15        20     9      180.000000        0.820385         4    ;  uncertainty k = 0.428180
        17        18        19        20     9        0.000000        0.099530         1    ;  uncertainty k = 0.198850
        17        18        19        20     9      180.000000       10.864272         2    ;  uncertainty k = 0.250101
        17        18        19        20     9        0.000000       -0.460426         3    ;  uncertainty k = 0.291547
        17        18        19        20     9      180.000000        0.910602         4    ;  uncertainty k = 0.279798
        17        18        19        43     9        0.000000        0.071629         1    ;  uncertainty k = 0.210521
        17        18        19        43     9      180.000000        6.731318         2    ;  uncertainty k = 0.652358
        17        18        19        43     9        0.000000        1.402558         3    ;  uncertainty k = 0.275742
        17        18        19        43     9      180.000000        1.629461         4    ;  uncertainty k = 0.263941
        17        18        21        22     9        0.000000        0.403048         1    ;  uncertainty k = 0.621375
        17        18        21        22     9      180.000000        3.014987         2    ;  uncertainty k = 0.216350
        17        18        21        22     9        0.000000        0.334253         3    ;  uncertainty k = 0.305307
        17        18        21        22     9      180.000000       -0.101199         4    ;  uncertainty k = 0.072685
        17        18        21        25     9        0.000000        0.142900         1    ;  uncertainty k = 0.572927
        17        18        21        25     9      180.000000        2.789990         2    ;  uncertainty k = 0.099390
        17        18        21        25     9        0.000000        0.411888         3    ;  uncertainty k = 0.209370
        17        18        21        25     9      180.000000       -0.144680         4    ;  uncertainty k = 0.054279
        18        17        16        41     9        0.000000        0.051679         1    ;  uncertainty k = 0.047053
        18        17        16        41     9      180.000000        8.110356         2    ;  uncertainty k = 0.308213
        18        17        16        41     9        0.000000        1.348836         3    ;  uncertainty k = 0.262064
        18        17        16        41     9      180.000000        1.847919         4    ;  uncertainty k = 0.146536
        18        19        20        44     9        0.000000        0.051679         1    ;  uncertainty k = 0.047053
        18        19        20        44     9      180.000000        8.110356         2    ;  uncertainty k = 0.308214
        18        19        20        44     9        0.000000        1.348837         3    ;  uncertainty k = 0.262065
        18        19        20        44     9      180.000000        1.847919         4    ;  uncertainty k = 0.146536
        18        21        22        23     9        0.000000        0.674395         1    ;  uncertainty k = 0.887024
        18        21        22        23     9      180.000000       14.298914         2    ;  uncertainty k = 0.300866
        18        21        22        23     9        0.000000        1.507256         3    ;  uncertainty k = 0.223051
        18        21        22        23     9      180.000000        0.844858         4    ;  uncertainty k = 0.282852
        18        21        22        45     9        0.000000        0.493194         1    ;  uncertainty k = 0.396859
        18        21        22        45     9      180.000000        6.600805         2    ;  uncertainty k = 0.803423
        18        21        22        45     9        0.000000        1.353777         3    ;  uncertainty k = 0.451268
        18        21        22        45     9      180.000000        0.417911         4    ;  uncertainty k = 0.146140
        18        21        25        24     9        0.000000        0.899804         1    ;  uncertainty k = 1.347736
        18        21        25        24     9      180.000000       12.537346         2    ;  uncertainty k = 0.508245
        18        21        25        24     9        0.000000        1.844034         3    ;  uncertainty k = 0.517667
        18        21        25        24     9      180.000000        0.508834         4    ;  uncertainty k = 0.202582
        18        21        25        46     9        0.000000        0.270433         1    ;  uncertainty k = 0.810676
        18        21        25        46     9      180.000000        5.191255         2    ;  uncertainty k = 0.590866
        18        21        25        46     9        0.000000        1.350186         3    ;  uncertainty k = 0.274122
        18        21        25        46     9      180.000000        0.291541         4    ;  uncertainty k = 0.019341
        19        18        17        42     9        0.000000        0.071629         1    ;  uncertainty k = 0.210521
        19        18        17        42     9      180.000000        6.731320         2    ;  uncertainty k = 0.652358
        19        18        17        42     9        0.000000        1.402558         3    ;  uncertainty k = 0.275743
        19        18        17        42     9      180.000000        1.629461         4    ;  uncertainty k = 0.263941
        19        18        21        22     9        0.000000        0.403048         1    ;  uncertainty k = 0.621375
        19        18        21        22     9      180.000000        3.014987         2    ;  uncertainty k = 0.216350
        19        18        21        22     9        0.000000        0.334253         3    ;  uncertainty k = 0.305307
        19        18        21        22     9      180.000000       -0.101199         4    ;  uncertainty k = 0.072685
        19        18        21        25     9        0.000000        0.142900         1    ;  uncertainty k = 0.572927
        19        18        21        25     9      180.000000        2.789990         2    ;  uncertainty k = 0.099390
        19        18        21        25     9        0.000000        0.411888         3    ;  uncertainty k = 0.209370
        19        18        21        25     9      180.000000       -0.144680         4    ;  uncertainty k = 0.054279
        20        15        10        35     9        0.000000       -0.300138         1    ;  uncertainty k = 0.153189
        20        15        10        35     9      180.000000        1.928373         2    ;  uncertainty k = 0.130920
        20        15        10        35     9        0.000000        0.360376         3    ;  uncertainty k = 0.118491
        20        15        10        35     9      180.000000        0.117080         4    ;  uncertainty k = 0.032968
        20        15        10        36     9        0.000000       -0.300138         1    ;  uncertainty k = 0.153189
        20        15        10        36     9      180.000000        1.928373         2    ;  uncertainty k = 0.130920
        20        15        10        36     9        0.000000        0.360376         3    ;  uncertainty k = 0.118491
        20        15        10        36     9      180.000000        0.117080         4    ;  uncertainty k = 0.032968
        20        15        16        41     9        0.000000        0.161510         1    ;  uncertainty k = 0.189285
        20        15        16        41     9      180.000000        7.143530         2    ;  uncertainty k = 0.548274
        20        15        16        41     9        0.000000        1.383620         3    ;  uncertainty k = 0.306740
        20        15        16        41     9      180.000000        1.646182         4    ;  uncertainty k = 0.144812
        20        19        18        21     9        0.000000       -0.093857         1    ;  uncertainty k = 0.301271
        20        19        18        21     9      180.000000        8.913887         2    ;  uncertainty k = 0.546349
        20        19        18        21     9        0.000000        1.230932         3    ;  uncertainty k = 0.293479
        20        19        18        21     9      180.000000        1.613533         4    ;  uncertainty k = 0.231658
        21        18        17        42     9        0.000000       -0.288606         1    ;  uncertainty k = 0.240296
        21        18        17        42     9      180.000000        6.916327         2    ;  uncertainty k = 0.345575
        21        18        17        42     9        0.000000        0.849182         3    ;  uncertainty k = 0.109682
        21        18        17        42     9      180.000000        1.154770         4    ;  uncertainty k = 0.207278
        21        18        19        43     9        0.000000       -0.288606         1    ;  uncertainty k = 0.240296
        21        18        19        43     9      180.000000        6.916326         2    ;  uncertainty k = 0.345576
        21        18        19        43     9        0.000000        0.849182         3    ;  uncertainty k = 0.109682
        21        18        19        43     9      180.000000        1.154769         4    ;  uncertainty k = 0.207278
        21        22        23        24     9        0.000000       -0.091721         1    ;  uncertainty k = 1.166707
        21        22        23        24     9      180.000000       17.668276         2    ;  uncertainty k = 0.718526
        21        22        23        24     9        0.000000       -8.519489         3    ;  uncertainty k = 0.661720
        21        22        23        24     9      180.000000        1.181279         4    ;  uncertainty k = 0.578516
        21        22        23        26     9        0.000000        1.704351         1    ;  uncertainty k = 1.114527
        21        22        23        26     9      180.000000        9.250998         2    ;  uncertainty k = 0.627346
        21        22        23        26     9        0.000000        1.945713         3    ;  uncertainty k = 0.392557
        21        22        23        26     9      180.000000       -0.140682         4    ;  uncertainty k = 0.109092
        21        25        24        23     9        0.000000       -0.004997         1    ;  uncertainty k = 0.652119
        21        25        24        23     9      180.000000       24.828399         2    ;  uncertainty k = 0.372703
        21        25        24        23     9        0.000000       -7.449479         3    ;  uncertainty k = 0.573973
        21        25        24        23     9      180.000000        2.224184         4    ;  uncertainty k = 0.706861
        22        21        25        24     9        0.000000       -0.272209         1    ;  uncertainty k = 0.336778
        22        21        25        24     9      180.000000       14.913557         2    ;  uncertainty k = 1.072649
        22        21        25        24     9        0.000000       -8.761193         3    ;  uncertainty k = 0.787249
        22        21        25        24     9      180.000000        1.809081         4    ;  uncertainty k = 0.558939
        22        21        25        46     9        0.000000       -0.031500         1    ;  uncertainty k = 0.380165
        22        21        25        46     9      180.000000        8.045064         2    ;  uncertainty k = 0.520489
        22        21        25        46     9        0.000000        1.300580         3    ;  uncertainty k = 0.267094
        22        21        25        46     9      180.000000        0.508810         4    ;  uncertainty k = 0.162342
        22        23        24        25     9        0.000000       -0.040043         1    ;  uncertainty k = 0.766493
        22        23        24        25     9      180.000000       16.778443         2    ;  uncertainty k = 0.469429
        22        23        24        25     9        0.000000       -7.118304         3    ;  uncertainty k = 0.991389
        22        23        24        25     9      180.000000        1.593531         4    ;  uncertainty k = 0.459825
        22        23        26        27     9        0.000000        1.219992         1    ;  uncertainty k = 0.577708
        22        23        26        27     9      180.000000       -1.405167         2    ;  uncertainty k = 0.475209
        22        23        26        27     9        0.000000        0.699313         3    ;  uncertainty k = 0.296781
        22        23        26        27     9      180.000000        0.159937         4    ;  uncertainty k = 0.087492
        22        23        26        47     9        0.000000       -0.862121         1    ;  uncertainty k = 0.326572
        22        23        26        47     9      180.000000        0.002095         2    ;  uncertainty k = 0.153017
        22        23        26        47     9        0.000000        0.750272         3    ;  uncertainty k = 0.114828
        22        23        26        47     9      180.000000        0.067255         4    ;  uncertainty k = 0.048105
        22        23        26        48     9        0.000000       -0.862121         1    ;  uncertainty k = 0.326572
        22        23        26        48     9      180.000000        0.002095         2    ;  uncertainty k = 0.153017
        22        23        26        48     9        0.000000        0.750272         3    ;  uncertainty k = 0.114828
        22        23        26        48     9      180.000000        0.067255         4    ;  uncertainty k = 0.048105
        23        22        21        25     9        0.000000        0.061236         1    ;  uncertainty k = 0.216975
        23        22        21        25     9      180.000000       19.345647         2    ;  uncertainty k = 0.162795
        23        22        21        25     9        0.000000       -9.346979         3    ;  uncertainty k = 0.496669
        23        22        21        25     9      180.000000        1.642642         4    ;  uncertainty k = 0.679157
        23        24        25        46     9        0.000000        0.251502         1    ;  uncertainty k = 0.798091
        23        24        25        46     9      180.000000       22.572193         2    ;  uncertainty k = 0.442455
        23        24        25        46     9        0.000000        1.511717         3    ;  uncertainty k = 0.729431
        23        24        25        46     9      180.000000        1.282231         4    ;  uncertainty k = 0.598654
        23        26        27        28     9        0.000000       -2.974071         1    ;  uncertainty k = 0.465060
        23        26        27        28     9      180.000000       -1.652581         2    ;  uncertainty k = 0.649295
        23        26        27        28     9        0.000000        1.191528         3    ;  uncertainty k = 0.265589
        23        26        27        28     9      180.000000        0.128409         4    ;  uncertainty k = 0.206323
        23        26        27        29     9        0.000000       -1.912221         1    ;  uncertainty k = 0.524814
        23        26        27        29     9      180.000000        0.396566         2    ;  uncertainty k = 0.168993
        23        26        27        29     9        0.000000        1.102428         3    ;  uncertainty k = 0.269621
        23        26        27        29     9      180.000000       -0.068567         4    ;  uncertainty k = 0.161509
        23        26        27        30     9        0.000000       -1.912221         1    ;  uncertainty k = 0.524814
        23        26        27        30     9      180.000000        0.396566         2    ;  uncertainty k = 0.168993
        23        26        27        30     9        0.000000        1.102428         3    ;  uncertainty k = 0.269621
        23        26        27        30     9      180.000000       -0.068567         4    ;  uncertainty k = 0.161509
        24        23        22        45     9        0.000000        0.872787         1    ;  uncertainty k = 0.984892
        24        23        22        45     9      180.000000       11.807940         2    ;  uncertainty k = 0.407545
        24        23        22        45     9        0.000000        1.716696         3    ;  uncertainty k = 0.380676
        24        23        22        45     9      180.000000        0.055663         4    ;  uncertainty k = 0.247169
        24        23        26        27     9        0.000000       -0.615686         1    ;  uncertainty k = 1.083835
        24        23        26        27     9      180.000000       -1.124157         2    ;  uncertainty k = 0.494870
        24        23        26        27     9        0.000000        0.637678         3    ;  uncertainty k = 0.255917
        24        23        26        27     9      180.000000        0.161136         4    ;  uncertainty k = 0.061993
        24        23        26        47     9        0.000000        1.540144         1    ;  uncertainty k = 0.481767
        24        23        26        47     9      180.000000       -0.246088         2    ;  uncertainty k = 0.358222
        24        23        26        47     9        0.000000        0.731539         3    ;  uncertainty k = 0.160714
        24        23        26        47     9      180.000000        0.164783         4    ;  uncertainty k = 0.054510
        24        23        26        48     9        0.000000        1.540144         1    ;  uncertainty k = 0.481767
        24        23        26        48     9      180.000000       -0.246088         2    ;  uncertainty k = 0.358222
        24        23        26        48     9        0.000000        0.731539         3    ;  uncertainty k = 0.160714
        24        23        26        48     9      180.000000        0.164783         4    ;  uncertainty k = 0.054510
        25        21        22        45     9        0.000000        0.032132         1    ;  uncertainty k = 0.291050
        25        21        22        45     9      180.000000       10.573519         2    ;  uncertainty k = 0.327694
        25        21        22        45     9        0.000000        1.589774         3    ;  uncertainty k = 0.346609
        25        21        22        45     9      180.000000        0.602749         4    ;  uncertainty k = 0.190229
        25        24        23        26     9        0.000000        0.726436         1    ;  uncertainty k = 1.216114
        25        24        23        26     9      180.000000       12.468403         2    ;  uncertainty k = 0.181488
        25        24        23        26     9        0.000000        1.840482         3    ;  uncertainty k = 0.630331
        25        24        23        26     9      180.000000        0.014173         4    ;  uncertainty k = 0.208983
        26        23        22        45     9        0.000000       -0.510069         1    ;  uncertainty k = 0.401406
        26        23        22        45     9      180.000000        2.860451         2    ;  uncertainty k = 0.739707
        26        23        22        45     9        0.000000        1.125408         3    ;  uncertainty k = 0.360752
        26        23        22        45     9      180.000000        0.057609         4    ;  uncertainty k = 0.208115
        26        27        28        49     9        0.000000       16.015454         1    ;  uncertainty k = 0.106921
        26        27        28        49     9      180.000000       -4.896923         2    ;  uncertainty k = 0.522010
        26        27        28        49     9        0.000000        1.093456         3    ;  uncertainty k = 0.072585
        26        27        28        49     9      180.000000        0.470502         4    ;  uncertainty k = 0.173731
        26        27        29        50     9        0.000000       -0.593666         1    ;  uncertainty k = 0.225256
        26        27        29        50     9      180.000000       -0.963078         2    ;  uncertainty k = 0.160685
        26        27        29        50     9        0.000000        0.493221         3    ;  uncertainty k = 0.062049
        26        27        29        50     9      180.000000       -0.295568         4    ;  uncertainty k = 0.075145
        26        27        29        51     9        0.000000       -0.593666         1    ;  uncertainty k = 0.225256
        26        27        29        51     9      180.000000       -0.963078         2    ;  uncertainty k = 0.160685
        26        27        29        51     9        0.000000        0.493221         3    ;  uncertainty k = 0.062049
        26        27        29        51     9      180.000000       -0.295568         4    ;  uncertainty k = 0.075145
        26        27        29        52     9        0.000000       -0.593666         1    ;  uncertainty k = 0.225256
        26        27        29        52     9      180.000000       -0.963078         2    ;  uncertainty k = 0.160685
        26        27        29        52     9        0.000000        0.493221         3    ;  uncertainty k = 0.062049
        26        27        29        52     9      180.000000       -0.295568         4    ;  uncertainty k = 0.075145
        26        27        30        53     9        0.000000       -0.593666         1    ;  uncertainty k = 0.225256
        26        27        30        53     9      180.000000       -0.963078         2    ;  uncertainty k = 0.160685
        26        27        30        53     9        0.000000        0.493221         3    ;  uncertainty k = 0.062049
        26        27        30        53     9      180.000000       -0.295568         4    ;  uncertainty k = 0.075145
        26        27        30        54     9        0.000000       -0.593666         1    ;  uncertainty k = 0.225256
        26        27        30        54     9      180.000000       -0.963078         2    ;  uncertainty k = 0.160685
        26        27        30        54     9        0.000000        0.493221         3    ;  uncertainty k = 0.062049
        26        27        30        54     9      180.000000       -0.295568         4    ;  uncertainty k = 0.075145
        26        27        30        55     9        0.000000       -0.593666         1    ;  uncertainty k = 0.225256
        26        27        30        55     9      180.000000       -0.963078         2    ;  uncertainty k = 0.160685
        26        27        30        55     9        0.000000        0.493221         3    ;  uncertainty k = 0.062049
        26        27        30        55     9      180.000000       -0.295568         4    ;  uncertainty k = 0.075145
        28        27        26        47     9        0.000000       -0.984235         1    ;  uncertainty k = 0.464192
        28        27        26        47     9      180.000000       -0.338237         2    ;  uncertainty k = 0.232801
        28        27        26        47     9        0.000000        0.637784         3    ;  uncertainty k = 0.136957
        28        27        26        47     9      180.000000       -0.198088         4    ;  uncertainty k = 0.093826
        28        27        26        48     9        0.000000       -0.984235         1    ;  uncertainty k = 0.464192
        28        27        26        48     9      180.000000       -0.338237         2    ;  uncertainty k = 0.232801
        28        27        26        48     9        0.000000        0.637784         3    ;  uncertainty k = 0.136957
        28        27        26        48     9      180.000000       -0.198088         4    ;  uncertainty k = 0.093826
        28        27        29        50     9        0.000000       -2.062209         1    ;  uncertainty k = 0.473501
        28        27        29        50     9      180.000000       -0.970788         2    ;  uncertainty k = 0.234263
        28        27        29        50     9        0.000000        0.810606         3    ;  uncertainty k = 0.070732
        28        27        29        50     9      180.000000       -0.206272         4    ;  uncertainty k = 0.038977
        28        27        29        51     9        0.000000       -2.062209         1    ;  uncertainty k = 0.473501
        28        27        29        51     9      180.000000       -0.970788         2    ;  uncertainty k = 0.234263
        28        27        29        51     9        0.000000        0.810606         3    ;  uncertainty k = 0.070732
        28        27        29        51     9      180.000000       -0.206272         4    ;  uncertainty k = 0.038977
        28        27        29        52     9        0.000000       -2.062209         1    ;  uncertainty k = 0.473501
        28        27        29        52     9      180.000000       -0.970788         2    ;  uncertainty k = 0.234263
        28        27        29        52     9        0.000000        0.810606         3    ;  uncertainty k = 0.070732
        28        27        29        52     9      180.000000       -0.206272         4    ;  uncertainty k = 0.038977
        28        27        30        53     9        0.000000       -2.062209         1    ;  uncertainty k = 0.473501
        28        27        30        53     9      180.000000       -0.970788         2    ;  uncertainty k = 0.234263
        28        27        30        53     9        0.000000        0.810606         3    ;  uncertainty k = 0.070732
        28        27        30        53     9      180.000000       -0.206272         4    ;  uncertainty k = 0.038977
        28        27        30        54     9        0.000000       -2.062209         1    ;  uncertainty k = 0.473501
        28        27        30        54     9      180.000000       -0.970788         2    ;  uncertainty k = 0.234263
        28        27        30        54     9        0.000000        0.810606         3    ;  uncertainty k = 0.070732
        28        27        30        54     9      180.000000       -0.206272         4    ;  uncertainty k = 0.038977
        28        27        30        55     9        0.000000       -2.062209         1    ;  uncertainty k = 0.473501
        28        27        30        55     9      180.000000       -0.970788         2    ;  uncertainty k = 0.234263
        28        27        30        55     9        0.000000        0.810606         3    ;  uncertainty k = 0.070732
        28        27        30        55     9      180.000000       -0.206272         4    ;  uncertainty k = 0.038977
        29        27        26        47     9        0.000000       -1.271098         1    ;  uncertainty k = 0.366221
        29        27        26        47     9      180.000000        0.245789         2    ;  uncertainty k = 0.241841
        29        27        26        47     9        0.000000        0.154645         3    ;  uncertainty k = 0.103584
        29        27        26        47     9      180.000000       -0.153146         4    ;  uncertainty k = 0.092654
        29        27        26        48     9        0.000000       -1.271098         1    ;  uncertainty k = 0.366221
        29        27        26        48     9      180.000000        0.245789         2    ;  uncertainty k = 0.241841
        29        27        26        48     9        0.000000        0.154645         3    ;  uncertainty k = 0.103584
        29        27        26        48     9      180.000000       -0.153146         4    ;  uncertainty k = 0.092654
        29        27        28        49     9        0.000000       16.243657         1    ;  uncertainty k = 0.115226
        29        27        28        49     9      180.000000       -2.284792         2    ;  uncertainty k = 0.477465
        29        27        28        49     9        0.000000        0.981108         3    ;  uncertainty k = 0.138287
        29        27        28        49     9      180.000000        0.500665         4    ;  uncertainty k = 0.084634
        29        27        30        53     9        0.000000       -0.954236         1    ;  uncertainty k = 0.309921
        29        27        30        53     9      180.000000       -0.119489         2    ;  uncertainty k = 0.193502
        29        27        30        53     9        0.000000        0.648297         3    ;  uncertainty k = 0.113429
        29        27        30        53     9      180.000000       -0.047283         4    ;  uncertainty k = 0.069132
        29        27        30        54     9        0.000000       -0.954236         1    ;  uncertainty k = 0.309921
        29        27        30        54     9      180.000000       -0.119489         2    ;  uncertainty k = 0.193502
        29        27        30        54     9        0.000000        0.648297         3    ;  uncertainty k = 0.113429
        29        27        30        54     9      180.000000       -0.047283         4    ;  uncertainty k = 0.069132
        29        27        30        55     9        0.000000       -0.954236         1    ;  uncertainty k = 0.309921
        29        27        30        55     9      180.000000       -0.119489         2    ;  uncertainty k = 0.193502
        29        27        30        55     9        0.000000        0.648297         3    ;  uncertainty k = 0.113429
        29        27        30        55     9      180.000000       -0.047283         4    ;  uncertainty k = 0.069132
        30        27        26        47     9        0.000000       -1.271098         1    ;  uncertainty k = 0.366221
        30        27        26        47     9      180.000000        0.245789         2    ;  uncertainty k = 0.241841
        30        27        26        47     9        0.000000        0.154645         3    ;  uncertainty k = 0.103584
        30        27        26        47     9      180.000000       -0.153146         4    ;  uncertainty k = 0.092654
        30        27        26        48     9        0.000000       -1.271098         1    ;  uncertainty k = 0.366221
        30        27        26        48     9      180.000000        0.245789         2    ;  uncertainty k = 0.241841
        30        27        26        48     9        0.000000        0.154645         3    ;  uncertainty k = 0.103584
        30        27        26        48     9      180.000000       -0.153146         4    ;  uncertainty k = 0.092654
        30        27        28        49     9        0.000000       16.243657         1    ;  uncertainty k = 0.115226
        30        27        28        49     9      180.000000       -2.284792         2    ;  uncertainty k = 0.477465
        30        27        28        49     9        0.000000        0.981108         3    ;  uncertainty k = 0.138287
        30        27        28        49     9      180.000000        0.500665         4    ;  uncertainty k = 0.084634
        30        27        29        50     9        0.000000       -0.954236         1    ;  uncertainty k = 0.309921
        30        27        29        50     9      180.000000       -0.119489         2    ;  uncertainty k = 0.193502
        30        27        29        50     9        0.000000        0.648297         3    ;  uncertainty k = 0.113429
        30        27        29        50     9      180.000000       -0.047283         4    ;  uncertainty k = 0.069132
        30        27        29        51     9        0.000000       -0.954236         1    ;  uncertainty k = 0.309921
        30        27        29        51     9      180.000000       -0.119489         2    ;  uncertainty k = 0.193502
        30        27        29        51     9        0.000000        0.648297         3    ;  uncertainty k = 0.113429
        30        27        29        51     9      180.000000       -0.047283         4    ;  uncertainty k = 0.069132
        30        27        29        52     9        0.000000       -0.954236         1    ;  uncertainty k = 0.309921
        30        27        29        52     9      180.000000       -0.119489         2    ;  uncertainty k = 0.193502
        30        27        29        52     9        0.000000        0.648297         3    ;  uncertainty k = 0.113429
        30        27        29        52     9      180.000000       -0.047283         4    ;  uncertainty k = 0.069132
        32         3         4        33     9        0.000000       -0.105139         1    ;  uncertainty k = 0.445868
        32         3         4        33     9      180.000000        8.058792         2    ;  uncertainty k = 0.272877
        32         3         4        33     9        0.000000       -0.175321         3    ;  uncertainty k = 0.177486
        32         3         4        33     9      180.000000        0.287040         4    ;  uncertainty k = 0.200176
        37        11        12        38     9        0.000000       -0.221553         1    ;  uncertainty k = 0.185359
        37        11        12        38     9      180.000000       -1.047189         2    ;  uncertainty k = 0.167691
        37        11        12        38     9        0.000000        0.476718         3    ;  uncertainty k = 0.065685
        37        11        12        38     9      180.000000        0.159229         4    ;  uncertainty k = 0.070112
        37        11        12        39     9        0.000000       -0.221553         1    ;  uncertainty k = 0.185359
        37        11        12        39     9      180.000000       -1.047189         2    ;  uncertainty k = 0.167691
        37        11        12        39     9        0.000000        0.476718         3    ;  uncertainty k = 0.065685
        37        11        12        39     9      180.000000        0.159229         4    ;  uncertainty k = 0.070112
        37        11        12        40     9        0.000000       -0.221553         1    ;  uncertainty k = 0.185359
        37        11        12        40     9      180.000000       -1.047189         2    ;  uncertainty k = 0.167691
        37        11        12        40     9        0.000000        0.476718         3    ;  uncertainty k = 0.065685
        37        11        12        40     9      180.000000        0.159229         4    ;  uncertainty k = 0.070112
        41        16        17        42     9        0.000000       -0.105048         1    ;  uncertainty k = 0.079024
        41        16        17        42     9      180.000000        7.802567         2    ;  uncertainty k = 0.370707
        41        16        17        42     9        0.000000       -0.520984         3    ;  uncertainty k = 0.249529
        41        16        17        42     9      180.000000        0.209880         4    ;  uncertainty k = 0.188642
        43        19        20        44     9        0.000000       -0.105047         1    ;  uncertainty k = 0.079025
        43        19        20        44     9      180.000000        7.802566         2    ;  uncertainty k = 0.370707
        43        19        20        44     9        0.000000       -0.520984         3    ;  uncertainty k = 0.249530
        43        19        20        44     9      180.000000        0.209880         4    ;  uncertainty k = 0.188643

[ dihedrals ] ; impropers
;       ai        aj        ak        al funct           phase               k        pn
         1         2         4        13     4      180.000000        6.582133         2    ;  uncertainty k = 0.207573
         1         4        13         2     4      180.000000        6.582133         2    ;  uncertainty k = 0.207573
         1        13         2         4     4      180.000000        6.582133         2    ;  uncertainty k = 0.207573
         2         1         6        31     4      180.000000        5.259542         2    ;  uncertainty k = 0.249666
         2         6        31         1     4      180.000000        5.259542         2    ;  uncertainty k = 0.249666
         2        31         1         6     4      180.000000        5.259542         2    ;  uncertainty k = 0.249666
         3         4         5        32     4      180.000000        2.311019         2    ;  uncertainty k = 0.299231
         3         5        32         4     4      180.000000        2.311019         2    ;  uncertainty k = 0.299231
         3        32         4         5     4      180.000000        2.311019         2    ;  uncertainty k = 0.299231
         4         1         3        33     4      180.000000        4.235064         2    ;  uncertainty k = 0.145743
         4         3        33         1     4      180.000000        4.235064         2    ;  uncertainty k = 0.145743
         4        33         1         3     4      180.000000        4.235064         2    ;  uncertainty k = 0.145743
         5         3         6         9     4      180.000000        1.603037         2    ;  uncertainty k = 0.899835
         5         6         9         3     4      180.000000        1.603037         2    ;  uncertainty k = 0.899835
         5         9         3         6     4      180.000000        1.603037         2    ;  uncertainty k = 0.899835
         7         6         8        10     4      180.000000        7.571252         2    ;  uncertainty k = 0.247147
         7         8        10         6     4      180.000000        7.571252         2    ;  uncertainty k = 0.247147
         7        10         6         8     4      180.000000        7.571252         2    ;  uncertainty k = 0.247147
        13         1        11        14     4      180.000000       51.366033         2    ;  uncertainty k = 0.016901
        13        11        14         1     4      180.000000       51.366033         2    ;  uncertainty k = 0.016901
        13        14         1        11     4      180.000000       51.366033         2    ;  uncertainty k = 0.016901
        15        10        16        20     4      180.000000       13.443226         2    ;  uncertainty k = 0.081656
        15        16        20        10     4      180.000000       13.443226         2    ;  uncertainty k = 0.081656
        15        20        10        16     4      180.000000       13.443226         2    ;  uncertainty k = 0.081656
        16        15        17        41     4      180.000000        4.038197         2    ;  uncertainty k = 0.126249
        16        17        41        15     4      180.000000        4.038197         2    ;  uncertainty k = 0.126249
        16        41        15        17     4      180.000000        4.038197         2    ;  uncertainty k = 0.126249
        17        16        18        42     4      180.000000        3.634538         2    ;  uncertainty k = 0.167362
        17        18        42        16     4      180.000000        3.634538         2    ;  uncertainty k = 0.167362
        17        42        16        18     4      180.000000        3.634538         2    ;  uncertainty k = 0.167362
        18        17        19        21     4      180.000000       14.879297         2    ;  uncertainty k = 0.087358
        18        19        21        17     4      180.000000       14.879297         2    ;  uncertainty k = 0.087358
        18        21        17        19     4      180.000000       14.879297         2    ;  uncertainty k = 0.087358
        19        18        20        43     4      180.000000        3.634538         2    ;  uncertainty k = 0.167362
        19        20        43        18     4      180.000000        3.634538         2    ;  uncertainty k = 0.167362
        19        43        18        20     4      180.000000        3.634538         2    ;  uncertainty k = 0.167362
        20        15        19        44     4      180.000000        4.038198         2    ;  uncertainty k = 0.126249
        20        19        44        15     4      180.000000        4.038198         2    ;  uncertainty k = 0.126249
        20        44        15        19     4      180.000000        4.038198         2    ;  uncertainty k = 0.126249
        21        18        22        25     4      180.000000        2.340938         2    ;  uncertainty k = 0.454786
        21        22        25        18     4      180.000000        2.340938         2    ;  uncertainty k = 0.454786
        21        25        18        22     4      180.000000        2.340938         2    ;  uncertainty k = 0.454786
        22        21        23        45     4      180.000000        1.098760         2    ;  uncertainty k = 0.795551
        22        23        45        21     4      180.000000        1.098760         2    ;  uncertainty k = 0.795551
        22        45        21        23     4      180.000000        1.098760         2    ;  uncertainty k = 0.795551
        25        21        24        46     4      180.000000        0.541307         2    ;  uncertainty k = 0.440886
        25        24        46        21     4      180.000000        0.541307         2    ;  uncertainty k = 0.440886
        25        46        21        24     4      180.000000        0.541307         2    ;  uncertainty k = 0.440886

[ pairs ]
;       ai        aj funct
         1         5     1
         1         7     1
         1        12     1
         1        32     1
         1        37     1
         2         3     1
         2         8     1
         2         9     1
         2        10     1
         2        11     1
         2        14     1
         2        33     1
         3         7     1
         3         8     1
         3        13     1
         3        34     1
         4         6     1
         4         9     1
         4        11     1
         4        14     1
         4        31     1
         5        10     1
         5        31     1
         5        33     1
         6        13     1
         6        15     1
         6        32     1
         6        34     1
         6        35     1
         6        36     1
         7        16     1
         7        20     1
         7        31     1
         7        34     1
         8        15     1
         8        35     1
         8        36     1
         9        10     1
         9        32     1
        10        17     1
        10        19     1
        10        41     1
        10        44     1
        12        14     1
        13        31     1
        13        33     1
        13        38     1
        13        39     1
        13        40     1
        14        37     1
        15        18     1
        15        42     1
        15        43     1
        16        19     1
        16        21     1
        16        35     1
        16        36     1
        16        44     1
        17        20     1
        17        22     1
        17        25     1
        17        43     1
        18        23     1
        18        24     1
        18        41     1
        18        44     1
        18        45     1
        18        46     1
        19        22     1
        19        25     1
        19        42     1
        20        21     1
        20        35     1
        20        36     1
        20        41     1
        21        26     1
        21        42     1
        21        43     1
        22        27     1
        22        46     1
        22        47     1
        22        48     1
        23        28     1
        23        29     1
        23        30     1
        23        46     1
        24        27     1
        24        45     1
        24        47     1
        24        48     1
        25        26     1
        25        45     1
        26        45     1
        26        49     1
        26        50     1
        26        51     1
        26        52     1
        26        53     1
        26        54     1
        26        55     1
        28        47     1
        28        48     1
        28        50     1
        28        51     1
        28        52     1
        28        53     1
        28        54     1
        28        55     1
        29        47     1
        29        48     1
        29        49     1
        29        53     1
        29        54     1
        29        55     1
        30        47     1
        30        48     1
        30        49     1
        30        50     1
        30        51     1
        30        52     1
        32        33     1
        37        38     1
        37        39     1
        37        40     1
        41        42     1
        43        44     1
