; ITP file created by ByteFF-joint-25, 2026-02-17 09:08:42.053691

[ atomtypes ]
;name           bonded.type        at.num        mass        charge   ptype           sigma         epsilon
 c0bf                                   6      0.0000       0.00000       A     3.31544e-01     4.13347e-01    ;  uncertainty sigma = 0.000007, epsilon = 0.001129
 c1bf                                   6      0.0000       0.00000       A     3.31511e-01     4.13162e-01    ;  uncertainty sigma = 0.000006, epsilon = 0.000391
 c2bf                                   6      0.0000       0.00000       A     3.31520e-01     4.13343e-01    ;  uncertainty sigma = 0.000006, epsilon = 0.000781
 c3bf                                   6      0.0000       0.00000       A     3.31523e-01     4.13513e-01    ;  uncertainty sigma = 0.000007, epsilon = 0.000528
 c4bf                                   6      0.0000       0.00000       A     3.31512e-01     4.13146e-01    ;  uncertainty sigma = 0.000007, epsilon = 0.000907
 c5bf                                   6      0.0000       0.00000       A     3.31531e-01     4.13318e-01    ;  uncertainty sigma = 0.000007, epsilon = 0.000465
 c6bf                                   6      0.0000       0.00000       A     3.31511e-01     4.13778e-01    ;  uncertainty sigma = 0.000012, epsilon = 0.000515
 n7bf                                   7      0.0000       0.00000       A     3.38378e-01     3.93289e-01    ;  uncertainty sigma = 0.000011, epsilon = 0.000859
 n8bf                                   7      0.0000       0.00000       A     3.20594e-01     8.54239e-01    ;  uncertainty sigma = 0.000008, epsilon = 0.000871
 c9bf                                   6      0.0000       0.00000       A     3.39770e-01     4.50677e-01    ;  uncertainty sigma = 0.000014, epsilon = 0.000932
 c10bf                                  6      0.0000       0.00000       A     3.31486e-01     4.12106e-01    ;  uncertainty sigma = 0.000018, epsilon = 0.001538
 c11bf                                  6      0.0000       0.00000       A     3.31526e-01     4.13322e-01    ;  uncertainty sigma = 0.000007, epsilon = 0.000745
 c12bf                                  6      0.0000       0.00000       A     3.31523e-01     4.13371e-01    ;  uncertainty sigma = 0.000005, epsilon = 0.000423
 c13bf                                  6      0.0000       0.00000       A     3.31520e-01     4.13353e-01    ;  uncertainty sigma = 0.000004, epsilon = 0.000667
 c14bf                                  6      0.0000       0.00000       A     3.31533e-01     4.13284e-01    ;  uncertainty sigma = 0.000006, epsilon = 0.001098
 c15bf                                  6      0.0000       0.00000       A     3.31520e-01     4.13353e-01    ;  uncertainty sigma = 0.000004, epsilon = 0.000667
 c16bf                                  6      0.0000       0.00000       A     3.31523e-01     4.13371e-01    ;  uncertainty sigma = 0.000005, epsilon = 0.000423
 c17bf                                  6      0.0000       0.00000       A     3.31535e-01     4.13223e-01    ;  uncertainty sigma = 0.000005, epsilon = 0.000899
 c18bf                                  6      0.0000       0.00000       A     3.31521e-01     4.13333e-01    ;  uncertainty sigma = 0.000008, epsilon = 0.000598
 n19bf                                  7      0.0000       0.00000       A     3.20584e-01     8.54185e-01    ;  uncertainty sigma = 0.000011, epsilon = 0.001160
 n20bf                                  7      0.0000       0.00000       A     3.38434e-01     3.93690e-01    ;  uncertainty sigma = 0.000004, epsilon = 0.000785
 c21bf                                  6      0.0000       0.00000       A     3.31536e-01     4.13003e-01    ;  uncertainty sigma = 0.000006, epsilon = 0.000684
 c22bf                                  6      0.0000       0.00000       A     3.39777e-01     4.50912e-01    ;  uncertainty sigma = 0.000003, epsilon = 0.000595
 n23bf                                  7      0.0000       0.00000       A     3.20620e-01     8.54152e-01    ;  uncertainty sigma = 0.000022, epsilon = 0.002254
 c24bf                                  6      0.0000       0.00000       A     3.31527e-01     4.12948e-01    ;  uncertainty sigma = 0.000005, epsilon = 0.001184
 c25bf                                  6      0.0000       0.00000       A     3.31527e-01     4.13447e-01    ;  uncertainty sigma = 0.000007, epsilon = 0.000635
 n26bf                                  7      0.0000       0.00000       A     3.38422e-01     3.93710e-01    ;  uncertainty sigma = 0.000024, epsilon = 0.000543
 c27bf                                  6      0.0000       0.00000       A     3.39766e-01     4.50709e-01    ;  uncertainty sigma = 0.000005, epsilon = 0.000818
 h28bf                                  1      0.0000       0.00000       A     2.62571e-01     6.70076e-02    ;  uncertainty sigma = 0.000012, epsilon = 0.000685
 h29bf                                  1      0.0000       0.00000       A     2.62571e-01     6.70073e-02    ;  uncertainty sigma = 0.000009, epsilon = 0.000481
 h30bf                                  1      0.0000       0.00000       A     2.62566e-01     6.71654e-02    ;  uncertainty sigma = 0.000010, epsilon = 0.000553
 h31bf                                  1      0.0000       0.00000       A     1.10648e-01     4.14022e-02    ;  uncertainty sigma = 0.000065, epsilon = 0.000771
 h32bf                                  1      0.0000       0.00000       A     2.60075e-01     8.67590e-02    ;  uncertainty sigma = 0.000029, epsilon = 0.000876
 h33bf                                  1      0.0000       0.00000       A     2.60075e-01     8.67590e-02    ;  uncertainty sigma = 0.000029, epsilon = 0.000876
 h34bf                                  1      0.0000       0.00000       A     2.62562e-01     6.71169e-02    ;  uncertainty sigma = 0.000007, epsilon = 0.000513
 h35bf                                  1      0.0000       0.00000       A     2.62566e-01     6.70543e-02    ;  uncertainty sigma = 0.000011, epsilon = 0.000444
 h36bf                                  1      0.0000       0.00000       A     2.62566e-01     6.70543e-02    ;  uncertainty sigma = 0.000011, epsilon = 0.000444
 h37bf                                  1      0.0000       0.00000       A     2.62562e-01     6.71171e-02    ;  uncertainty sigma = 0.000007, epsilon = 0.000513
 h38bf                                  1      0.0000       0.00000       A     2.53668e-01     6.70573e-02    ;  uncertainty sigma = 0.000029, epsilon = 0.000503
 h39bf                                  1      0.0000       0.00000       A     2.53681e-01     6.72123e-02    ;  uncertainty sigma = 0.000016, epsilon = 0.000497
 h40bf                                  1      0.0000       0.00000       A     2.42209e-01     8.68411e-02    ;  uncertainty sigma = 0.000019, epsilon = 0.000599
 h41bf                                  1      0.0000       0.00000       A     2.42209e-01     8.68411e-02    ;  uncertainty sigma = 0.000019, epsilon = 0.000599
 h42bf                                  1      0.0000       0.00000       A     2.42209e-01     8.68411e-02    ;  uncertainty sigma = 0.000019, epsilon = 0.000599
 h43bf                                  1      0.0000       0.00000       A     2.53670e-01     6.71036e-02    ;  uncertainty sigma = 0.000025, epsilon = 0.000664
 h44bf                                  1      0.0000       0.00000       A     2.53609e-01     6.68527e-02    ;  uncertainty sigma = 0.000016, epsilon = 0.000612
 h45bf                                  1      0.0000       0.00000       A     2.42220e-01     8.69363e-02    ;  uncertainty sigma = 0.000013, epsilon = 0.000580
 h46bf                                  1      0.0000       0.00000       A     2.42220e-01     8.69363e-02    ;  uncertainty sigma = 0.000013, epsilon = 0.000580
 h47bf                                  1      0.0000       0.00000       A     2.42220e-01     8.69363e-02    ;  uncertainty sigma = 0.000013, epsilon = 0.000580

[ moleculetype ]
;name             nrexcl
 MOL                   3

[ atoms ]
;       nr            type      resi   res      atom      cgnr      charge          mass ; qtot
         1            c0bf         1   UNL        c0         1    -0.16762       12.0110 ; qtot   -0.168
         2            c1bf         1   UNL        c1         2    -0.02038       12.0110 ; qtot   -0.188
         3            c2bf         1   UNL        c2         3    -0.15966       12.0110 ; qtot   -0.348
         4            c3bf         1   UNL        c3         4    -0.06929       12.0110 ; qtot   -0.417
         5            c4bf         1   UNL        c4         5    -0.00782       12.0110 ; qtot   -0.425
         6            c5bf         1   UNL        c5         6    -0.23191       12.0110 ; qtot   -0.657
         7            c6bf         1   UNL        c6         7     0.37029       12.0110 ; qtot   -0.286
         8            n7bf         1   UNL        n7         8    -0.50734       14.0070 ; qtot   -0.794
         9            n8bf         1   UNL        n8         9    -0.03405       14.0070 ; qtot   -0.828
        10            c9bf         1   UNL        c9        10    -0.04561       12.0110 ; qtot   -0.873
        11           c10bf         1   UNL       c10        11     0.45592       12.0110 ; qtot   -0.417
        12           c11bf         1   UNL       c11        12    -0.08175       12.0110 ; qtot   -0.499
        13           c12bf         1   UNL       c12        13    -0.11939       12.0110 ; qtot   -0.619
        14           c13bf         1   UNL       c13        14    -0.12732       12.0110 ; qtot   -0.746
        15           c14bf         1   UNL       c14        15     0.00918       12.0110 ; qtot   -0.737
        16           c15bf         1   UNL       c15        16    -0.12732       12.0110 ; qtot   -0.864
        17           c16bf         1   UNL       c16        17    -0.11939       12.0110 ; qtot   -0.983
        18           c17bf         1   UNL       c17        18    -0.22601       12.0110 ; qtot   -1.209
        19           c18bf         1   UNL       c18        19    -0.11441       12.0110 ; qtot   -1.324
        20           n19bf         1   UNL       n19        20     0.08671       14.0070 ; qtot   -1.237
        21           n20bf         1   UNL       n20        21    -0.52298       14.0070 ; qtot   -1.760
        22           c21bf         1   UNL       c21        22     0.31766       12.0110 ; qtot   -1.442
        23           c22bf         1   UNL       c22        23     0.04276       12.0110 ; qtot   -1.400
        24           n23bf         1   UNL       n23        24    -0.19809       14.0070 ; qtot   -1.598
        25           c24bf         1   UNL       c24        25    -0.25861       12.0110 ; qtot   -1.856
        26           c25bf         1   UNL       c25        26     0.29383       12.0110 ; qtot   -1.563
        27           n26bf         1   UNL       n26        27    -0.67240       14.0070 ; qtot   -2.235
        28           c27bf         1   UNL       c27        28     0.02973       12.0110 ; qtot   -2.205
        29           h28bf         1   UNL       h28        29     0.15165        1.0080 ; qtot   -2.054
        30           h29bf         1   UNL       h29        30     0.14316        1.0080 ; qtot   -1.910
        31           h30bf         1   UNL       h30        31     0.14633        1.0080 ; qtot   -1.764
        32           h31bf         1   UNL       h31        32     0.32635        1.0080 ; qtot   -1.438
        33           h32bf         1   UNL       h32        33     0.06335        1.0080 ; qtot   -1.374
        34           h33bf         1   UNL       h33        34     0.06335        1.0080 ; qtot   -1.311
        35           h34bf         1   UNL       h34        35     0.13610        1.0080 ; qtot   -1.175
        36           h35bf         1   UNL       h35        36     0.13384        1.0080 ; qtot   -1.041
        37           h36bf         1   UNL       h36        37     0.13384        1.0080 ; qtot   -0.907
        38           h37bf         1   UNL       h37        38     0.13610        1.0080 ; qtot   -0.771
        39           h38bf         1   UNL       h38        39     0.17330        1.0080 ; qtot   -0.598
        40           h39bf         1   UNL       h39        40     0.03867        1.0080 ; qtot   -0.559
        41           h40bf         1   UNL       h40        41     0.05820        1.0080 ; qtot   -0.501
        42           h41bf         1   UNL       h41        42     0.05820        1.0080 ; qtot   -0.443
        43           h42bf         1   UNL       h42        43     0.05820        1.0080 ; qtot   -0.385
        44           h43bf         1   UNL       h43        44     0.17624        1.0080 ; qtot   -0.208
        45           h44bf         1   UNL       h44        45     0.04072        1.0080 ; qtot   -0.168
        46           h45bf         1   UNL       h45        46     0.05589        1.0080 ; qtot   -0.112
        47           h46bf         1   UNL       h46        47     0.05589        1.0080 ; qtot   -0.056
        48           h47bf         1   UNL       h47        48     0.05589        1.0080 ; qtot   -0.000

[ bonds ]
;       ai        aj funct               r               k
         1         2     1        0.139268   349840.343701    ;  uncertainty r = 0.000083, k = 2.972778
         1         4     1        0.142303   334246.771826    ;  uncertainty r = 0.000089, k = 5.098278
         1        11     1        0.146790   284486.845947    ;  uncertainty r = 0.000081, k = 4.156529
         2         6     1        0.139977   361042.017969    ;  uncertainty r = 0.000117, k = 2.757179
         2        29     1        0.108718   333426.673096    ;  uncertainty r = 0.000053, k = 1.750984
         3         4     1        0.138397   368664.283301    ;  uncertainty r = 0.000039, k = 1.948627
         3         5     1        0.140233   362687.220703    ;  uncertainty r = 0.000041, k = 4.919605
         3        30     1        0.108858   335581.826367    ;  uncertainty r = 0.000007, k = 1.648981
         4        31     1        0.108666   333372.891943    ;  uncertainty r = 0.000025, k = 2.332079
         5         6     1        0.141742   400720.889014    ;  uncertainty r = 0.000057, k = 7.670968
         5         9     1        0.137292   299765.162207    ;  uncertainty r = 0.000058, k = 10.633121
         6         7     1        0.144212   226824.436035    ;  uncertainty r = 0.000121, k = 6.947722
         7         8     1        0.132774   463844.716211    ;  uncertainty r = 0.000101, k = 7.679810
         7        10     1        0.150172   237181.879004    ;  uncertainty r = 0.000064, k = 4.454022
         8         9     1        0.136819   297875.211816    ;  uncertainty r = 0.000034, k = 11.449749
         9        32     1        0.101020   416476.391699    ;  uncertainty r = 0.000031, k = 2.687214
        10        12     1        0.151795   233478.870459    ;  uncertainty r = 0.000063, k = 3.628626
        10        33     1        0.109648   308979.130029    ;  uncertainty r = 0.000023, k = 1.425937
        10        34     1        0.109648   308979.130029    ;  uncertainty r = 0.000023, k = 1.425937
        11        24     1        0.138062   270204.068359    ;  uncertainty r = 0.000087, k = 10.470481
        11        27     1        0.133092   447789.841992    ;  uncertainty r = 0.000057, k = 15.782584
        12        13     1        0.139794   355474.059863    ;  uncertainty r = 0.000028, k = 2.352255
        12        17     1        0.139794   355474.059863    ;  uncertainty r = 0.000028, k = 2.352255
        13        14     1        0.139338   362972.291455    ;  uncertainty r = 0.000020, k = 2.159620
        13        35     1        0.108902   333492.329004    ;  uncertainty r = 0.000022, k = 1.112447
        14        15     1        0.140253   353391.993799    ;  uncertainty r = 0.000028, k = 3.610471
        14        36     1        0.108868   334958.771973    ;  uncertainty r = 0.000030, k = 0.809239
        15        16     1        0.140253   353391.993799    ;  uncertainty r = 0.000028, k = 3.610472
        15        18     1        0.146652   274345.727832    ;  uncertainty r = 0.000041, k = 6.994044
        16        17     1        0.139338   362972.291455    ;  uncertainty r = 0.000020, k = 2.159629
        16        37     1        0.108868   334958.771973    ;  uncertainty r = 0.000030, k = 0.809236
        17        38     1        0.108902   333492.303467    ;  uncertainty r = 0.000022, k = 1.112442
        18        19     1        0.139092   414208.236719    ;  uncertainty r = 0.000013, k = 2.977949
        18        22     1        0.142427   245231.890918    ;  uncertainty r = 0.000028, k = 7.933802
        19        20     1        0.136086   293168.518262    ;  uncertainty r = 0.000038, k = 2.183978
        19        39     1        0.108275   339142.108008    ;  uncertainty r = 0.000029, k = 1.978626
        20        21     1        0.135372   281833.846729    ;  uncertainty r = 0.000063, k = 7.581417
        20        23     1        0.145228   253114.072949    ;  uncertainty r = 0.000011, k = 4.991527
        21        22     1        0.133356   453692.795898    ;  uncertainty r = 0.000038, k = 2.837549
        22        40     1        0.108433   337731.157178    ;  uncertainty r = 0.000017, k = 2.346807
        23        41     1        0.109330   311409.292432    ;  uncertainty r = 0.000011, k = 1.149464
        23        42     1        0.109330   311409.292432    ;  uncertainty r = 0.000011, k = 1.149464
        23        43     1        0.109330   311409.292432    ;  uncertainty r = 0.000011, k = 1.149464
        24        25     1        0.138176   343622.440625    ;  uncertainty r = 0.000058, k = 6.628135
        24        28     1        0.145483   251267.331348    ;  uncertainty r = 0.000034, k = 5.642891
        25        26     1        0.138050   459518.934180    ;  uncertainty r = 0.000064, k = 4.688203
        25        44     1        0.108228   341108.005762    ;  uncertainty r = 0.000026, k = 1.595961
        26        27     1        0.137464   302948.439502    ;  uncertainty r = 0.000114, k = 10.707848
        26        45     1        0.108346   336773.362354    ;  uncertainty r = 0.000009, k = 1.906476
        28        46     1        0.109320   310175.926660    ;  uncertainty r = 0.000021, k = 1.108301
        28        47     1        0.109320   310175.926660    ;  uncertainty r = 0.000021, k = 1.108301
        28        48     1        0.109320   310175.926660    ;  uncertainty r = 0.000021, k = 1.108301

[ angles ]
;       ai        aj        ak funct           theta             cth
         1         2         6     1      119.159500      550.782715    ;  uncertainty theta = 0.004187, k = 0.088019
         1         2        29     1      119.664627      271.908255    ;  uncertainty theta = 0.003374, k = 0.113652
         1         4         3     1      123.659775      528.955158    ;  uncertainty theta = 0.003642, k = 0.064063
         1         4        31     1      118.466599      274.619722    ;  uncertainty theta = 0.003252, k = 0.037188
         1        11        24     1      119.806641      369.495095    ;  uncertainty theta = 0.006480, k = 0.048961
         1        11        27     1      126.763840      406.837116    ;  uncertainty theta = 0.003936, k = 0.196886
         2         1         4     1      123.334518      435.503639    ;  uncertainty theta = 0.003781, k = 0.127882
         2         1        11     1      119.316940      398.368947    ;  uncertainty theta = 0.004868, k = 0.150731
         2         6         5     1      118.309250      397.517093    ;  uncertainty theta = 0.005262, k = 0.198825
         2         6         7     1      130.781815      337.358526    ;  uncertainty theta = 0.004874, k = 0.257504
         3         4        31     1      118.964844      289.065267    ;  uncertainty theta = 0.001371, k = 0.033844
         3         5         6     1      120.096741      382.731745    ;  uncertainty theta = 0.003922, k = 0.117668
         3         5         9     1      130.186630      396.308421    ;  uncertainty theta = 0.003075, k = 0.103223
         4         1        11     1      118.961349      406.365126    ;  uncertainty theta = 0.005261, k = 0.142773
         4         3         5     1      116.848999      526.128902    ;  uncertainty theta = 0.002766, k = 0.071913
         4         3        30     1      121.196144      282.079335    ;  uncertainty theta = 0.001574, k = 0.036583
         5         3        30     1      122.732887      290.365776    ;  uncertainty theta = 0.001725, k = 0.094526
         5         6         7     1      104.036118      708.787387    ;  uncertainty theta = 0.004884, k = 0.150525
         5         9         8     1      108.833374      996.394867    ;  uncertainty theta = 0.004015, k = 0.109208
         5         9        32     1      115.973465      285.443211    ;  uncertainty theta = 0.007775, k = 0.056777
         6         2        29     1      121.230568      290.954949    ;  uncertainty theta = 0.002771, k = 0.031431
         6         5         9     1      105.270096      699.399498    ;  uncertainty theta = 0.003087, k = 0.069589
         6         7         8     1      112.631676      861.356676    ;  uncertainty theta = 0.002029, k = 0.085110
         6         7        10     1      127.241066      339.955044    ;  uncertainty theta = 0.004462, k = 0.131919
         7         8         9     1      109.361023      910.627400    ;  uncertainty theta = 0.003427, k = 0.138090
         7        10        12     1      111.390053      539.224364    ;  uncertainty theta = 0.002686, k = 0.068878
         7        10        33     1      107.171310      403.838900    ;  uncertainty theta = 0.002654, k = 0.095282
         7        10        34     1      107.171310      403.838900    ;  uncertainty theta = 0.002654, k = 0.095282
         8         7        10     1      121.619675      407.891001    ;  uncertainty theta = 0.004657, k = 0.113501
         8         9        32     1      108.270935      348.057521    ;  uncertainty theta = 0.007607, k = 0.026261
        10        12        13     1      121.045166      422.581127    ;  uncertainty theta = 0.002275, k = 0.038270
        10        12        17     1      121.045166      422.581127    ;  uncertainty theta = 0.002275, k = 0.038270
        11        24        25     1      106.519508      866.842749    ;  uncertainty theta = 0.002257, k = 0.123122
        11        24        28     1      121.709251      390.459402    ;  uncertainty theta = 0.003554, k = 0.060886
        11        27        26     1      105.678299      779.223650    ;  uncertainty theta = 0.000977, k = 0.151179
        12        10        33     1      107.837601      399.901237    ;  uncertainty theta = 0.002249, k = 0.057837
        12        10        34     1      107.837601      399.901237    ;  uncertainty theta = 0.002249, k = 0.057837
        12        13        14     1      121.318886      514.235568    ;  uncertainty theta = 0.001778, k = 0.059752
        12        13        35     1      119.166016      270.523857    ;  uncertainty theta = 0.002269, k = 0.008290
        12        17        16     1      121.318886      514.235568    ;  uncertainty theta = 0.001778, k = 0.059752
        12        17        38     1      119.166000      270.523857    ;  uncertainty theta = 0.002269, k = 0.008290
        13        12        17     1      118.819534      462.266433    ;  uncertainty theta = 0.001838, k = 0.080865
        13        14        15     1      121.217484      515.997661    ;  uncertainty theta = 0.001896, k = 0.077715
        13        14        36     1      119.997902      290.785989    ;  uncertainty theta = 0.002435, k = 0.029685
        14        13        35     1      119.867722      290.821262    ;  uncertainty theta = 0.002696, k = 0.045566
        14        15        16     1      118.904152      401.449329    ;  uncertainty theta = 0.000792, k = 0.077724
        14        15        18     1      121.709091      440.254499    ;  uncertainty theta = 0.000934, k = 0.108366
        15        14        36     1      119.095055      282.559209    ;  uncertainty theta = 0.001574, k = 0.076416
        15        16        17     1      121.217484      515.997661    ;  uncertainty theta = 0.001896, k = 0.077715
        15        16        37     1      119.095055      282.559113    ;  uncertainty theta = 0.001574, k = 0.076417
        15        18        19     1      127.697556      343.157780    ;  uncertainty theta = 0.004353, k = 0.177775
        15        18        22     1      126.731285      348.545089    ;  uncertainty theta = 0.003995, k = 0.207077
        16        15        18     1      121.709091      440.254499    ;  uncertainty theta = 0.000934, k = 0.108366
        16        17        38     1      119.867722      290.821262    ;  uncertainty theta = 0.002696, k = 0.045566
        17        16        37     1      119.997902      290.785989    ;  uncertainty theta = 0.002435, k = 0.029685
        18        19        20     1      107.786392      728.617782    ;  uncertainty theta = 0.002722, k = 0.171005
        18        19        39     1      129.337921      225.112173    ;  uncertainty theta = 0.003840, k = 0.127302
        18        22        21     1      112.792480      868.770035    ;  uncertainty theta = 0.004151, k = 0.098178
        18        22        40     1      126.058434      240.089592    ;  uncertainty theta = 0.003930, k = 0.061937
        19        18        22     1      104.376785      682.871562    ;  uncertainty theta = 0.005377, k = 0.161868
        19        20        21     1      109.875755      985.972854    ;  uncertainty theta = 0.001972, k = 0.104814
        19        20        23     1      122.678429      402.059474    ;  uncertainty theta = 0.001716, k = 0.122019
        20        19        39     1      118.090332      269.140033    ;  uncertainty theta = 0.002835, k = 0.151929
        20        21        22     1      106.284317      901.234341    ;  uncertainty theta = 0.001454, k = 0.058730
        20        23        41     1      108.689758      466.172430    ;  uncertainty theta = 0.001193, k = 0.023318
        20        23        42     1      108.689758      466.172430    ;  uncertainty theta = 0.001193, k = 0.023318
        20        23        43     1      108.689758      466.172430    ;  uncertainty theta = 0.001193, k = 0.023318
        21        20        23     1      116.723465      468.949431    ;  uncertainty theta = 0.002619, k = 0.085339
        21        22        40     1      118.687271      285.500605    ;  uncertainty theta = 0.004102, k = 0.050180
        24        11        27     1      113.297813      815.424035    ;  uncertainty theta = 0.003677, k = 0.254944
        24        25        26     1      106.983421      733.768553    ;  uncertainty theta = 0.002420, k = 0.149783
        24        25        44     1      118.265747      285.178838    ;  uncertainty theta = 0.003314, k = 0.137026
        24        28        46     1      108.880150      475.775915    ;  uncertainty theta = 0.001305, k = 0.043140
        24        28        47     1      108.880150      475.775915    ;  uncertainty theta = 0.001305, k = 0.043140
        24        28        48     1      108.880150      475.775915    ;  uncertainty theta = 0.001305, k = 0.043140
        25        24        28     1      122.198547      397.219841    ;  uncertainty theta = 0.002474, k = 0.198750
        25        26        27     1      110.049904      921.168161    ;  uncertainty theta = 0.000239, k = 0.129947
        25        26        45     1      126.148911      242.223904    ;  uncertainty theta = 0.005325, k = 0.035348
        26        25        44     1      130.387833      241.591700    ;  uncertainty theta = 0.005521, k = 0.105978
        27        26        45     1      119.727234      288.147878    ;  uncertainty theta = 0.004455, k = 0.090689
        33        10        34     1      104.257248      312.827994    ;  uncertainty theta = 0.003792, k = 0.040478
        41        23        42     1      107.724472      320.089279    ;  uncertainty theta = 0.001790, k = 0.014894
        41        23        43     1      107.724472      320.089279    ;  uncertainty theta = 0.001790, k = 0.014894
        42        23        43     1      107.724472      320.089279    ;  uncertainty theta = 0.001790, k = 0.014894
        46        28        47     1      107.374146      319.349693    ;  uncertainty theta = 0.000708, k = 0.047503
        46        28        48     1      107.374146      319.349693    ;  uncertainty theta = 0.000708, k = 0.047503
        47        28        48     1      107.374146      319.349693    ;  uncertainty theta = 0.000708, k = 0.047503

[ dihedrals ] ; propers for gromacs 4.5 or higher, use funct 9
;       ai        aj        ak        al funct           phase               k        pn
         1         2         6         5     9        0.000000        0.087540         1    ;  uncertainty k = 0.154529
         1         2         6         5     9      180.000000       13.698731         2    ;  uncertainty k = 0.203216
         1         2         6         5     9        0.000000       -1.537771         3    ;  uncertainty k = 0.516586
         1         2         6         5     9      180.000000        0.734966         4    ;  uncertainty k = 0.262993
         1         2         6         7     9        0.000000        0.260038         1    ;  uncertainty k = 0.286130
         1         2         6         7     9      180.000000        8.446154         2    ;  uncertainty k = 0.402313
         1         2         6         7     9        0.000000        0.715602         3    ;  uncertainty k = 0.292758
         1         2         6         7     9      180.000000        1.281519         4    ;  uncertainty k = 0.163702
         1         4         3         5     9        0.000000        0.063879         1    ;  uncertainty k = 0.295076
         1         4         3         5     9      180.000000       17.000664         2    ;  uncertainty k = 0.326607
         1         4         3         5     9        0.000000       -0.147849         3    ;  uncertainty k = 0.387300
         1         4         3         5     9      180.000000        0.680545         4    ;  uncertainty k = 0.288470
         1         4         3        30     9        0.000000        0.002960         1    ;  uncertainty k = 0.102367
         1         4         3        30     9      180.000000        9.607143         2    ;  uncertainty k = 0.602046
         1         4         3        30     9        0.000000        1.464530         3    ;  uncertainty k = 0.264123
         1         4         3        30     9      180.000000        1.898614         4    ;  uncertainty k = 0.296428
         1        11        24        25     9        0.000000        1.467957         1    ;  uncertainty k = 1.383100
         1        11        24        25     9      180.000000       10.375119         2    ;  uncertainty k = 0.489481
         1        11        24        25     9        0.000000        1.355005         3    ;  uncertainty k = 0.531893
         1        11        24        25     9      180.000000        0.033456         4    ;  uncertainty k = 0.200138
         1        11        24        28     9        0.000000       -0.406019         1    ;  uncertainty k = 0.809589
         1        11        24        28     9      180.000000        3.809375         2    ;  uncertainty k = 0.705824
         1        11        24        28     9        0.000000        0.961862         3    ;  uncertainty k = 0.354775
         1        11        24        28     9      180.000000        0.048301         4    ;  uncertainty k = 0.141484
         1        11        27        26     9        0.000000        0.356637         1    ;  uncertainty k = 0.474573
         1        11        27        26     9      180.000000       19.459854         2    ;  uncertainty k = 0.336472
         1        11        27        26     9        0.000000        1.624531         3    ;  uncertainty k = 0.074625
         1        11        27        26     9      180.000000        1.313299         4    ;  uncertainty k = 0.395854
         2         1         4         3     9        0.000000       -0.046952         1    ;  uncertainty k = 0.391828
         2         1         4         3     9      180.000000        8.721649         2    ;  uncertainty k = 0.370540
         2         1         4         3     9        0.000000       -0.250270         3    ;  uncertainty k = 0.345946
         2         1         4         3     9      180.000000        1.115871         4    ;  uncertainty k = 0.263594
         2         1         4        31     9        0.000000       -0.079846         1    ;  uncertainty k = 0.296542
         2         1         4        31     9      180.000000        5.965868         2    ;  uncertainty k = 0.513239
         2         1         4        31     9        0.000000        1.259904         3    ;  uncertainty k = 0.130751
         2         1         4        31     9      180.000000        1.530744         4    ;  uncertainty k = 0.242157
         2         1        11        24     9        0.000000        0.203456         1    ;  uncertainty k = 0.324085
         2         1        11        24     9      180.000000        4.314314         2    ;  uncertainty k = 0.139918
         2         1        11        24     9        0.000000        0.453978         3    ;  uncertainty k = 0.091297
         2         1        11        24     9      180.000000        0.171936         4    ;  uncertainty k = 0.044968
         2         1        11        27     9        0.000000        0.774175         1    ;  uncertainty k = 0.651623
         2         1        11        27     9      180.000000        3.899892         2    ;  uncertainty k = 0.262739
         2         1        11        27     9        0.000000        0.618129         3    ;  uncertainty k = 0.153537
         2         1        11        27     9      180.000000        0.058641         4    ;  uncertainty k = 0.047529
         2         6         5         3     9        0.000000       -0.386536         1    ;  uncertainty k = 0.543268
         2         6         5         3     9      180.000000        7.150454         2    ;  uncertainty k = 0.679231
         2         6         5         3     9        0.000000        0.259403         3    ;  uncertainty k = 0.247966
         2         6         5         3     9      180.000000        1.001348         4    ;  uncertainty k = 0.373771
         2         6         5         9     9        0.000000       -0.001054         1    ;  uncertainty k = 0.603143
         2         6         5         9     9      180.000000        8.282182         2    ;  uncertainty k = 0.427433
         2         6         5         9     9        0.000000       -0.103688         3    ;  uncertainty k = 0.350624
         2         6         5         9     9      180.000000        1.201223         4    ;  uncertainty k = 0.337095
         2         6         7         8     9        0.000000        0.782029         1    ;  uncertainty k = 0.584444
         2         6         7         8     9      180.000000        6.236542         2    ;  uncertainty k = 0.232285
         2         6         7         8     9        0.000000        0.189663         3    ;  uncertainty k = 0.775430
         2         6         7         8     9      180.000000        0.827271         4    ;  uncertainty k = 0.083657
         2         6         7        10     9        0.000000       -0.763615         1    ;  uncertainty k = 0.926172
         2         6         7        10     9      180.000000        3.877838         2    ;  uncertainty k = 0.550139
         2         6         7        10     9        0.000000        1.291594         3    ;  uncertainty k = 0.268970
         2         6         7        10     9      180.000000        0.095294         4    ;  uncertainty k = 0.148802
         3         4         1        11     9        0.000000        0.114461         1    ;  uncertainty k = 0.325022
         3         4         1        11     9      180.000000        8.648172         2    ;  uncertainty k = 0.667791
         3         4         1        11     9        0.000000        1.217121         3    ;  uncertainty k = 0.226218
         3         4         1        11     9      180.000000        1.775787         4    ;  uncertainty k = 0.306603
         3         5         6         7     9        0.000000        0.074004         1    ;  uncertainty k = 0.409843
         3         5         6         7     9      180.000000        6.702079         2    ;  uncertainty k = 0.301650
         3         5         6         7     9        0.000000        0.240065         3    ;  uncertainty k = 0.433717
         3         5         6         7     9      180.000000        1.304913         4    ;  uncertainty k = 0.324992
         3         5         9         8     9        0.000000        0.907095         1    ;  uncertainty k = 1.104839
         3         5         9         8     9      180.000000        6.763845         2    ;  uncertainty k = 0.558227
         3         5         9         8     9        0.000000        0.587738         3    ;  uncertainty k = 0.667519
         3         5         9         8     9      180.000000        0.359870         4    ;  uncertainty k = 0.193499
         3         5         9        32     9        0.000000        1.675748         1    ;  uncertainty k = 1.071281
         3         5         9        32     9      180.000000        1.667204         2    ;  uncertainty k = 0.524042
         3         5         9        32     9        0.000000        1.349536         3    ;  uncertainty k = 0.523043
         3         5         9        32     9      180.000000        0.073679         4    ;  uncertainty k = 0.160822
         4         1         2         6     9        0.000000        0.077004         1    ;  uncertainty k = 0.457670
         4         1         2         6     9      180.000000       12.770986         2    ;  uncertainty k = 0.388876
         4         1         2         6     9        0.000000       -0.034991         3    ;  uncertainty k = 0.258484
         4         1         2         6     9      180.000000        0.985656         4    ;  uncertainty k = 0.374707
         4         1         2        29     9        0.000000        0.093469         1    ;  uncertainty k = 0.141436
         4         1         2        29     9      180.000000        7.577823         2    ;  uncertainty k = 0.568750
         4         1         2        29     9        0.000000        1.471202         3    ;  uncertainty k = 0.200761
         4         1         2        29     9      180.000000        1.721595         4    ;  uncertainty k = 0.251287
         4         1        11        24     9        0.000000        0.629226         1    ;  uncertainty k = 0.527813
         4         1        11        24     9      180.000000        4.366435         2    ;  uncertainty k = 0.124114
         4         1        11        24     9        0.000000        0.601627         3    ;  uncertainty k = 0.135643
         4         1        11        24     9      180.000000        0.204961         4    ;  uncertainty k = 0.051245
         4         1        11        27     9        0.000000        0.470434         1    ;  uncertainty k = 0.600948
         4         1        11        27     9      180.000000        4.086320         2    ;  uncertainty k = 0.223705
         4         1        11        27     9        0.000000        0.557935         3    ;  uncertainty k = 0.218137
         4         1        11        27     9      180.000000        0.033940         4    ;  uncertainty k = 0.028936
         4         3         5         6     9        0.000000        0.011860         1    ;  uncertainty k = 0.338132
         4         3         5         6     9      180.000000       12.053834         2    ;  uncertainty k = 0.140944
         4         3         5         6     9        0.000000       -1.447070         3    ;  uncertainty k = 0.427862
         4         3         5         6     9      180.000000        0.788313         4    ;  uncertainty k = 0.234904
         4         3         5         9     9        0.000000        0.104838         1    ;  uncertainty k = 0.348583
         4         3         5         9     9      180.000000       10.128199         2    ;  uncertainty k = 0.635959
         4         3         5         9     9        0.000000        0.733683         3    ;  uncertainty k = 0.219095
         4         3         5         9     9      180.000000        1.152060         4    ;  uncertainty k = 0.310347
         5         3         4        31     9        0.000000        0.011224         1    ;  uncertainty k = 0.278375
         5         3         4        31     9      180.000000       11.718032         2    ;  uncertainty k = 0.358586
         5         3         4        31     9        0.000000        1.455850         3    ;  uncertainty k = 0.269045
         5         3         4        31     9      180.000000        1.583501         4    ;  uncertainty k = 0.270572
         5         6         2        29     9        0.000000       -0.016518         1    ;  uncertainty k = 0.448421
         5         6         2        29     9      180.000000        7.622027         2    ;  uncertainty k = 1.027734
         5         6         2        29     9        0.000000        1.414927         3    ;  uncertainty k = 0.242080
         5         6         2        29     9      180.000000        1.191294         4    ;  uncertainty k = 0.404329
         5         6         7         8     9        0.000000        0.558953         1    ;  uncertainty k = 0.517431
         5         6         7         8     9      180.000000       13.266714         2    ;  uncertainty k = 1.198607
         5         6         7         8     9        0.000000      -10.861617         3    ;  uncertainty k = 2.067794
         5         6         7         8     9      180.000000        2.064087         4    ;  uncertainty k = 0.604552
         5         6         7        10     9        0.000000        1.390015         1    ;  uncertainty k = 1.041319
         5         6         7        10     9      180.000000        8.280531         2    ;  uncertainty k = 0.537660
         5         6         7        10     9        0.000000        1.819979         3    ;  uncertainty k = 0.822727
         5         6         7        10     9      180.000000        0.281187         4    ;  uncertainty k = 0.300071
         5         9         8         7     9        0.000000       -0.735224         1    ;  uncertainty k = 0.945131
         5         9         8         7     9      180.000000       16.978367         2    ;  uncertainty k = 0.591665
         5         9         8         7     9        0.000000       -4.741044         3    ;  uncertainty k = 1.047035
         5         9         8         7     9      180.000000        1.050994         4    ;  uncertainty k = 0.526152
         6         2         1        11     9        0.000000        0.045666         1    ;  uncertainty k = 0.406801
         6         2         1        11     9      180.000000       12.587907         2    ;  uncertainty k = 0.397120
         6         2         1        11     9        0.000000        1.248937         3    ;  uncertainty k = 0.227927
         6         2         1        11     9      180.000000        1.455749         4    ;  uncertainty k = 0.248506
         6         5         3        30     9        0.000000       -0.037544         1    ;  uncertainty k = 0.416331
         6         5         3        30     9      180.000000        6.487367         2    ;  uncertainty k = 1.093460
         6         5         3        30     9        0.000000        1.288844         3    ;  uncertainty k = 0.197291
         6         5         3        30     9      180.000000        1.077660         4    ;  uncertainty k = 0.497542
         6         5         9         8     9        0.000000        0.178383         1    ;  uncertainty k = 0.542233
         6         5         9         8     9      180.000000       17.350445         2    ;  uncertainty k = 1.019233
         6         5         9         8     9        0.000000       -8.560193         3    ;  uncertainty k = 1.664935
         6         5         9         8     9      180.000000        0.771295         4    ;  uncertainty k = 0.550825
         6         5         9        32     9        0.000000        4.261392         1    ;  uncertainty k = 2.125670
         6         5         9        32     9      180.000000        6.020304         2    ;  uncertainty k = 1.403687
         6         5         9        32     9        0.000000        1.416108         3    ;  uncertainty k = 0.297019
         6         5         9        32     9      180.000000       -0.004840         4    ;  uncertainty k = 0.149419
         6         7         8         9     9        0.000000       -0.385808         1    ;  uncertainty k = 0.521000
         6         7         8         9     9      180.000000       25.003458         2    ;  uncertainty k = 0.229766
         6         7         8         9     9        0.000000       -4.321848         3    ;  uncertainty k = 0.966002
         6         7         8         9     9      180.000000        1.976473         4    ;  uncertainty k = 0.367710
         6         7        10        12     9        0.000000       -0.281276         1    ;  uncertainty k = 0.506661
         6         7        10        12     9      180.000000        0.986708         2    ;  uncertainty k = 0.480864
         6         7        10        12     9        0.000000        1.001912         3    ;  uncertainty k = 0.183123
         6         7        10        12     9      180.000000        0.174150         4    ;  uncertainty k = 0.110560
         6         7        10        33     9        0.000000       -1.192958         1    ;  uncertainty k = 0.289692
         6         7        10        33     9      180.000000        1.761567         2    ;  uncertainty k = 0.496966
         6         7        10        33     9        0.000000        0.855089         3    ;  uncertainty k = 0.168904
         6         7        10        33     9      180.000000        0.100182         4    ;  uncertainty k = 0.071400
         6         7        10        34     9        0.000000       -1.192958         1    ;  uncertainty k = 0.289692
         6         7        10        34     9      180.000000        1.761567         2    ;  uncertainty k = 0.496966
         6         7        10        34     9        0.000000        0.855089         3    ;  uncertainty k = 0.168904
         6         7        10        34     9      180.000000        0.100182         4    ;  uncertainty k = 0.071400
         7         6         2        29     9        0.000000        0.000950         1    ;  uncertainty k = 0.279986
         7         6         2        29     9      180.000000        5.571484         2    ;  uncertainty k = 0.789528
         7         6         2        29     9        0.000000        1.155932         3    ;  uncertainty k = 0.196339
         7         6         2        29     9      180.000000        0.704347         4    ;  uncertainty k = 0.362400
         7         6         5         9     9        0.000000       -0.385727         1    ;  uncertainty k = 0.317550
         7         6         5         9     9      180.000000       12.076968         2    ;  uncertainty k = 0.713461
         7         6         5         9     9        0.000000       -3.579792         3    ;  uncertainty k = 1.615121
         7         6         5         9     9      180.000000        1.626395         4    ;  uncertainty k = 0.600852
         7         8         9        32     9        0.000000        4.112859         1    ;  uncertainty k = 2.365405
         7         8         9        32     9      180.000000       12.999121         2    ;  uncertainty k = 0.115414
         7         8         9        32     9        0.000000        1.662658         3    ;  uncertainty k = 1.056737
         7         8         9        32     9      180.000000       -0.445016         4    ;  uncertainty k = 0.243526
         7        10        12        13     9        0.000000        0.600245         1    ;  uncertainty k = 0.160380
         7        10        12        13     9      180.000000        1.851243         2    ;  uncertainty k = 0.195731
         7        10        12        13     9        0.000000        0.528408         3    ;  uncertainty k = 0.174056
         7        10        12        13     9      180.000000        0.240830         4    ;  uncertainty k = 0.069835
         7        10        12        17     9        0.000000        0.600245         1    ;  uncertainty k = 0.160380
         7        10        12        17     9      180.000000        1.851243         2    ;  uncertainty k = 0.195731
         7        10        12        17     9        0.000000        0.528408         3    ;  uncertainty k = 0.174056
         7        10        12        17     9      180.000000        0.240830         4    ;  uncertainty k = 0.069835
         8         7        10        12     9        0.000000        1.034530         1    ;  uncertainty k = 0.393185
         8         7        10        12     9      180.000000        1.563206         2    ;  uncertainty k = 0.292962
         8         7        10        12     9        0.000000        0.016644         3    ;  uncertainty k = 0.162811
         8         7        10        12     9      180.000000        0.136644         4    ;  uncertainty k = 0.099133
         8         7        10        33     9        0.000000        1.773493         1    ;  uncertainty k = 0.097343
         8         7        10        33     9      180.000000        2.206060         2    ;  uncertainty k = 0.262456
         8         7        10        33     9        0.000000        0.157353         3    ;  uncertainty k = 0.093419
         8         7        10        33     9      180.000000        0.110242         4    ;  uncertainty k = 0.047597
         8         7        10        34     9        0.000000        1.773493         1    ;  uncertainty k = 0.097343
         8         7        10        34     9      180.000000        2.206060         2    ;  uncertainty k = 0.262456
         8         7        10        34     9        0.000000        0.157353         3    ;  uncertainty k = 0.093419
         8         7        10        34     9      180.000000        0.110242         4    ;  uncertainty k = 0.047597
         9         5         3        30     9        0.000000        0.478020         1    ;  uncertainty k = 0.313313
         9         5         3        30     9      180.000000        5.488983         2    ;  uncertainty k = 0.721864
         9         5         3        30     9        0.000000        1.122052         3    ;  uncertainty k = 0.181937
         9         5         3        30     9      180.000000        0.756919         4    ;  uncertainty k = 0.346576
         9         8         7        10     9        0.000000       -0.550252         1    ;  uncertainty k = 0.841278
         9         8         7        10     9      180.000000       25.082880         2    ;  uncertainty k = 0.175909
         9         8         7        10     9        0.000000        2.411951         3    ;  uncertainty k = 0.628555
         9         8         7        10     9      180.000000        1.108876         4    ;  uncertainty k = 0.280809
        10        12        13        14     9        0.000000        0.169204         1    ;  uncertainty k = 0.242807
        10        12        13        14     9      180.000000        8.593729         2    ;  uncertainty k = 0.401443
        10        12        13        14     9        0.000000        1.459163         3    ;  uncertainty k = 0.363057
        10        12        13        14     9      180.000000        1.890470         4    ;  uncertainty k = 0.111180
        10        12        13        35     9        0.000000       -0.145242         1    ;  uncertainty k = 0.181744
        10        12        13        35     9      180.000000        7.615666         2    ;  uncertainty k = 0.278473
        10        12        13        35     9        0.000000        0.580734         3    ;  uncertainty k = 0.342497
        10        12        13        35     9      180.000000        0.989521         4    ;  uncertainty k = 0.234579
        10        12        17        16     9        0.000000        0.169204         1    ;  uncertainty k = 0.242807
        10        12        17        16     9      180.000000        8.593729         2    ;  uncertainty k = 0.401443
        10        12        17        16     9        0.000000        1.459163         3    ;  uncertainty k = 0.363057
        10        12        17        16     9      180.000000        1.890470         4    ;  uncertainty k = 0.111180
        10        12        17        38     9        0.000000       -0.145243         1    ;  uncertainty k = 0.181743
        10        12        17        38     9      180.000000        7.615666         2    ;  uncertainty k = 0.278472
        10        12        17        38     9        0.000000        0.580734         3    ;  uncertainty k = 0.342497
        10        12        17        38     9      180.000000        0.989521         4    ;  uncertainty k = 0.234579
        11         1         2        29     9        0.000000       -0.281064         1    ;  uncertainty k = 0.416505
        11         1         2        29     9      180.000000        8.306223         2    ;  uncertainty k = 0.255374
        11         1         2        29     9        0.000000        0.711332         3    ;  uncertainty k = 0.262888
        11         1         2        29     9      180.000000        1.062100         4    ;  uncertainty k = 0.081464
        11         1         4        31     9        0.000000       -0.183149         1    ;  uncertainty k = 0.282889
        11         1         4        31     9      180.000000        7.388507         2    ;  uncertainty k = 0.261211
        11         1         4        31     9        0.000000        0.586068         3    ;  uncertainty k = 0.178614
        11         1         4        31     9      180.000000        1.017441         4    ;  uncertainty k = 0.095360
        11        24        25        26     9        0.000000       -0.235596         1    ;  uncertainty k = 0.572250
        11        24        25        26     9      180.000000       13.262536         2    ;  uncertainty k = 0.861903
        11        24        25        26     9        0.000000       -8.508747         3    ;  uncertainty k = 1.304391
        11        24        25        26     9      180.000000        1.470412         4    ;  uncertainty k = 0.418151
        11        24        25        44     9        0.000000        1.090941         1    ;  uncertainty k = 0.447969
        11        24        25        44     9      180.000000        6.049375         2    ;  uncertainty k = 0.706172
        11        24        25        44     9        0.000000        1.692956         3    ;  uncertainty k = 0.406644
        11        24        25        44     9      180.000000        0.163647         4    ;  uncertainty k = 0.171903
        11        24        28        46     9        0.000000        0.324983         1    ;  uncertainty k = 0.177432
        11        24        28        46     9      180.000000       -0.827373         2    ;  uncertainty k = 0.114792
        11        24        28        46     9        0.000000        0.526370         3    ;  uncertainty k = 0.035860
        11        24        28        46     9      180.000000        0.200171         4    ;  uncertainty k = 0.019470
        11        24        28        47     9        0.000000        0.324983         1    ;  uncertainty k = 0.177432
        11        24        28        47     9      180.000000       -0.827373         2    ;  uncertainty k = 0.114792
        11        24        28        47     9        0.000000        0.526370         3    ;  uncertainty k = 0.035860
        11        24        28        47     9      180.000000        0.200171         4    ;  uncertainty k = 0.019470
        11        24        28        48     9        0.000000        0.324983         1    ;  uncertainty k = 0.177432
        11        24        28        48     9      180.000000       -0.827373         2    ;  uncertainty k = 0.114792
        11        24        28        48     9        0.000000        0.526370         3    ;  uncertainty k = 0.035860
        11        24        28        48     9      180.000000        0.200171         4    ;  uncertainty k = 0.019470
        11        27        26        25     9        0.000000        0.209220         1    ;  uncertainty k = 0.400593
        11        27        26        25     9      180.000000       16.087243         2    ;  uncertainty k = 0.558811
        11        27        26        25     9        0.000000       -7.444548         3    ;  uncertainty k = 0.860370
        11        27        26        25     9      180.000000        2.257298         4    ;  uncertainty k = 0.318809
        11        27        26        45     9        0.000000        0.531168         1    ;  uncertainty k = 0.514152
        11        27        26        45     9      180.000000       11.779693         2    ;  uncertainty k = 0.940848
        11        27        26        45     9        0.000000        1.085239         3    ;  uncertainty k = 0.733598
        11        27        26        45     9      180.000000        0.909606         4    ;  uncertainty k = 0.328002
        12        13        14        15     9        0.000000       -0.087057         1    ;  uncertainty k = 0.154901
        12        13        14        15     9      180.000000       13.600436         2    ;  uncertainty k = 0.230971
        12        13        14        15     9        0.000000       -0.751784         3    ;  uncertainty k = 0.436421
        12        13        14        15     9      180.000000        0.777514         4    ;  uncertainty k = 0.245178
        12        13        14        36     9        0.000000        0.010829         1    ;  uncertainty k = 0.163132
        12        13        14        36     9      180.000000        7.805433         2    ;  uncertainty k = 0.422071
        12        13        14        36     9        0.000000        1.391790         3    ;  uncertainty k = 0.234314
        12        13        14        36     9      180.000000        1.880931         4    ;  uncertainty k = 0.189420
        12        17        16        15     9        0.000000       -0.087057         1    ;  uncertainty k = 0.154901
        12        17        16        15     9      180.000000       13.600436         2    ;  uncertainty k = 0.230971
        12        17        16        15     9        0.000000       -0.751784         3    ;  uncertainty k = 0.436421
        12        17        16        15     9      180.000000        0.777514         4    ;  uncertainty k = 0.245178
        12        17        16        37     9        0.000000        0.010827         1    ;  uncertainty k = 0.163132
        12        17        16        37     9      180.000000        7.805433         2    ;  uncertainty k = 0.422073
        12        17        16        37     9        0.000000        1.391790         3    ;  uncertainty k = 0.234314
        12        17        16        37     9      180.000000        1.880931         4    ;  uncertainty k = 0.189420
        13        12        10        33     9        0.000000       -0.300138         1    ;  uncertainty k = 0.153189
        13        12        10        33     9      180.000000        1.928373         2    ;  uncertainty k = 0.130920
        13        12        10        33     9        0.000000        0.360376         3    ;  uncertainty k = 0.118491
        13        12        10        33     9      180.000000        0.117080         4    ;  uncertainty k = 0.032968
        13        12        10        34     9        0.000000       -0.300138         1    ;  uncertainty k = 0.153189
        13        12        10        34     9      180.000000        1.928373         2    ;  uncertainty k = 0.130920
        13        12        10        34     9        0.000000        0.360376         3    ;  uncertainty k = 0.118491
        13        12        10        34     9      180.000000        0.117080         4    ;  uncertainty k = 0.032968
        13        12        17        16     9        0.000000       -0.141019         1    ;  uncertainty k = 0.190132
        13        12        17        16     9      180.000000       11.565169         2    ;  uncertainty k = 0.450751
        13        12        17        16     9        0.000000       -0.482803         3    ;  uncertainty k = 0.323947
        13        12        17        16     9      180.000000        0.820385         4    ;  uncertainty k = 0.428180
        13        12        17        38     9        0.000000        0.161510         1    ;  uncertainty k = 0.189284
        13        12        17        38     9      180.000000        7.143526         2    ;  uncertainty k = 0.548274
        13        12        17        38     9        0.000000        1.383620         3    ;  uncertainty k = 0.306740
        13        12        17        38     9      180.000000        1.646182         4    ;  uncertainty k = 0.144811
        13        14        15        16     9        0.000000        0.099530         1    ;  uncertainty k = 0.198850
        13        14        15        16     9      180.000000       10.864272         2    ;  uncertainty k = 0.250101
        13        14        15        16     9        0.000000       -0.460426         3    ;  uncertainty k = 0.291547
        13        14        15        16     9      180.000000        0.910602         4    ;  uncertainty k = 0.279798
        13        14        15        18     9        0.000000       -0.069350         1    ;  uncertainty k = 0.292775
        13        14        15        18     9      180.000000        8.942093         2    ;  uncertainty k = 0.563576
        13        14        15        18     9        0.000000        1.225126         3    ;  uncertainty k = 0.296630
        13        14        15        18     9      180.000000        1.608135         4    ;  uncertainty k = 0.239057
        14        13        12        17     9        0.000000       -0.141019         1    ;  uncertainty k = 0.190132
        14        13        12        17     9      180.000000       11.565169         2    ;  uncertainty k = 0.450751
        14        13        12        17     9        0.000000       -0.482803         3    ;  uncertainty k = 0.323947
        14        13        12        17     9      180.000000        0.820385         4    ;  uncertainty k = 0.428180
        14        15        16        17     9        0.000000        0.099530         1    ;  uncertainty k = 0.198850
        14        15        16        17     9      180.000000       10.864272         2    ;  uncertainty k = 0.250101
        14        15        16        17     9        0.000000       -0.460426         3    ;  uncertainty k = 0.291547
        14        15        16        17     9      180.000000        0.910602         4    ;  uncertainty k = 0.279798
        14        15        16        37     9        0.000000        0.071629         1    ;  uncertainty k = 0.210521
        14        15        16        37     9      180.000000        6.731318         2    ;  uncertainty k = 0.652358
        14        15        16        37     9        0.000000        1.402558         3    ;  uncertainty k = 0.275742
        14        15        16        37     9      180.000000        1.629461         4    ;  uncertainty k = 0.263941
        14        15        18        19     9        0.000000        0.364742         1    ;  uncertainty k = 0.617618
        14        15        18        19     9      180.000000        2.957626         2    ;  uncertainty k = 0.176252
        14        15        18        19     9        0.000000        0.337574         3    ;  uncertainty k = 0.277333
        14        15        18        19     9      180.000000       -0.075996         4    ;  uncertainty k = 0.052358
        14        15        18        22     9        0.000000        0.212085         1    ;  uncertainty k = 0.583246
        14        15        18        22     9      180.000000        2.756721         2    ;  uncertainty k = 0.102989
        14        15        18        22     9        0.000000        0.399155         3    ;  uncertainty k = 0.207054
        14        15        18        22     9      180.000000       -0.145894         4    ;  uncertainty k = 0.054997
        15        14        13        35     9        0.000000        0.051679         1    ;  uncertainty k = 0.047053
        15        14        13        35     9      180.000000        8.110356         2    ;  uncertainty k = 0.308213
        15        14        13        35     9        0.000000        1.348836         3    ;  uncertainty k = 0.262064
        15        14        13        35     9      180.000000        1.847919         4    ;  uncertainty k = 0.146536
        15        16        17        38     9        0.000000        0.051679         1    ;  uncertainty k = 0.047053
        15        16        17        38     9      180.000000        8.110356         2    ;  uncertainty k = 0.308214
        15        16        17        38     9        0.000000        1.348837         3    ;  uncertainty k = 0.262065
        15        16        17        38     9      180.000000        1.847919         4    ;  uncertainty k = 0.146536
        15        18        19        20     9        0.000000        0.730829         1    ;  uncertainty k = 0.745969
        15        18        19        20     9      180.000000       14.124868         2    ;  uncertainty k = 0.381349
        15        18        19        20     9        0.000000        1.366411         3    ;  uncertainty k = 0.224812
        15        18        19        20     9      180.000000        0.828718         4    ;  uncertainty k = 0.243932
        15        18        19        39     9        0.000000        0.487086         1    ;  uncertainty k = 0.482656
        15        18        19        39     9      180.000000        6.408018         2    ;  uncertainty k = 0.855931
        15        18        19        39     9        0.000000        1.305884         3    ;  uncertainty k = 0.462346
        15        18        19        39     9      180.000000        0.400447         4    ;  uncertainty k = 0.122561
        15        18        22        21     9        0.000000        0.856900         1    ;  uncertainty k = 1.194888
        15        18        22        21     9      180.000000       12.441670         2    ;  uncertainty k = 0.564932
        15        18        22        21     9        0.000000        1.830358         3    ;  uncertainty k = 0.514365
        15        18        22        21     9      180.000000        0.550073         4    ;  uncertainty k = 0.201764
        15        18        22        40     9        0.000000        0.304653         1    ;  uncertainty k = 0.808439
        15        18        22        40     9      180.000000        5.213596         2    ;  uncertainty k = 0.592555
        15        18        22        40     9        0.000000        1.354869         3    ;  uncertainty k = 0.262334
        15        18        22        40     9      180.000000        0.295532         4    ;  uncertainty k = 0.033191
        16        15        14        36     9        0.000000        0.071629         1    ;  uncertainty k = 0.210521
        16        15        14        36     9      180.000000        6.731320         2    ;  uncertainty k = 0.652358
        16        15        14        36     9        0.000000        1.402558         3    ;  uncertainty k = 0.275743
        16        15        14        36     9      180.000000        1.629461         4    ;  uncertainty k = 0.263941
        16        15        18        19     9        0.000000        0.364742         1    ;  uncertainty k = 0.617618
        16        15        18        19     9      180.000000        2.957626         2    ;  uncertainty k = 0.176252
        16        15        18        19     9        0.000000        0.337574         3    ;  uncertainty k = 0.277333
        16        15        18        19     9      180.000000       -0.075996         4    ;  uncertainty k = 0.052358
        16        15        18        22     9        0.000000        0.212085         1    ;  uncertainty k = 0.583246
        16        15        18        22     9      180.000000        2.756721         2    ;  uncertainty k = 0.102989
        16        15        18        22     9        0.000000        0.399155         3    ;  uncertainty k = 0.207054
        16        15        18        22     9      180.000000       -0.145894         4    ;  uncertainty k = 0.054997
        17        12        10        33     9        0.000000       -0.300138         1    ;  uncertainty k = 0.153189
        17        12        10        33     9      180.000000        1.928373         2    ;  uncertainty k = 0.130920
        17        12        10        33     9        0.000000        0.360376         3    ;  uncertainty k = 0.118491
        17        12        10        33     9      180.000000        0.117080         4    ;  uncertainty k = 0.032968
        17        12        10        34     9        0.000000       -0.300138         1    ;  uncertainty k = 0.153189
        17        12        10        34     9      180.000000        1.928373         2    ;  uncertainty k = 0.130920
        17        12        10        34     9        0.000000        0.360376         3    ;  uncertainty k = 0.118491
        17        12        10        34     9      180.000000        0.117080         4    ;  uncertainty k = 0.032968
        17        12        13        35     9        0.000000        0.161510         1    ;  uncertainty k = 0.189285
        17        12        13        35     9      180.000000        7.143530         2    ;  uncertainty k = 0.548274
        17        12        13        35     9        0.000000        1.383620         3    ;  uncertainty k = 0.306740
        17        12        13        35     9      180.000000        1.646182         4    ;  uncertainty k = 0.144812
        17        16        15        18     9        0.000000       -0.069350         1    ;  uncertainty k = 0.292775
        17        16        15        18     9      180.000000        8.942093         2    ;  uncertainty k = 0.563576
        17        16        15        18     9        0.000000        1.225126         3    ;  uncertainty k = 0.296630
        17        16        15        18     9      180.000000        1.608135         4    ;  uncertainty k = 0.239057
        18        15        14        36     9        0.000000       -0.274120         1    ;  uncertainty k = 0.256075
        18        15        14        36     9      180.000000        6.927144         2    ;  uncertainty k = 0.360004
        18        15        14        36     9        0.000000        0.845886         3    ;  uncertainty k = 0.114326
        18        15        14        36     9      180.000000        1.148769         4    ;  uncertainty k = 0.209269
        18        15        16        37     9        0.000000       -0.274120         1    ;  uncertainty k = 0.256076
        18        15        16        37     9      180.000000        6.927145         2    ;  uncertainty k = 0.360005
        18        15        16        37     9        0.000000        0.845887         3    ;  uncertainty k = 0.114326
        18        15        16        37     9      180.000000        1.148769         4    ;  uncertainty k = 0.209269
        18        19        20        21     9        0.000000       -0.316526         1    ;  uncertainty k = 1.047711
        18        19        20        21     9      180.000000       17.284046         2    ;  uncertainty k = 0.688330
        18        19        20        21     9        0.000000       -9.057288         3    ;  uncertainty k = 0.901701
        18        19        20        21     9      180.000000        1.215837         4    ;  uncertainty k = 0.532722
        18        19        20        23     9        0.000000        1.392889         1    ;  uncertainty k = 1.290774
        18        19        20        23     9      180.000000        9.638848         2    ;  uncertainty k = 0.368010
        18        19        20        23     9        0.000000        1.944195         3    ;  uncertainty k = 0.374373
        18        19        20        23     9      180.000000       -0.106447         4    ;  uncertainty k = 0.068874
        18        22        21        20     9        0.000000       -0.058010         1    ;  uncertainty k = 0.625462
        18        22        21        20     9      180.000000       24.452638         2    ;  uncertainty k = 0.460560
        18        22        21        20     9        0.000000       -7.646340         3    ;  uncertainty k = 0.486543
        18        22        21        20     9      180.000000        2.227719         4    ;  uncertainty k = 0.719303
        19        18        22        21     9        0.000000       -0.355455         1    ;  uncertainty k = 0.508595
        19        18        22        21     9      180.000000       15.046675         2    ;  uncertainty k = 1.070272
        19        18        22        21     9        0.000000       -9.005960         3    ;  uncertainty k = 0.840801
        19        18        22        21     9      180.000000        1.826438         4    ;  uncertainty k = 0.522282
        19        18        22        40     9        0.000000       -0.031464         1    ;  uncertainty k = 0.354506
        19        18        22        40     9      180.000000        8.072054         2    ;  uncertainty k = 0.597935
        19        18        22        40     9        0.000000        1.249978         3    ;  uncertainty k = 0.335798
        19        18        22        40     9      180.000000        0.512738         4    ;  uncertainty k = 0.162738
        19        20        21        22     9        0.000000       -0.225287         1    ;  uncertainty k = 0.828367
        19        20        21        22     9      180.000000       16.689018         2    ;  uncertainty k = 0.422253
        19        20        21        22     9        0.000000       -7.488213         3    ;  uncertainty k = 1.300321
        19        20        21        22     9      180.000000        1.602126         4    ;  uncertainty k = 0.425607
        19        20        23        41     9        0.000000       -0.009533         1    ;  uncertainty k = 0.351891
        19        20        23        41     9      180.000000       -1.118668         2    ;  uncertainty k = 0.175719
        19        20        23        41     9        0.000000        0.788902         3    ;  uncertainty k = 0.017444
        19        20        23        41     9      180.000000        0.208637         4    ;  uncertainty k = 0.050244
        19        20        23        42     9        0.000000       -0.009533         1    ;  uncertainty k = 0.351891
        19        20        23        42     9      180.000000       -1.118668         2    ;  uncertainty k = 0.175719
        19        20        23        42     9        0.000000        0.788902         3    ;  uncertainty k = 0.017444
        19        20        23        42     9      180.000000        0.208637         4    ;  uncertainty k = 0.050244
        19        20        23        43     9        0.000000       -0.009533         1    ;  uncertainty k = 0.351891
        19        20        23        43     9      180.000000       -1.118668         2    ;  uncertainty k = 0.175719
        19        20        23        43     9        0.000000        0.788902         3    ;  uncertainty k = 0.017444
        19        20        23        43     9      180.000000        0.208637         4    ;  uncertainty k = 0.050244
        20        19        18        22     9        0.000000        0.138355         1    ;  uncertainty k = 0.250165
        20        19        18        22     9      180.000000       18.966874         2    ;  uncertainty k = 0.230930
        20        19        18        22     9        0.000000       -9.822058         3    ;  uncertainty k = 0.542344
        20        19        18        22     9      180.000000        1.616629         4    ;  uncertainty k = 0.658377
        20        21        22        40     9        0.000000        0.455448         1    ;  uncertainty k = 0.742365
        20        21        22        40     9      180.000000       22.168886         2    ;  uncertainty k = 0.393002
        20        21        22        40     9        0.000000        1.308522         3    ;  uncertainty k = 0.565188
        20        21        22        40     9      180.000000        1.249378         4    ;  uncertainty k = 0.583038
        21        20        19        39     9        0.000000        0.954942         1    ;  uncertainty k = 0.636273
        21        20        19        39     9      180.000000       11.894603         2    ;  uncertainty k = 0.460933
        21        20        19        39     9        0.000000        1.730548         3    ;  uncertainty k = 0.518861
        21        20        19        39     9      180.000000        0.048447         4    ;  uncertainty k = 0.167333
        21        20        23        41     9        0.000000        1.398760         1    ;  uncertainty k = 0.579544
        21        20        23        41     9      180.000000       -1.134020         2    ;  uncertainty k = 0.131941
        21        20        23        41     9        0.000000        0.742560         3    ;  uncertainty k = 0.044341
        21        20        23        41     9      180.000000        0.251257         4    ;  uncertainty k = 0.037756
        21        20        23        42     9        0.000000        1.398760         1    ;  uncertainty k = 0.579544
        21        20        23        42     9      180.000000       -1.134020         2    ;  uncertainty k = 0.131941
        21        20        23        42     9        0.000000        0.742560         3    ;  uncertainty k = 0.044341
        21        20        23        42     9      180.000000        0.251257         4    ;  uncertainty k = 0.037756
        21        20        23        43     9        0.000000        1.398760         1    ;  uncertainty k = 0.579544
        21        20        23        43     9      180.000000       -1.134020         2    ;  uncertainty k = 0.131941
        21        20        23        43     9        0.000000        0.742560         3    ;  uncertainty k = 0.044341
        21        20        23        43     9      180.000000        0.251257         4    ;  uncertainty k = 0.037756
        22        18        19        39     9        0.000000        0.015435         1    ;  uncertainty k = 0.258046
        22        18        19        39     9      180.000000       10.338561         2    ;  uncertainty k = 0.277931
        22        18        19        39     9        0.000000        1.639009         3    ;  uncertainty k = 0.357902
        22        18        19        39     9      180.000000        0.594000         4    ;  uncertainty k = 0.198130
        22        21        20        23     9        0.000000        0.933315         1    ;  uncertainty k = 1.275516
        22        21        20        23     9      180.000000       13.272692         2    ;  uncertainty k = 0.326665
        22        21        20        23     9        0.000000        1.823279         3    ;  uncertainty k = 0.443014
        22        21        20        23     9      180.000000       -0.164134         4    ;  uncertainty k = 0.298893
        23        20        19        39     9        0.000000       -0.476540         1    ;  uncertainty k = 0.254767
        23        20        19        39     9      180.000000        3.142291         2    ;  uncertainty k = 0.652804
        23        20        19        39     9        0.000000        1.097292         3    ;  uncertainty k = 0.480723
        23        20        19        39     9      180.000000        0.022420         4    ;  uncertainty k = 0.193415
        24        11        27        26     9        0.000000       -0.224280         1    ;  uncertainty k = 0.410700
        24        11        27        26     9      180.000000       22.668697         2    ;  uncertainty k = 0.452562
        24        11        27        26     9        0.000000       -7.808187         3    ;  uncertainty k = 0.907591
        24        11        27        26     9      180.000000        2.226906         4    ;  uncertainty k = 0.513406
        24        25        26        27     9        0.000000       -0.306766         1    ;  uncertainty k = 0.271908
        24        25        26        27     9      180.000000       22.977840         2    ;  uncertainty k = 0.533222
        24        25        26        27     9        0.000000      -12.112341         3    ;  uncertainty k = 1.178568
        24        25        26        27     9      180.000000        1.605520         4    ;  uncertainty k = 0.660077
        24        25        26        45     9        0.000000        0.270107         1    ;  uncertainty k = 0.600524
        24        25        26        45     9      180.000000       13.748509         2    ;  uncertainty k = 0.444621
        24        25        26        45     9        0.000000        1.581970         3    ;  uncertainty k = 0.672230
        24        25        26        45     9      180.000000        0.733139         4    ;  uncertainty k = 0.395655
        25        24        11        27     9        0.000000        0.174987         1    ;  uncertainty k = 0.641993
        25        24        11        27     9      180.000000       15.878546         2    ;  uncertainty k = 1.026284
        25        24        11        27     9        0.000000       -9.379553         3    ;  uncertainty k = 1.285333
        25        24        11        27     9      180.000000        1.295100         4    ;  uncertainty k = 0.660395
        25        24        28        46     9        0.000000        0.129023         1    ;  uncertainty k = 0.244543
        25        24        28        46     9      180.000000       -1.148806         2    ;  uncertainty k = 0.068214
        25        24        28        46     9        0.000000        0.654738         3    ;  uncertainty k = 0.048407
        25        24        28        46     9      180.000000        0.208024         4    ;  uncertainty k = 0.039977
        25        24        28        47     9        0.000000        0.129023         1    ;  uncertainty k = 0.244543
        25        24        28        47     9      180.000000       -1.148806         2    ;  uncertainty k = 0.068214
        25        24        28        47     9        0.000000        0.654738         3    ;  uncertainty k = 0.048407
        25        24        28        47     9      180.000000        0.208024         4    ;  uncertainty k = 0.039977
        25        24        28        48     9        0.000000        0.129023         1    ;  uncertainty k = 0.244543
        25        24        28        48     9      180.000000       -1.148806         2    ;  uncertainty k = 0.068214
        25        24        28        48     9        0.000000        0.654738         3    ;  uncertainty k = 0.048407
        25        24        28        48     9      180.000000        0.208024         4    ;  uncertainty k = 0.039977
        26        25        24        28     9        0.000000        0.960101         1    ;  uncertainty k = 1.238118
        26        25        24        28     9      180.000000        8.494446         2    ;  uncertainty k = 0.278674
        26        25        24        28     9        0.000000        1.961769         3    ;  uncertainty k = 0.655383
        26        25        24        28     9      180.000000        0.098629         4    ;  uncertainty k = 0.158958
        27        11        24        28     9        0.000000        2.264199         1    ;  uncertainty k = 1.273734
        27        11        24        28     9      180.000000       11.539503         2    ;  uncertainty k = 0.172310
        27        11        24        28     9        0.000000        2.504066         3    ;  uncertainty k = 0.985364
        27        11        24        28     9      180.000000        0.080448         4    ;  uncertainty k = 0.215450
        27        26        25        44     9        0.000000        0.240609         1    ;  uncertainty k = 0.365552
        27        26        25        44     9      180.000000       15.506944         2    ;  uncertainty k = 0.448871
        27        26        25        44     9        0.000000        0.982159         3    ;  uncertainty k = 0.643209
        27        26        25        44     9      180.000000        0.725455         4    ;  uncertainty k = 0.300105
        28        24        25        44     9        0.000000       -0.601498         1    ;  uncertainty k = 0.535707
        28        24        25        44     9      180.000000        2.595871         2    ;  uncertainty k = 0.834681
        28        24        25        44     9        0.000000        0.937815         3    ;  uncertainty k = 0.359929
        28        24        25        44     9      180.000000        0.100434         4    ;  uncertainty k = 0.235347
        30         3         4        31     9        0.000000       -0.045919         1    ;  uncertainty k = 0.411796
        30         3         4        31     9      180.000000        8.137142         2    ;  uncertainty k = 0.267504
        30         3         4        31     9        0.000000       -0.265910         3    ;  uncertainty k = 0.181106
        30         3         4        31     9      180.000000        0.257910         4    ;  uncertainty k = 0.186825
        35        13        14        36     9        0.000000       -0.105048         1    ;  uncertainty k = 0.079024
        35        13        14        36     9      180.000000        7.802567         2    ;  uncertainty k = 0.370707
        35        13        14        36     9        0.000000       -0.520984         3    ;  uncertainty k = 0.249529
        35        13        14        36     9      180.000000        0.209880         4    ;  uncertainty k = 0.188642
        37        16        17        38     9        0.000000       -0.105047         1    ;  uncertainty k = 0.079025
        37        16        17        38     9      180.000000        7.802566         2    ;  uncertainty k = 0.370707
        37        16        17        38     9        0.000000       -0.520984         3    ;  uncertainty k = 0.249530
        37        16        17        38     9      180.000000        0.209880         4    ;  uncertainty k = 0.188643
        44        25        26        45     9        0.000000       -0.434172         1    ;  uncertainty k = 0.449426
        44        25        26        45     9      180.000000        5.292206         2    ;  uncertainty k = 0.616160
        44        25        26        45     9        0.000000        1.229318         3    ;  uncertainty k = 0.359519
        44        25        26        45     9      180.000000        0.292327         4    ;  uncertainty k = 0.094796

[ dihedrals ] ; impropers
;       ai        aj        ak        al funct           phase               k        pn
         1         2         4        11     4      180.000000       10.083781         2    ;  uncertainty k = 0.201831
         1         4        11         2     4      180.000000       10.083781         2    ;  uncertainty k = 0.201831
         1        11         2         4     4      180.000000       10.083781         2    ;  uncertainty k = 0.201831
         2         1         6        29     4      180.000000        5.029225         2    ;  uncertainty k = 0.162520
         2         6        29         1     4      180.000000        5.029225         2    ;  uncertainty k = 0.162520
         2        29         1         6     4      180.000000        5.029225         2    ;  uncertainty k = 0.162520
         3         4         5        30     4      180.000000        2.631416         2    ;  uncertainty k = 0.247391
         3         5        30         4     4      180.000000        2.631416         2    ;  uncertainty k = 0.247391
         3        30         4         5     4      180.000000        2.631416         2    ;  uncertainty k = 0.247391
         4         1         3        31     4      180.000000        4.259146         2    ;  uncertainty k = 0.153183
         4         3        31         1     4      180.000000        4.259146         2    ;  uncertainty k = 0.153183
         4        31         1         3     4      180.000000        4.259146         2    ;  uncertainty k = 0.153183
         5         3         6         9     4      180.000000        1.654195         2    ;  uncertainty k = 0.917323
         5         6         9         3     4      180.000000        1.654195         2    ;  uncertainty k = 0.917323
         5         9         3         6     4      180.000000        1.654195         2    ;  uncertainty k = 0.917323
         7         6         8        10     4      180.000000        7.481324         2    ;  uncertainty k = 0.257661
         7         8        10         6     4      180.000000        7.481324         2    ;  uncertainty k = 0.257661
         7        10         6         8     4      180.000000        7.481324         2    ;  uncertainty k = 0.257661
        11         1        24        27     4      180.000000       10.778557         2    ;  uncertainty k = 0.207109
        11        24        27         1     4      180.000000       10.778557         2    ;  uncertainty k = 0.207109
        11        27         1        24     4      180.000000       10.778557         2    ;  uncertainty k = 0.207109
        12        10        13        17     4      180.000000       13.443225         2    ;  uncertainty k = 0.081656
        12        13        17        10     4      180.000000       13.443225         2    ;  uncertainty k = 0.081656
        12        17        10        13     4      180.000000       13.443225         2    ;  uncertainty k = 0.081656
        13        12        14        35     4      180.000000        4.038198         2    ;  uncertainty k = 0.126248
        13        14        35        12     4      180.000000        4.038198         2    ;  uncertainty k = 0.126248
        13        35        12        14     4      180.000000        4.038198         2    ;  uncertainty k = 0.126248
        14        13        15        36     4      180.000000        3.634535         2    ;  uncertainty k = 0.167362
        14        15        36        13     4      180.000000        3.634535         2    ;  uncertainty k = 0.167362
        14        36        13        15     4      180.000000        3.634535         2    ;  uncertainty k = 0.167362
        15        14        16        18     4      180.000000       14.868719         2    ;  uncertainty k = 0.081810
        15        16        18        14     4      180.000000       14.868719         2    ;  uncertainty k = 0.081810
        15        18        14        16     4      180.000000       14.868719         2    ;  uncertainty k = 0.081810
        16        15        17        37     4      180.000000        3.634538         2    ;  uncertainty k = 0.167362
        16        17        37        15     4      180.000000        3.634538         2    ;  uncertainty k = 0.167362
        16        37        15        17     4      180.000000        3.634538         2    ;  uncertainty k = 0.167362
        17        12        16        38     4      180.000000        4.038197         2    ;  uncertainty k = 0.126249
        17        16        38        12     4      180.000000        4.038197         2    ;  uncertainty k = 0.126249
        17        38        12        16     4      180.000000        4.038197         2    ;  uncertainty k = 0.126249
        18        15        19        22     4      180.000000        2.273631         2    ;  uncertainty k = 0.479723
        18        19        22        15     4      180.000000        2.273631         2    ;  uncertainty k = 0.479723
        18        22        15        19     4      180.000000        2.273631         2    ;  uncertainty k = 0.479723
        19        18        20        39     4      180.000000        0.843031         2    ;  uncertainty k = 0.771057
        19        20        39        18     4      180.000000        0.843031         2    ;  uncertainty k = 0.771057
        19        39        18        20     4      180.000000        0.843031         2    ;  uncertainty k = 0.771057
        22        18        21        40     4      180.000000        0.319029         2    ;  uncertainty k = 0.442787
        22        21        40        18     4      180.000000        0.319029         2    ;  uncertainty k = 0.442787
        22        40        18        21     4      180.000000        0.319029         2    ;  uncertainty k = 0.442787
        25        24        26        44     4      180.000000        0.060976         2    ;  uncertainty k = 0.136348
        25        26        44        24     4      180.000000        0.060976         2    ;  uncertainty k = 0.136348
        25        44        24        26     4      180.000000        0.060976         2    ;  uncertainty k = 0.136348
        26        25        27        45     4      180.000000        0.817568         2    ;  uncertainty k = 0.606599
        26        27        45        25     4      180.000000        0.817568         2    ;  uncertainty k = 0.606599
        26        45        25        27     4      180.000000        0.817568         2    ;  uncertainty k = 0.606599

[ pairs ]
;       ai        aj funct
         1         5     1
         1         7     1
         1        25     1
         1        26     1
         1        28     1
         1        30     1
         2         3     1
         2         8     1
         2         9     1
         2        10     1
         2        24     1
         2        27     1
         2        31     1
         3         7     1
         3         8     1
         3        11     1
         3        32     1
         4         6     1
         4         9     1
         4        24     1
         4        27     1
         4        29     1
         5        10     1
         5        29     1
         5        31     1
         6        11     1
         6        12     1
         6        30     1
         6        32     1
         6        33     1
         6        34     1
         7        13     1
         7        17     1
         7        29     1
         7        32     1
         8        12     1
         8        33     1
         8        34     1
         9        10     1
         9        30     1
        10        14     1
        10        16     1
        10        35     1
        10        38     1
        11        29     1
        11        31     1
        11        44     1
        11        45     1
        11        46     1
        11        47     1
        11        48     1
        12        15     1
        12        36     1
        12        37     1
        13        16     1
        13        18     1
        13        33     1
        13        34     1
        13        38     1
        14        17     1
        14        19     1
        14        22     1
        14        37     1
        15        20     1
        15        21     1
        15        35     1
        15        38     1
        15        39     1
        15        40     1
        16        19     1
        16        22     1
        16        36     1
        17        18     1
        17        33     1
        17        34     1
        17        35     1
        18        23     1
        18        36     1
        18        37     1
        19        40     1
        19        41     1
        19        42     1
        19        43     1
        20        40     1
        21        39     1
        21        41     1
        21        42     1
        21        43     1
        22        23     1
        22        39     1
        23        39     1
        24        45     1
        25        46     1
        25        47     1
        25        48     1
        26        28     1
        27        28     1
        27        44     1
        28        44     1
        30        31     1
        35        36     1
        37        38     1
        44        45     1
