; ITP file created by ByteFF-joint-25, 2026-02-17 09:05:42.638280

[ atomtypes ]
;name           bonded.type        at.num        mass        charge   ptype           sigma         epsilon
 c0bf                                   6      0.0000       0.00000       A     3.31550e-01     4.13264e-01    ;  uncertainty sigma = 0.000003, epsilon = 0.000726
 c1bf                                   6      0.0000       0.00000       A     3.31508e-01     4.13248e-01    ;  uncertainty sigma = 0.000010, epsilon = 0.000412
 c2bf                                   6      0.0000       0.00000       A     3.31531e-01     4.13404e-01    ;  uncertainty sigma = 0.000006, epsilon = 0.000662
 c3bf                                   6      0.0000       0.00000       A     3.31526e-01     4.13577e-01    ;  uncertainty sigma = 0.000006, epsilon = 0.000494
 c4bf                                   6      0.0000       0.00000       A     3.31517e-01     4.13228e-01    ;  uncertainty sigma = 0.000005, epsilon = 0.000954
 c5bf                                   6      0.0000       0.00000       A     3.31547e-01     4.13212e-01    ;  uncertainty sigma = 0.000010, epsilon = 0.000759
 c6bf                                   6      0.0000       0.00000       A     3.31511e-01     4.13758e-01    ;  uncertainty sigma = 0.000012, epsilon = 0.000487
 n7bf                                   7      0.0000       0.00000       A     3.38378e-01     3.93289e-01    ;  uncertainty sigma = 0.000011, epsilon = 0.000859
 n8bf                                   7      0.0000       0.00000       A     3.20594e-01     8.54239e-01    ;  uncertainty sigma = 0.000008, epsilon = 0.000871
 c9bf                                   6      0.0000       0.00000       A     3.39770e-01     4.50677e-01    ;  uncertainty sigma = 0.000014, epsilon = 0.000932
 c10bf                                  6      0.0000       0.00000       A     3.31526e-01     4.13327e-01    ;  uncertainty sigma = 0.000010, epsilon = 0.000964
 c11bf                                  6      0.0000       0.00000       A     3.39770e-01     4.50860e-01    ;  uncertainty sigma = 0.000008, epsilon = 0.000402
 n12bf                                  7      0.0000       0.00000       A     3.27000e-01     4.90516e-01    ;  uncertainty sigma = 0.000012, epsilon = 0.001686
 c13bf                                  6      0.0000       0.00000       A     3.31526e-01     4.13322e-01    ;  uncertainty sigma = 0.000007, epsilon = 0.000745
 c14bf                                  6      0.0000       0.00000       A     3.31523e-01     4.13371e-01    ;  uncertainty sigma = 0.000005, epsilon = 0.000423
 c15bf                                  6      0.0000       0.00000       A     3.31520e-01     4.13353e-01    ;  uncertainty sigma = 0.000004, epsilon = 0.000667
 c16bf                                  6      0.0000       0.00000       A     3.31533e-01     4.13284e-01    ;  uncertainty sigma = 0.000006, epsilon = 0.001098
 c17bf                                  6      0.0000       0.00000       A     3.31520e-01     4.13353e-01    ;  uncertainty sigma = 0.000004, epsilon = 0.000667
 c18bf                                  6      0.0000       0.00000       A     3.31523e-01     4.13371e-01    ;  uncertainty sigma = 0.000005, epsilon = 0.000423
 c19bf                                  6      0.0000       0.00000       A     3.31535e-01     4.13223e-01    ;  uncertainty sigma = 0.000005, epsilon = 0.000899
 c20bf                                  6      0.0000       0.00000       A     3.31521e-01     4.13333e-01    ;  uncertainty sigma = 0.000008, epsilon = 0.000598
 n21bf                                  7      0.0000       0.00000       A     3.20584e-01     8.54185e-01    ;  uncertainty sigma = 0.000011, epsilon = 0.001160
 n22bf                                  7      0.0000       0.00000       A     3.38434e-01     3.93690e-01    ;  uncertainty sigma = 0.000004, epsilon = 0.000785
 c23bf                                  6      0.0000       0.00000       A     3.31536e-01     4.13003e-01    ;  uncertainty sigma = 0.000006, epsilon = 0.000684
 c24bf                                  6      0.0000       0.00000       A     3.39777e-01     4.50912e-01    ;  uncertainty sigma = 0.000003, epsilon = 0.000595
 o25bf                                  8      0.0000       0.00000       A     3.04808e-01     6.12327e-01    ;  uncertainty sigma = 0.000012, epsilon = 0.001122
 h26bf                                  1      0.0000       0.00000       A     2.62602e-01     6.71261e-02    ;  uncertainty sigma = 0.000016, epsilon = 0.000435
 h27bf                                  1      0.0000       0.00000       A     2.62569e-01     6.69664e-02    ;  uncertainty sigma = 0.000010, epsilon = 0.000490
 h28bf                                  1      0.0000       0.00000       A     2.62577e-01     6.70199e-02    ;  uncertainty sigma = 0.000016, epsilon = 0.000364
 h29bf                                  1      0.0000       0.00000       A     1.10648e-01     4.14022e-02    ;  uncertainty sigma = 0.000065, epsilon = 0.000771
 h30bf                                  1      0.0000       0.00000       A     2.60075e-01     8.67590e-02    ;  uncertainty sigma = 0.000029, epsilon = 0.000876
 h31bf                                  1      0.0000       0.00000       A     2.60075e-01     8.67590e-02    ;  uncertainty sigma = 0.000029, epsilon = 0.000876
 h32bf                                  1      0.0000       0.00000       A     2.60030e-01     8.66766e-02    ;  uncertainty sigma = 0.000008, epsilon = 0.000511
 h33bf                                  1      0.0000       0.00000       A     2.60030e-01     8.66766e-02    ;  uncertainty sigma = 0.000008, epsilon = 0.000511
 h34bf                                  1      0.0000       0.00000       A     2.60030e-01     8.66766e-02    ;  uncertainty sigma = 0.000008, epsilon = 0.000510
 h35bf                                  1      0.0000       0.00000       A     1.10617e-01     4.15382e-02    ;  uncertainty sigma = 0.000073, epsilon = 0.001008
 h36bf                                  1      0.0000       0.00000       A     2.62562e-01     6.71171e-02    ;  uncertainty sigma = 0.000007, epsilon = 0.000513
 h37bf                                  1      0.0000       0.00000       A     2.62566e-01     6.70543e-02    ;  uncertainty sigma = 0.000011, epsilon = 0.000444
 h38bf                                  1      0.0000       0.00000       A     2.62566e-01     6.70543e-02    ;  uncertainty sigma = 0.000011, epsilon = 0.000444
 h39bf                                  1      0.0000       0.00000       A     2.62562e-01     6.71171e-02    ;  uncertainty sigma = 0.000007, epsilon = 0.000513
 h40bf                                  1      0.0000       0.00000       A     2.53668e-01     6.70573e-02    ;  uncertainty sigma = 0.000029, epsilon = 0.000503
 h41bf                                  1      0.0000       0.00000       A     2.53681e-01     6.72123e-02    ;  uncertainty sigma = 0.000016, epsilon = 0.000497
 h42bf                                  1      0.0000       0.00000       A     2.42209e-01     8.68411e-02    ;  uncertainty sigma = 0.000019, epsilon = 0.000599
 h43bf                                  1      0.0000       0.00000       A     2.42209e-01     8.68411e-02    ;  uncertainty sigma = 0.000019, epsilon = 0.000599
 h44bf                                  1      0.0000       0.00000       A     2.42209e-01     8.68409e-02    ;  uncertainty sigma = 0.000019, epsilon = 0.000599

[ moleculetype ]
;name             nrexcl
 MOL                   3

[ atoms ]
;       nr            type      resi   res      atom      cgnr      charge          mass ; qtot
         1            c0bf         1   UNL        c0         1     0.03413       12.0110 ; qtot    0.034
         2            c1bf         1   UNL        c1         2    -0.09570       12.0110 ; qtot   -0.062
         3            c2bf         1   UNL        c2         3    -0.12674       12.0110 ; qtot   -0.188
         4            c3bf         1   UNL        c3         4    -0.12329       12.0110 ; qtot   -0.312
         5            c4bf         1   UNL        c4         5    -0.04246       12.0110 ; qtot   -0.354
         6            c5bf         1   UNL        c5         6    -0.19823       12.0110 ; qtot   -0.552
         7            c6bf         1   UNL        c6         7     0.35826       12.0110 ; qtot   -0.194
         8            n7bf         1   UNL        n7         8    -0.50842       14.0070 ; qtot   -0.702
         9            n8bf         1   UNL        n8         9    -0.03409       14.0070 ; qtot   -0.737
        10            c9bf         1   UNL        c9        10    -0.04528       12.0110 ; qtot   -0.782
        11           c10bf         1   UNL       c10        11     0.67139       12.0110 ; qtot   -0.110
        12           c11bf         1   UNL       c11        12    -0.17677       12.0110 ; qtot   -0.287
        13           n12bf         1   UNL       n12        13    -0.48303       14.0070 ; qtot   -0.770
        14           c13bf         1   UNL       c13        14    -0.08175       12.0110 ; qtot   -0.852
        15           c14bf         1   UNL       c14        15    -0.11939       12.0110 ; qtot   -0.971
        16           c15bf         1   UNL       c15        16    -0.12732       12.0110 ; qtot   -1.099
        17           c16bf         1   UNL       c16        17     0.00918       12.0110 ; qtot   -1.090
        18           c17bf         1   UNL       c17        18    -0.12732       12.0110 ; qtot   -1.217
        19           c18bf         1   UNL       c18        19    -0.11939       12.0110 ; qtot   -1.336
        20           c19bf         1   UNL       c19        20    -0.22601       12.0110 ; qtot   -1.562
        21           c20bf         1   UNL       c20        21    -0.11441       12.0110 ; qtot   -1.677
        22           n21bf         1   UNL       n21        22     0.08671       14.0070 ; qtot   -1.590
        23           n22bf         1   UNL       n22        23    -0.52298       14.0070 ; qtot   -2.113
        24           c23bf         1   UNL       c23        24     0.31766       12.0110 ; qtot   -1.795
        25           c24bf         1   UNL       c24        25     0.04276       12.0110 ; qtot   -1.752
        26           o25bf         1   UNL       o25        26    -0.58684       15.9990 ; qtot   -2.339
        27           h26bf         1   UNL       h26        27     0.15586        1.0080 ; qtot   -2.183
        28           h27bf         1   UNL       h27        28     0.13967        1.0080 ; qtot   -2.044
        29           h28bf         1   UNL       h28        29     0.15125        1.0080 ; qtot   -1.893
        30           h29bf         1   UNL       h29        30     0.32635        1.0080 ; qtot   -1.566
        31           h30bf         1   UNL       h30        31     0.06335        1.0080 ; qtot   -1.503
        32           h31bf         1   UNL       h31        32     0.06335        1.0080 ; qtot   -1.439
        33           h32bf         1   UNL       h32        33     0.06539        1.0080 ; qtot   -1.374
        34           h33bf         1   UNL       h33        34     0.06539        1.0080 ; qtot   -1.309
        35           h34bf         1   UNL       h34        35     0.06539        1.0080 ; qtot   -1.243
        36           h35bf         1   UNL       h35        36     0.31689        1.0080 ; qtot   -0.926
        37           h36bf         1   UNL       h36        37     0.13610        1.0080 ; qtot   -0.790
        38           h37bf         1   UNL       h37        38     0.13384        1.0080 ; qtot   -0.656
        39           h38bf         1   UNL       h38        39     0.13384        1.0080 ; qtot   -0.523
        40           h39bf         1   UNL       h39        40     0.13610        1.0080 ; qtot   -0.387
        41           h40bf         1   UNL       h40        41     0.17330        1.0080 ; qtot   -0.213
        42           h41bf         1   UNL       h41        42     0.03867        1.0080 ; qtot   -0.175
        43           h42bf         1   UNL       h42        43     0.05820        1.0080 ; qtot   -0.116
        44           h43bf         1   UNL       h43        44     0.05820        1.0080 ; qtot   -0.058
        45           h44bf         1   UNL       h44        45     0.05819        1.0080 ; qtot    0.000

[ bonds ]
;       ai        aj funct               r               k
         1         2     1        0.139389   349913.150000    ;  uncertainty r = 0.000104, k = 7.112528
         1         4     1        0.142264   335070.113770    ;  uncertainty r = 0.000134, k = 7.096398
         1        13     1        0.141609   315106.018848    ;  uncertainty r = 0.000066, k = 10.302784
         2         6     1        0.140115   356261.215723    ;  uncertainty r = 0.000078, k = 3.631857
         2        27     1        0.108684   337329.432910    ;  uncertainty r = 0.000066, k = 3.625570
         3         4     1        0.138585   374021.330420    ;  uncertainty r = 0.000076, k = 8.150154
         3         5     1        0.140110   362629.200391    ;  uncertainty r = 0.000035, k = 4.230727
         3        28     1        0.108845   335745.212793    ;  uncertainty r = 0.000009, k = 0.995402
         4        29     1        0.108664   336644.119043    ;  uncertainty r = 0.000031, k = 2.913038
         5         6     1        0.141528   399006.787158    ;  uncertainty r = 0.000061, k = 8.152405
         5         9     1        0.137519   300213.798145    ;  uncertainty r = 0.000056, k = 10.195775
         6         7     1        0.143903   227857.795166    ;  uncertainty r = 0.000115, k = 12.287828
         7         8     1        0.132873   463856.974023    ;  uncertainty r = 0.000097, k = 8.320592
         7        10     1        0.150186   237880.676465    ;  uncertainty r = 0.000064, k = 4.541343
         8         9     1        0.136819   297875.211816    ;  uncertainty r = 0.000034, k = 11.449749
         9        30     1        0.101020   416476.391699    ;  uncertainty r = 0.000031, k = 2.687214
        10        14     1        0.151795   233478.870459    ;  uncertainty r = 0.000063, k = 3.628626
        10        31     1        0.109648   308979.130029    ;  uncertainty r = 0.000023, k = 1.425937
        10        32     1        0.109648   308979.130029    ;  uncertainty r = 0.000023, k = 1.425937
        11        12     1        0.151914   218574.647314    ;  uncertainty r = 0.000056, k = 2.456010
        11        13     1        0.137807   318108.876465    ;  uncertainty r = 0.000068, k = 18.380469
        11        26     1        0.122825   751987.122754    ;  uncertainty r = 0.000023, k = 7.324436
        12        33     1        0.109463   319552.693555    ;  uncertainty r = 0.000017, k = 2.209057
        12        34     1        0.109463   319552.693555    ;  uncertainty r = 0.000017, k = 2.209057
        12        35     1        0.109463   319552.719092    ;  uncertainty r = 0.000017, k = 2.209060
        13        36     1        0.101512   436841.266016    ;  uncertainty r = 0.000056, k = 7.334744
        14        15     1        0.139794   355474.059863    ;  uncertainty r = 0.000028, k = 2.352216
        14        19     1        0.139794   355474.059863    ;  uncertainty r = 0.000028, k = 2.352216
        15        16     1        0.139338   362972.291455    ;  uncertainty r = 0.000020, k = 2.159629
        15        37     1        0.108902   333492.303467    ;  uncertainty r = 0.000022, k = 1.112442
        16        17     1        0.140253   353391.993799    ;  uncertainty r = 0.000028, k = 3.610472
        16        38     1        0.108868   334958.771973    ;  uncertainty r = 0.000030, k = 0.809236
        17        18     1        0.140253   353391.993799    ;  uncertainty r = 0.000028, k = 3.610472
        17        20     1        0.146652   274345.727832    ;  uncertainty r = 0.000041, k = 6.994044
        18        19     1        0.139338   362972.291455    ;  uncertainty r = 0.000020, k = 2.159629
        18        39     1        0.108868   334958.771973    ;  uncertainty r = 0.000030, k = 0.809236
        19        40     1        0.108902   333492.303467    ;  uncertainty r = 0.000022, k = 1.112448
        20        21     1        0.139092   414208.236719    ;  uncertainty r = 0.000013, k = 2.977957
        20        24     1        0.142427   245231.916455    ;  uncertainty r = 0.000028, k = 7.933774
        21        22     1        0.136086   293168.518262    ;  uncertainty r = 0.000038, k = 2.183958
        21        41     1        0.108275   339142.108008    ;  uncertainty r = 0.000029, k = 1.978629
        22        23     1        0.135372   281833.821191    ;  uncertainty r = 0.000063, k = 7.581417
        22        25     1        0.145228   253114.098486    ;  uncertainty r = 0.000011, k = 4.991516
        23        24     1        0.133356   453692.795898    ;  uncertainty r = 0.000038, k = 2.837530
        24        42     1        0.108433   337731.131641    ;  uncertainty r = 0.000017, k = 2.346790
        25        43     1        0.109330   311409.266895    ;  uncertainty r = 0.000011, k = 1.149450
        25        44     1        0.109330   311409.266895    ;  uncertainty r = 0.000011, k = 1.149450
        25        45     1        0.109330   311409.266895    ;  uncertainty r = 0.000011, k = 1.149450

[ angles ]
;       ai        aj        ak funct           theta             cth
         1         2         6     1      117.896317      521.629264    ;  uncertainty theta = 0.003937, k = 0.140652
         1         2        27     1      119.493370      266.498458    ;  uncertainty theta = 0.002199, k = 0.104452
         1         4         3     1      122.323669      496.884794    ;  uncertainty theta = 0.003685, k = 0.031048
         1         4        29     1      118.250610      271.415836    ;  uncertainty theta = 0.001526, k = 0.077218
         1        13        11     1      118.813499      426.773905    ;  uncertainty theta = 0.002342, k = 0.089425
         1        13        36     1      113.925598      313.492916    ;  uncertainty theta = 0.004812, k = 0.158120
         2         1         4     1      122.504639      400.357585    ;  uncertainty theta = 0.005239, k = 0.209382
         2         1        13     1      119.666183      513.833550    ;  uncertainty theta = 0.003950, k = 0.166598
         2         6         5     1      118.470177      394.023903    ;  uncertainty theta = 0.003149, k = 0.164386
         2         6         7     1      130.752396      342.432303    ;  uncertainty theta = 0.003523, k = 0.201807
         3         4        29     1      119.644592      311.245683    ;  uncertainty theta = 0.001266, k = 0.053780
         3         5         6     1      119.831863      375.609317    ;  uncertainty theta = 0.004878, k = 0.132838
         3         5         9     1      130.281906      396.761577    ;  uncertainty theta = 0.002819, k = 0.097864
         4         1        13     1      119.360497      530.929687    ;  uncertainty theta = 0.006183, k = 0.191767
         4         3         5     1      117.116356      531.560231    ;  uncertainty theta = 0.003959, k = 0.093835
         4         3        28     1      120.712692      276.179816    ;  uncertainty theta = 0.003155, k = 0.064271
         5         3        28     1      122.776489      289.213733    ;  uncertainty theta = 0.001707, k = 0.081663
         5         6         7     1      103.838478      709.251460    ;  uncertainty theta = 0.005658, k = 0.127984
         5         9         8     1      108.834328      994.126789    ;  uncertainty theta = 0.004196, k = 0.105360
         5         9        30     1      115.868881      284.700560    ;  uncertainty theta = 0.007631, k = 0.067415
         6         2        27     1      121.657394      295.502757    ;  uncertainty theta = 0.005729, k = 0.058554
         6         5         9     1      105.263573      706.540887    ;  uncertainty theta = 0.003279, k = 0.103924
         6         7         8     1      112.763870      866.462885    ;  uncertainty theta = 0.001660, k = 0.088492
         6         7        10     1      127.311684      340.386844    ;  uncertainty theta = 0.004334, k = 0.097066
         7         8         9     1      109.410828      908.108994    ;  uncertainty theta = 0.003527, k = 0.142250
         7        10        14     1      111.438431      538.596534    ;  uncertainty theta = 0.002656, k = 0.073038
         7        10        31     1      107.231506      404.311751    ;  uncertainty theta = 0.002672, k = 0.096677
         7        10        32     1      107.231506      404.311751    ;  uncertainty theta = 0.002672, k = 0.096677
         8         7        10     1      121.548462      408.874786    ;  uncertainty theta = 0.004708, k = 0.121638
         8         9        30     1      108.270935      348.057521    ;  uncertainty theta = 0.007607, k = 0.026261
        10        14        15     1      121.045166      422.581127    ;  uncertainty theta = 0.002275, k = 0.038270
        10        14        19     1      121.045166      422.581127    ;  uncertainty theta = 0.002275, k = 0.038270
        11        12        33     1      108.468582      371.833656    ;  uncertainty theta = 0.001606, k = 0.090801
        11        12        34     1      108.468582      371.833656    ;  uncertainty theta = 0.001606, k = 0.090801
        11        12        35     1      108.468582      371.833592    ;  uncertainty theta = 0.001606, k = 0.090801
        11        13        36     1      114.545486      341.415319    ;  uncertainty theta = 0.003969, k = 0.179663
        12        11        13     1      113.223389      514.083654    ;  uncertainty theta = 0.000982, k = 0.118754
        12        11        26     1      124.269730      555.849022    ;  uncertainty theta = 0.002459, k = 0.127057
        13        11        26     1      121.459457      688.144081    ;  uncertainty theta = 0.002481, k = 0.164467
        14        10        31     1      107.837601      399.901237    ;  uncertainty theta = 0.002249, k = 0.057837
        14        10        32     1      107.837601      399.901237    ;  uncertainty theta = 0.002249, k = 0.057837
        14        15        16     1      121.318886      514.235568    ;  uncertainty theta = 0.001778, k = 0.059752
        14        15        37     1      119.166000      270.523857    ;  uncertainty theta = 0.002269, k = 0.008290
        14        19        18     1      121.318886      514.235568    ;  uncertainty theta = 0.001778, k = 0.059752
        14        19        40     1      119.166000      270.523857    ;  uncertainty theta = 0.002269, k = 0.008290
        15        14        19     1      118.819534      462.266433    ;  uncertainty theta = 0.001838, k = 0.080865
        15        16        17     1      121.217484      515.997661    ;  uncertainty theta = 0.001896, k = 0.077715
        15        16        38     1      119.997902      290.785989    ;  uncertainty theta = 0.002435, k = 0.029685
        16        15        37     1      119.867722      290.821262    ;  uncertainty theta = 0.002696, k = 0.045566
        16        17        18     1      118.904152      401.449329    ;  uncertainty theta = 0.000792, k = 0.077724
        16        17        20     1      121.709091      440.254499    ;  uncertainty theta = 0.000934, k = 0.108366
        17        16        38     1      119.095055      282.559113    ;  uncertainty theta = 0.001574, k = 0.076417
        17        18        19     1      121.217484      515.997661    ;  uncertainty theta = 0.001896, k = 0.077715
        17        18        39     1      119.095055      282.559113    ;  uncertainty theta = 0.001574, k = 0.076417
        17        20        21     1      127.697556      343.157780    ;  uncertainty theta = 0.004353, k = 0.177775
        17        20        24     1      126.731285      348.545089    ;  uncertainty theta = 0.003995, k = 0.207076
        18        17        20     1      121.709091      440.254499    ;  uncertainty theta = 0.000934, k = 0.108366
        18        19        40     1      119.867722      290.821262    ;  uncertainty theta = 0.002696, k = 0.045566
        19        18        39     1      119.997902      290.785989    ;  uncertainty theta = 0.002435, k = 0.029685
        20        21        22     1      107.786392      728.617782    ;  uncertainty theta = 0.002722, k = 0.171005
        20        21        41     1      129.337921      225.112173    ;  uncertainty theta = 0.003840, k = 0.127302
        20        24        23     1      112.792480      868.770035    ;  uncertainty theta = 0.004151, k = 0.098178
        20        24        42     1      126.058434      240.089560    ;  uncertainty theta = 0.003930, k = 0.061937
        21        20        24     1      104.376785      682.871498    ;  uncertainty theta = 0.005377, k = 0.161868
        21        22        23     1      109.875771      985.972854    ;  uncertainty theta = 0.001972, k = 0.104814
        21        22        25     1      122.678429      402.059506    ;  uncertainty theta = 0.001716, k = 0.122019
        22        21        41     1      118.090332      269.140033    ;  uncertainty theta = 0.002835, k = 0.151929
        22        23        24     1      106.284325      901.234404    ;  uncertainty theta = 0.001454, k = 0.058731
        22        25        43     1      108.689758      466.172366    ;  uncertainty theta = 0.001193, k = 0.023318
        22        25        44     1      108.689758      466.172366    ;  uncertainty theta = 0.001193, k = 0.023318
        22        25        45     1      108.689758      466.172366    ;  uncertainty theta = 0.001193, k = 0.023318
        23        22        25     1      116.723465      468.949367    ;  uncertainty theta = 0.002619, k = 0.085339
        23        24        42     1      118.687271      285.500605    ;  uncertainty theta = 0.004102, k = 0.050180
        31        10        32     1      104.257248      312.827994    ;  uncertainty theta = 0.003792, k = 0.040478
        33        12        34     1      106.841331      312.630975    ;  uncertainty theta = 0.000780, k = 0.022777
        33        12        35     1      106.841331      312.630975    ;  uncertainty theta = 0.000780, k = 0.022777
        34        12        35     1      106.841331      312.630975    ;  uncertainty theta = 0.000780, k = 0.022777
        43        25        44     1      107.724472      320.089279    ;  uncertainty theta = 0.001790, k = 0.014894
        43        25        45     1      107.724472      320.089279    ;  uncertainty theta = 0.001790, k = 0.014894
        44        25        45     1      107.724472      320.089215    ;  uncertainty theta = 0.001790, k = 0.014894

[ dihedrals ] ; propers for gromacs 4.5 or higher, use funct 9
;       ai        aj        ak        al funct           phase               k        pn
         1         2         6         5     9        0.000000        0.045900         1    ;  uncertainty k = 0.552751
         1         2         6         5     9      180.000000       13.273788         2    ;  uncertainty k = 0.437628
         1         2         6         5     9        0.000000       -1.691387         3    ;  uncertainty k = 0.566321
         1         2         6         5     9      180.000000        0.690312         4    ;  uncertainty k = 0.233497
         1         2         6         7     9        0.000000        0.085583         1    ;  uncertainty k = 0.450390
         1         2         6         7     9      180.000000        7.941355         2    ;  uncertainty k = 0.612475
         1         2         6         7     9        0.000000        0.862731         3    ;  uncertainty k = 0.517268
         1         2         6         7     9      180.000000        1.282613         4    ;  uncertainty k = 0.172155
         1         4         3         5     9        0.000000        0.011347         1    ;  uncertainty k = 0.279589
         1         4         3         5     9      180.000000       17.270603         2    ;  uncertainty k = 0.437843
         1         4         3         5     9        0.000000       -0.387574         3    ;  uncertainty k = 0.370800
         1         4         3         5     9      180.000000        0.521210         4    ;  uncertainty k = 0.433298
         1         4         3        28     9        0.000000       -0.020978         1    ;  uncertainty k = 0.185416
         1         4         3        28     9      180.000000        9.885370         2    ;  uncertainty k = 0.555023
         1         4         3        28     9        0.000000        1.346288         3    ;  uncertainty k = 0.323848
         1         4         3        28     9      180.000000        1.687726         4    ;  uncertainty k = 0.262066
         1        13        11        12     9        0.000000        7.038816         1    ;  uncertainty k = 0.549786
         1        13        11        12     9      180.000000        7.991283         2    ;  uncertainty k = 0.534087
         1        13        11        12     9        0.000000        1.317385         3    ;  uncertainty k = 0.342919
         1        13        11        12     9      180.000000       -0.262037         4    ;  uncertainty k = 0.318856
         1        13        11        26     9        0.000000        4.139486         1    ;  uncertainty k = 0.944803
         1        13        11        26     9      180.000000       15.243956         2    ;  uncertainty k = 0.262386
         1        13        11        26     9        0.000000        0.789610         3    ;  uncertainty k = 0.249623
         1        13        11        26     9      180.000000       -1.134438         4    ;  uncertainty k = 0.151958
         2         1         4         3     9        0.000000       -0.227983         1    ;  uncertainty k = 0.048988
         2         1         4         3     9      180.000000        8.082628         2    ;  uncertainty k = 0.451678
         2         1         4         3     9        0.000000        0.076511         3    ;  uncertainty k = 0.188389
         2         1         4         3     9      180.000000        1.170235         4    ;  uncertainty k = 0.199599
         2         1         4        29     9        0.000000        0.180824         1    ;  uncertainty k = 0.309894
         2         1         4        29     9      180.000000        5.863918         2    ;  uncertainty k = 0.416255
         2         1         4        29     9        0.000000        1.276288         3    ;  uncertainty k = 0.221193
         2         1         4        29     9      180.000000        1.387681         4    ;  uncertainty k = 0.195737
         2         1        13        11     9        0.000000        1.377047         1    ;  uncertainty k = 0.875725
         2         1        13        11     9      180.000000        2.813969         2    ;  uncertainty k = 0.208459
         2         1        13        11     9        0.000000        0.513575         3    ;  uncertainty k = 0.223818
         2         1        13        11     9      180.000000        0.397616         4    ;  uncertainty k = 0.092895
         2         1        13        36     9        0.000000        0.169986         1    ;  uncertainty k = 0.563254
         2         1        13        36     9      180.000000        2.866883         2    ;  uncertainty k = 0.259566
         2         1        13        36     9        0.000000        0.474535         3    ;  uncertainty k = 0.108282
         2         1        13        36     9      180.000000        0.393675         4    ;  uncertainty k = 0.068997
         2         6         5         3     9        0.000000       -0.587587         1    ;  uncertainty k = 0.439881
         2         6         5         3     9      180.000000        7.164276         2    ;  uncertainty k = 0.616058
         2         6         5         3     9        0.000000        0.059339         3    ;  uncertainty k = 0.442873
         2         6         5         3     9      180.000000        1.040542         4    ;  uncertainty k = 0.325867
         2         6         5         9     9        0.000000       -0.025014         1    ;  uncertainty k = 0.558994
         2         6         5         9     9      180.000000        8.461851         2    ;  uncertainty k = 0.482541
         2         6         5         9     9        0.000000       -0.211945         3    ;  uncertainty k = 0.537644
         2         6         5         9     9      180.000000        1.254215         4    ;  uncertainty k = 0.370435
         2         6         7         8     9        0.000000        0.555447         1    ;  uncertainty k = 0.878051
         2         6         7         8     9      180.000000        6.724119         2    ;  uncertainty k = 0.173419
         2         6         7         8     9        0.000000        0.209589         3    ;  uncertainty k = 0.722214
         2         6         7         8     9      180.000000        0.947276         4    ;  uncertainty k = 0.286041
         2         6         7        10     9        0.000000       -0.714963         1    ;  uncertainty k = 0.581632
         2         6         7        10     9      180.000000        4.013268         2    ;  uncertainty k = 0.654497
         2         6         7        10     9        0.000000        1.313193         3    ;  uncertainty k = 0.280992
         2         6         7        10     9      180.000000        0.132799         4    ;  uncertainty k = 0.198861
         3         4         1        13     9        0.000000       -0.053536         1    ;  uncertainty k = 0.192050
         3         4         1        13     9      180.000000        9.300986         2    ;  uncertainty k = 0.621369
         3         4         1        13     9        0.000000        1.107585         3    ;  uncertainty k = 0.377747
         3         4         1        13     9      180.000000        1.598278         4    ;  uncertainty k = 0.238373
         3         5         6         7     9        0.000000        0.161537         1    ;  uncertainty k = 0.253774
         3         5         6         7     9      180.000000        6.774068         2    ;  uncertainty k = 0.318670
         3         5         6         7     9        0.000000        0.238708         3    ;  uncertainty k = 0.447144
         3         5         6         7     9      180.000000        1.291447         4    ;  uncertainty k = 0.399100
         3         5         9         8     9        0.000000        0.996975         1    ;  uncertainty k = 1.012670
         3         5         9         8     9      180.000000        6.168917         2    ;  uncertainty k = 0.479937
         3         5         9         8     9        0.000000        0.638777         3    ;  uncertainty k = 0.641512
         3         5         9         8     9      180.000000        0.402439         4    ;  uncertainty k = 0.189656
         3         5         9        30     9        0.000000        1.939734         1    ;  uncertainty k = 1.091838
         3         5         9        30     9      180.000000        1.216308         2    ;  uncertainty k = 0.534401
         3         5         9        30     9        0.000000        1.344280         3    ;  uncertainty k = 0.465490
         3         5         9        30     9      180.000000        0.086057         4    ;  uncertainty k = 0.192009
         4         1         2         6     9        0.000000       -0.005342         1    ;  uncertainty k = 0.339577
         4         1         2         6     9      180.000000       11.895789         2    ;  uncertainty k = 0.498398
         4         1         2         6     9        0.000000        0.287807         3    ;  uncertainty k = 0.237791
         4         1         2         6     9      180.000000        1.077587         4    ;  uncertainty k = 0.319001
         4         1         2        27     9        0.000000        0.064529         1    ;  uncertainty k = 0.396499
         4         1         2        27     9      180.000000        7.391827         2    ;  uncertainty k = 0.339062
         4         1         2        27     9        0.000000        1.415288         3    ;  uncertainty k = 0.347974
         4         1         2        27     9      180.000000        1.578644         4    ;  uncertainty k = 0.186456
         4         1        13        11     9        0.000000        0.920891         1    ;  uncertainty k = 0.712536
         4         1        13        11     9      180.000000        3.156086         2    ;  uncertainty k = 0.257968
         4         1        13        11     9        0.000000        0.767898         3    ;  uncertainty k = 0.161598
         4         1        13        11     9      180.000000        0.359801         4    ;  uncertainty k = 0.084808
         4         1        13        36     9        0.000000        0.238343         1    ;  uncertainty k = 0.651755
         4         1        13        36     9      180.000000        3.208604         2    ;  uncertainty k = 0.078850
         4         1        13        36     9        0.000000        0.702355         3    ;  uncertainty k = 0.143890
         4         1        13        36     9      180.000000        0.403232         4    ;  uncertainty k = 0.066049
         4         3         5         6     9        0.000000       -0.116305         1    ;  uncertainty k = 0.347490
         4         3         5         6     9      180.000000       12.224389         2    ;  uncertainty k = 0.151459
         4         3         5         6     9        0.000000       -1.278209         3    ;  uncertainty k = 0.256424
         4         3         5         6     9      180.000000        0.790521         4    ;  uncertainty k = 0.150231
         4         3         5         9     9        0.000000        0.173902         1    ;  uncertainty k = 0.341769
         4         3         5         9     9      180.000000        9.921744         2    ;  uncertainty k = 0.714830
         4         3         5         9     9        0.000000        0.750367         3    ;  uncertainty k = 0.224674
         4         3         5         9     9      180.000000        1.216304         4    ;  uncertainty k = 0.307377
         5         3         4        29     9        0.000000        0.000425         1    ;  uncertainty k = 0.118663
         5         3         4        29     9      180.000000       11.814403         2    ;  uncertainty k = 0.440763
         5         3         4        29     9        0.000000        1.429545         3    ;  uncertainty k = 0.274776
         5         3         4        29     9      180.000000        1.596758         4    ;  uncertainty k = 0.324054
         5         6         2        27     9        0.000000        0.186245         1    ;  uncertainty k = 0.482301
         5         6         2        27     9      180.000000        7.376404         2    ;  uncertainty k = 0.992776
         5         6         2        27     9        0.000000        1.399920         3    ;  uncertainty k = 0.367880
         5         6         2        27     9      180.000000        1.201140         4    ;  uncertainty k = 0.390227
         5         6         7         8     9        0.000000        0.559570         1    ;  uncertainty k = 0.525884
         5         6         7         8     9      180.000000       13.341363         2    ;  uncertainty k = 1.159742
         5         6         7         8     9        0.000000      -10.883253         3    ;  uncertainty k = 1.955294
         5         6         7         8     9      180.000000        2.053704         4    ;  uncertainty k = 0.588269
         5         6         7        10     9        0.000000        1.279681         1    ;  uncertainty k = 0.977446
         5         6         7        10     9      180.000000        8.367167         2    ;  uncertainty k = 0.541490
         5         6         7        10     9        0.000000        1.803153         3    ;  uncertainty k = 0.774786
         5         6         7        10     9      180.000000        0.278817         4    ;  uncertainty k = 0.348379
         5         9         8         7     9        0.000000       -0.762418         1    ;  uncertainty k = 0.911194
         5         9         8         7     9      180.000000       16.984304         2    ;  uncertainty k = 0.598181
         5         9         8         7     9        0.000000       -4.757016         3    ;  uncertainty k = 1.076404
         5         9         8         7     9      180.000000        1.030262         4    ;  uncertainty k = 0.546585
         6         2         1        13     9        0.000000        0.100283         1    ;  uncertainty k = 0.357446
         6         2         1        13     9      180.000000       13.014009         2    ;  uncertainty k = 0.586715
         6         2         1        13     9        0.000000        1.178167         3    ;  uncertainty k = 0.331123
         6         2         1        13     9      180.000000        1.390906         4    ;  uncertainty k = 0.311284
         6         5         3        28     9        0.000000       -0.000609         1    ;  uncertainty k = 0.324796
         6         5         3        28     9      180.000000        6.327406         2    ;  uncertainty k = 1.056535
         6         5         3        28     9        0.000000        1.269531         3    ;  uncertainty k = 0.243760
         6         5         3        28     9      180.000000        1.031005         4    ;  uncertainty k = 0.441269
         6         5         9         8     9        0.000000        0.078493         1    ;  uncertainty k = 0.600524
         6         5         9         8     9      180.000000       16.835677         2    ;  uncertainty k = 1.091669
         6         5         9         8     9        0.000000       -8.575436         3    ;  uncertainty k = 1.501831
         6         5         9         8     9      180.000000        0.775048         4    ;  uncertainty k = 0.617802
         6         5         9        30     9        0.000000        4.681326         1    ;  uncertainty k = 1.701325
         6         5         9        30     9      180.000000        5.329666         2    ;  uncertainty k = 1.496704
         6         5         9        30     9        0.000000        1.445911         3    ;  uncertainty k = 0.253983
         6         5         9        30     9      180.000000        0.093892         4    ;  uncertainty k = 0.160026
         6         7         8         9     9        0.000000       -0.423149         1    ;  uncertainty k = 0.388154
         6         7         8         9     9      180.000000       24.823535         2    ;  uncertainty k = 0.159560
         6         7         8         9     9        0.000000       -4.341074         3    ;  uncertainty k = 0.940984
         6         7         8         9     9      180.000000        1.972033         4    ;  uncertainty k = 0.413904
         6         7        10        14     9        0.000000       -0.590503         1    ;  uncertainty k = 0.543145
         6         7        10        14     9      180.000000        0.854188         2    ;  uncertainty k = 0.480935
         6         7        10        14     9        0.000000        0.982154         3    ;  uncertainty k = 0.185904
         6         7        10        14     9      180.000000        0.153104         4    ;  uncertainty k = 0.127438
         6         7        10        31     9        0.000000       -1.242264         1    ;  uncertainty k = 0.253314
         6         7        10        31     9      180.000000        1.702833         2    ;  uncertainty k = 0.539287
         6         7        10        31     9        0.000000        0.855108         3    ;  uncertainty k = 0.164107
         6         7        10        31     9      180.000000        0.087757         4    ;  uncertainty k = 0.066331
         6         7        10        32     9        0.000000       -1.242264         1    ;  uncertainty k = 0.253314
         6         7        10        32     9      180.000000        1.702833         2    ;  uncertainty k = 0.539287
         6         7        10        32     9        0.000000        0.855108         3    ;  uncertainty k = 0.164107
         6         7        10        32     9      180.000000        0.087757         4    ;  uncertainty k = 0.066331
         7         6         2        27     9        0.000000       -0.021473         1    ;  uncertainty k = 0.509979
         7         6         2        27     9      180.000000        5.267932         2    ;  uncertainty k = 0.753120
         7         6         2        27     9        0.000000        1.051461         3    ;  uncertainty k = 0.351923
         7         6         2        27     9      180.000000        0.667451         4    ;  uncertainty k = 0.389666
         7         6         5         9     9        0.000000       -0.436101         1    ;  uncertainty k = 0.276594
         7         6         5         9     9      180.000000       12.132486         2    ;  uncertainty k = 0.619551
         7         6         5         9     9        0.000000       -3.631958         3    ;  uncertainty k = 1.557632
         7         6         5         9     9      180.000000        1.629083         4    ;  uncertainty k = 0.543006
         7         8         9        30     9        0.000000        4.166696         1    ;  uncertainty k = 2.325081
         7         8         9        30     9      180.000000       12.844342         2    ;  uncertainty k = 0.090440
         7         8         9        30     9        0.000000        1.679962         3    ;  uncertainty k = 1.047059
         7         8         9        30     9      180.000000       -0.429841         4    ;  uncertainty k = 0.259278
         7        10        14        15     9        0.000000        0.614625         1    ;  uncertainty k = 0.141811
         7        10        14        15     9      180.000000        1.857637         2    ;  uncertainty k = 0.196509
         7        10        14        15     9        0.000000        0.522807         3    ;  uncertainty k = 0.169427
         7        10        14        15     9      180.000000        0.244971         4    ;  uncertainty k = 0.075624
         7        10        14        19     9        0.000000        0.614625         1    ;  uncertainty k = 0.141811
         7        10        14        19     9      180.000000        1.857637         2    ;  uncertainty k = 0.196509
         7        10        14        19     9        0.000000        0.522807         3    ;  uncertainty k = 0.169427
         7        10        14        19     9      180.000000        0.244971         4    ;  uncertainty k = 0.075624
         8         7        10        14     9        0.000000        1.067279         1    ;  uncertainty k = 0.422027
         8         7        10        14     9      180.000000        1.534861         2    ;  uncertainty k = 0.280829
         8         7        10        14     9        0.000000        0.013240         3    ;  uncertainty k = 0.167807
         8         7        10        14     9      180.000000        0.135900         4    ;  uncertainty k = 0.102645
         8         7        10        31     9        0.000000        1.769584         1    ;  uncertainty k = 0.094148
         8         7        10        31     9      180.000000        2.177403         2    ;  uncertainty k = 0.265529
         8         7        10        31     9        0.000000        0.153019         3    ;  uncertainty k = 0.091535
         8         7        10        31     9      180.000000        0.106115         4    ;  uncertainty k = 0.046748
         8         7        10        32     9        0.000000        1.769584         1    ;  uncertainty k = 0.094148
         8         7        10        32     9      180.000000        2.177403         2    ;  uncertainty k = 0.265529
         8         7        10        32     9        0.000000        0.153019         3    ;  uncertainty k = 0.091535
         8         7        10        32     9      180.000000        0.106115         4    ;  uncertainty k = 0.046748
         9         5         3        28     9        0.000000        0.370340         1    ;  uncertainty k = 0.392632
         9         5         3        28     9      180.000000        5.303140         2    ;  uncertainty k = 0.749671
         9         5         3        28     9        0.000000        1.112870         3    ;  uncertainty k = 0.212846
         9         5         3        28     9      180.000000        0.710699         4    ;  uncertainty k = 0.323816
         9         8         7        10     9        0.000000       -0.533478         1    ;  uncertainty k = 0.824493
         9         8         7        10     9      180.000000       25.129016         2    ;  uncertainty k = 0.170759
         9         8         7        10     9        0.000000        2.422035         3    ;  uncertainty k = 0.636198
         9         8         7        10     9      180.000000        1.095970         4    ;  uncertainty k = 0.276315
        10        14        15        16     9        0.000000        0.169204         1    ;  uncertainty k = 0.242807
        10        14        15        16     9      180.000000        8.593729         2    ;  uncertainty k = 0.401443
        10        14        15        16     9        0.000000        1.459163         3    ;  uncertainty k = 0.363057
        10        14        15        16     9      180.000000        1.890470         4    ;  uncertainty k = 0.111180
        10        14        15        37     9        0.000000       -0.145243         1    ;  uncertainty k = 0.181743
        10        14        15        37     9      180.000000        7.615666         2    ;  uncertainty k = 0.278472
        10        14        15        37     9        0.000000        0.580734         3    ;  uncertainty k = 0.342497
        10        14        15        37     9      180.000000        0.989521         4    ;  uncertainty k = 0.234579
        10        14        19        18     9        0.000000        0.169204         1    ;  uncertainty k = 0.242807
        10        14        19        18     9      180.000000        8.593729         2    ;  uncertainty k = 0.401443
        10        14        19        18     9        0.000000        1.459163         3    ;  uncertainty k = 0.363057
        10        14        19        18     9      180.000000        1.890470         4    ;  uncertainty k = 0.111180
        10        14        19        40     9        0.000000       -0.145243         1    ;  uncertainty k = 0.181743
        10        14        19        40     9      180.000000        7.615666         2    ;  uncertainty k = 0.278472
        10        14        19        40     9        0.000000        0.580734         3    ;  uncertainty k = 0.342497
        10        14        19        40     9      180.000000        0.989521         4    ;  uncertainty k = 0.234579
        12        11        13        36     9        0.000000       -1.714737         1    ;  uncertainty k = 0.694817
        12        11        13        36     9      180.000000        5.928307         2    ;  uncertainty k = 0.538990
        12        11        13        36     9        0.000000        1.697890         3    ;  uncertainty k = 0.182538
        12        11        13        36     9      180.000000        0.250714         4    ;  uncertainty k = 0.370678
        13         1         2        27     9        0.000000       -0.262911         1    ;  uncertainty k = 0.199436
        13         1         2        27     9      180.000000        9.150121         2    ;  uncertainty k = 0.297969
        13         1         2        27     9        0.000000        0.787549         3    ;  uncertainty k = 0.174239
        13         1         2        27     9      180.000000        1.138523         4    ;  uncertainty k = 0.106944
        13         1         4        29     9        0.000000       -0.155861         1    ;  uncertainty k = 0.239871
        13         1         4        29     9      180.000000        8.092690         2    ;  uncertainty k = 0.287633
        13         1         4        29     9        0.000000        0.762016         3    ;  uncertainty k = 0.155065
        13         1         4        29     9      180.000000        1.087660         4    ;  uncertainty k = 0.177124
        13        11        12        33     9        0.000000       -0.810011         1    ;  uncertainty k = 0.264486
        13        11        12        33     9      180.000000        1.663634         2    ;  uncertainty k = 0.332569
        13        11        12        33     9        0.000000        0.202381         3    ;  uncertainty k = 0.023761
        13        11        12        33     9      180.000000        0.052074         4    ;  uncertainty k = 0.103982
        13        11        12        34     9        0.000000       -0.810011         1    ;  uncertainty k = 0.264486
        13        11        12        34     9      180.000000        1.663634         2    ;  uncertainty k = 0.332569
        13        11        12        34     9        0.000000        0.202381         3    ;  uncertainty k = 0.023761
        13        11        12        34     9      180.000000        0.052074         4    ;  uncertainty k = 0.103982
        13        11        12        35     9        0.000000       -0.810011         1    ;  uncertainty k = 0.264485
        13        11        12        35     9      180.000000        1.663634         2    ;  uncertainty k = 0.332568
        13        11        12        35     9        0.000000        0.202381         3    ;  uncertainty k = 0.023761
        13        11        12        35     9      180.000000        0.052074         4    ;  uncertainty k = 0.103982
        14        15        16        17     9        0.000000       -0.087057         1    ;  uncertainty k = 0.154901
        14        15        16        17     9      180.000000       13.600436         2    ;  uncertainty k = 0.230971
        14        15        16        17     9        0.000000       -0.751784         3    ;  uncertainty k = 0.436421
        14        15        16        17     9      180.000000        0.777514         4    ;  uncertainty k = 0.245178
        14        15        16        38     9        0.000000        0.010827         1    ;  uncertainty k = 0.163132
        14        15        16        38     9      180.000000        7.805433         2    ;  uncertainty k = 0.422073
        14        15        16        38     9        0.000000        1.391790         3    ;  uncertainty k = 0.234314
        14        15        16        38     9      180.000000        1.880931         4    ;  uncertainty k = 0.189420
        14        19        18        17     9        0.000000       -0.087057         1    ;  uncertainty k = 0.154901
        14        19        18        17     9      180.000000       13.600436         2    ;  uncertainty k = 0.230971
        14        19        18        17     9        0.000000       -0.751784         3    ;  uncertainty k = 0.436421
        14        19        18        17     9      180.000000        0.777514         4    ;  uncertainty k = 0.245178
        14        19        18        39     9        0.000000        0.010827         1    ;  uncertainty k = 0.163132
        14        19        18        39     9      180.000000        7.805433         2    ;  uncertainty k = 0.422073
        14        19        18        39     9        0.000000        1.391790         3    ;  uncertainty k = 0.234314
        14        19        18        39     9      180.000000        1.880931         4    ;  uncertainty k = 0.189420
        15        14        10        31     9        0.000000       -0.300138         1    ;  uncertainty k = 0.153189
        15        14        10        31     9      180.000000        1.928373         2    ;  uncertainty k = 0.130920
        15        14        10        31     9        0.000000        0.360376         3    ;  uncertainty k = 0.118491
        15        14        10        31     9      180.000000        0.117080         4    ;  uncertainty k = 0.032968
        15        14        10        32     9        0.000000       -0.300138         1    ;  uncertainty k = 0.153189
        15        14        10        32     9      180.000000        1.928373         2    ;  uncertainty k = 0.130920
        15        14        10        32     9        0.000000        0.360376         3    ;  uncertainty k = 0.118491
        15        14        10        32     9      180.000000        0.117080         4    ;  uncertainty k = 0.032968
        15        14        19        18     9        0.000000       -0.141019         1    ;  uncertainty k = 0.190132
        15        14        19        18     9      180.000000       11.565169         2    ;  uncertainty k = 0.450751
        15        14        19        18     9        0.000000       -0.482803         3    ;  uncertainty k = 0.323947
        15        14        19        18     9      180.000000        0.820385         4    ;  uncertainty k = 0.428180
        15        14        19        40     9        0.000000        0.161510         1    ;  uncertainty k = 0.189284
        15        14        19        40     9      180.000000        7.143526         2    ;  uncertainty k = 0.548274
        15        14        19        40     9        0.000000        1.383620         3    ;  uncertainty k = 0.306740
        15        14        19        40     9      180.000000        1.646182         4    ;  uncertainty k = 0.144811
        15        16        17        18     9        0.000000        0.099530         1    ;  uncertainty k = 0.198850
        15        16        17        18     9      180.000000       10.864272         2    ;  uncertainty k = 0.250101
        15        16        17        18     9        0.000000       -0.460426         3    ;  uncertainty k = 0.291547
        15        16        17        18     9      180.000000        0.910602         4    ;  uncertainty k = 0.279798
        15        16        17        20     9        0.000000       -0.069350         1    ;  uncertainty k = 0.292775
        15        16        17        20     9      180.000000        8.942093         2    ;  uncertainty k = 0.563576
        15        16        17        20     9        0.000000        1.225126         3    ;  uncertainty k = 0.296630
        15        16        17        20     9      180.000000        1.608135         4    ;  uncertainty k = 0.239057
        16        15        14        19     9        0.000000       -0.141019         1    ;  uncertainty k = 0.190132
        16        15        14        19     9      180.000000       11.565169         2    ;  uncertainty k = 0.450751
        16        15        14        19     9        0.000000       -0.482803         3    ;  uncertainty k = 0.323947
        16        15        14        19     9      180.000000        0.820385         4    ;  uncertainty k = 0.428180
        16        17        18        19     9        0.000000        0.099530         1    ;  uncertainty k = 0.198850
        16        17        18        19     9      180.000000       10.864272         2    ;  uncertainty k = 0.250101
        16        17        18        19     9        0.000000       -0.460426         3    ;  uncertainty k = 0.291547
        16        17        18        19     9      180.000000        0.910602         4    ;  uncertainty k = 0.279798
        16        17        18        39     9        0.000000        0.071629         1    ;  uncertainty k = 0.210521
        16        17        18        39     9      180.000000        6.731318         2    ;  uncertainty k = 0.652358
        16        17        18        39     9        0.000000        1.402558         3    ;  uncertainty k = 0.275742
        16        17        18        39     9      180.000000        1.629461         4    ;  uncertainty k = 0.263941
        16        17        20        21     9        0.000000        0.364742         1    ;  uncertainty k = 0.617618
        16        17        20        21     9      180.000000        2.957626         2    ;  uncertainty k = 0.176252
        16        17        20        21     9        0.000000        0.337574         3    ;  uncertainty k = 0.277333
        16        17        20        21     9      180.000000       -0.075996         4    ;  uncertainty k = 0.052358
        16        17        20        24     9        0.000000        0.212086         1    ;  uncertainty k = 0.583244
        16        17        20        24     9      180.000000        2.756721         2    ;  uncertainty k = 0.102989
        16        17        20        24     9        0.000000        0.399155         3    ;  uncertainty k = 0.207054
        16        17        20        24     9      180.000000       -0.145894         4    ;  uncertainty k = 0.054998
        17        16        15        37     9        0.000000        0.051679         1    ;  uncertainty k = 0.047053
        17        16        15        37     9      180.000000        8.110356         2    ;  uncertainty k = 0.308214
        17        16        15        37     9        0.000000        1.348837         3    ;  uncertainty k = 0.262065
        17        16        15        37     9      180.000000        1.847919         4    ;  uncertainty k = 0.146536
        17        18        19        40     9        0.000000        0.051679         1    ;  uncertainty k = 0.047053
        17        18        19        40     9      180.000000        8.110356         2    ;  uncertainty k = 0.308214
        17        18        19        40     9        0.000000        1.348837         3    ;  uncertainty k = 0.262065
        17        18        19        40     9      180.000000        1.847919         4    ;  uncertainty k = 0.146536
        17        20        21        22     9        0.000000        0.730829         1    ;  uncertainty k = 0.745969
        17        20        21        22     9      180.000000       14.124868         2    ;  uncertainty k = 0.381349
        17        20        21        22     9        0.000000        1.366411         3    ;  uncertainty k = 0.224812
        17        20        21        22     9      180.000000        0.828718         4    ;  uncertainty k = 0.243932
        17        20        21        41     9        0.000000        0.487086         1    ;  uncertainty k = 0.482656
        17        20        21        41     9      180.000000        6.408018         2    ;  uncertainty k = 0.855931
        17        20        21        41     9        0.000000        1.305884         3    ;  uncertainty k = 0.462346
        17        20        21        41     9      180.000000        0.400447         4    ;  uncertainty k = 0.122561
        17        20        24        23     9        0.000000        0.856900         1    ;  uncertainty k = 1.194888
        17        20        24        23     9      180.000000       12.441672         2    ;  uncertainty k = 0.564932
        17        20        24        23     9        0.000000        1.830358         3    ;  uncertainty k = 0.514365
        17        20        24        23     9      180.000000        0.550072         4    ;  uncertainty k = 0.201764
        17        20        24        42     9        0.000000        0.304654         1    ;  uncertainty k = 0.808439
        17        20        24        42     9      180.000000        5.213597         2    ;  uncertainty k = 0.592555
        17        20        24        42     9        0.000000        1.354870         3    ;  uncertainty k = 0.262335
        17        20        24        42     9      180.000000        0.295532         4    ;  uncertainty k = 0.033192
        18        17        16        38     9        0.000000        0.071629         1    ;  uncertainty k = 0.210521
        18        17        16        38     9      180.000000        6.731318         2    ;  uncertainty k = 0.652358
        18        17        16        38     9        0.000000        1.402558         3    ;  uncertainty k = 0.275742
        18        17        16        38     9      180.000000        1.629461         4    ;  uncertainty k = 0.263941
        18        17        20        21     9        0.000000        0.364742         1    ;  uncertainty k = 0.617618
        18        17        20        21     9      180.000000        2.957626         2    ;  uncertainty k = 0.176252
        18        17        20        21     9        0.000000        0.337574         3    ;  uncertainty k = 0.277333
        18        17        20        21     9      180.000000       -0.075996         4    ;  uncertainty k = 0.052358
        18        17        20        24     9        0.000000        0.212086         1    ;  uncertainty k = 0.583244
        18        17        20        24     9      180.000000        2.756721         2    ;  uncertainty k = 0.102989
        18        17        20        24     9        0.000000        0.399155         3    ;  uncertainty k = 0.207054
        18        17        20        24     9      180.000000       -0.145894         4    ;  uncertainty k = 0.054998
        19        14        10        31     9        0.000000       -0.300138         1    ;  uncertainty k = 0.153189
        19        14        10        31     9      180.000000        1.928373         2    ;  uncertainty k = 0.130920
        19        14        10        31     9        0.000000        0.360376         3    ;  uncertainty k = 0.118491
        19        14        10        31     9      180.000000        0.117080         4    ;  uncertainty k = 0.032968
        19        14        10        32     9        0.000000       -0.300138         1    ;  uncertainty k = 0.153189
        19        14        10        32     9      180.000000        1.928373         2    ;  uncertainty k = 0.130920
        19        14        10        32     9        0.000000        0.360376         3    ;  uncertainty k = 0.118491
        19        14        10        32     9      180.000000        0.117080         4    ;  uncertainty k = 0.032968
        19        14        15        37     9        0.000000        0.161510         1    ;  uncertainty k = 0.189284
        19        14        15        37     9      180.000000        7.143526         2    ;  uncertainty k = 0.548274
        19        14        15        37     9        0.000000        1.383620         3    ;  uncertainty k = 0.306740
        19        14        15        37     9      180.000000        1.646182         4    ;  uncertainty k = 0.144811
        19        18        17        20     9        0.000000       -0.069350         1    ;  uncertainty k = 0.292775
        19        18        17        20     9      180.000000        8.942093         2    ;  uncertainty k = 0.563576
        19        18        17        20     9        0.000000        1.225126         3    ;  uncertainty k = 0.296630
        19        18        17        20     9      180.000000        1.608135         4    ;  uncertainty k = 0.239057
        20        17        16        38     9        0.000000       -0.274120         1    ;  uncertainty k = 0.256076
        20        17        16        38     9      180.000000        6.927145         2    ;  uncertainty k = 0.360005
        20        17        16        38     9        0.000000        0.845887         3    ;  uncertainty k = 0.114326
        20        17        16        38     9      180.000000        1.148769         4    ;  uncertainty k = 0.209269
        20        17        18        39     9        0.000000       -0.274120         1    ;  uncertainty k = 0.256076
        20        17        18        39     9      180.000000        6.927145         2    ;  uncertainty k = 0.360005
        20        17        18        39     9        0.000000        0.845887         3    ;  uncertainty k = 0.114326
        20        17        18        39     9      180.000000        1.148769         4    ;  uncertainty k = 0.209269
        20        21        22        23     9        0.000000       -0.316526         1    ;  uncertainty k = 1.047711
        20        21        22        23     9      180.000000       17.284046         2    ;  uncertainty k = 0.688330
        20        21        22        23     9        0.000000       -9.057288         3    ;  uncertainty k = 0.901701
        20        21        22        23     9      180.000000        1.215837         4    ;  uncertainty k = 0.532722
        20        21        22        25     9        0.000000        1.392889         1    ;  uncertainty k = 1.290773
        20        21        22        25     9      180.000000        9.638849         2    ;  uncertainty k = 0.368011
        20        21        22        25     9        0.000000        1.944194         3    ;  uncertainty k = 0.374374
        20        21        22        25     9      180.000000       -0.106447         4    ;  uncertainty k = 0.068875
        20        24        23        22     9        0.000000       -0.058011         1    ;  uncertainty k = 0.625463
        20        24        23        22     9      180.000000       24.452642         2    ;  uncertainty k = 0.460560
        20        24        23        22     9        0.000000       -7.646340         3    ;  uncertainty k = 0.486543
        20        24        23        22     9      180.000000        2.227719         4    ;  uncertainty k = 0.719303
        21        20        24        23     9        0.000000       -0.355454         1    ;  uncertainty k = 0.508595
        21        20        24        23     9      180.000000       15.046677         2    ;  uncertainty k = 1.070272
        21        20        24        23     9        0.000000       -9.005960         3    ;  uncertainty k = 0.840803
        21        20        24        23     9      180.000000        1.826437         4    ;  uncertainty k = 0.522282
        21        20        24        42     9        0.000000       -0.031464         1    ;  uncertainty k = 0.354506
        21        20        24        42     9      180.000000        8.072055         2    ;  uncertainty k = 0.597935
        21        20        24        42     9        0.000000        1.249977         3    ;  uncertainty k = 0.335799
        21        20        24        42     9      180.000000        0.512738         4    ;  uncertainty k = 0.162738
        21        22        23        24     9        0.000000       -0.225286         1    ;  uncertainty k = 0.828367
        21        22        23        24     9      180.000000       16.689020         2    ;  uncertainty k = 0.422252
        21        22        23        24     9        0.000000       -7.488214         3    ;  uncertainty k = 1.300321
        21        22        23        24     9      180.000000        1.602125         4    ;  uncertainty k = 0.425608
        21        22        25        43     9        0.000000       -0.009532         1    ;  uncertainty k = 0.351892
        21        22        25        43     9      180.000000       -1.118669         2    ;  uncertainty k = 0.175718
        21        22        25        43     9        0.000000        0.788902         3    ;  uncertainty k = 0.017444
        21        22        25        43     9      180.000000        0.208638         4    ;  uncertainty k = 0.050244
        21        22        25        44     9        0.000000       -0.009532         1    ;  uncertainty k = 0.351892
        21        22        25        44     9      180.000000       -1.118669         2    ;  uncertainty k = 0.175718
        21        22        25        44     9        0.000000        0.788902         3    ;  uncertainty k = 0.017444
        21        22        25        44     9      180.000000        0.208638         4    ;  uncertainty k = 0.050244
        21        22        25        45     9        0.000000       -0.009532         1    ;  uncertainty k = 0.351892
        21        22        25        45     9      180.000000       -1.118669         2    ;  uncertainty k = 0.175718
        21        22        25        45     9        0.000000        0.788902         3    ;  uncertainty k = 0.017444
        21        22        25        45     9      180.000000        0.208638         4    ;  uncertainty k = 0.050244
        22        21        20        24     9        0.000000        0.138356         1    ;  uncertainty k = 0.250166
        22        21        20        24     9      180.000000       18.966876         2    ;  uncertainty k = 0.230930
        22        21        20        24     9        0.000000       -9.822059         3    ;  uncertainty k = 0.542345
        22        21        20        24     9      180.000000        1.616629         4    ;  uncertainty k = 0.658377
        22        23        24        42     9        0.000000        0.455450         1    ;  uncertainty k = 0.742363
        22        23        24        42     9      180.000000       22.168886         2    ;  uncertainty k = 0.393003
        22        23        24        42     9        0.000000        1.308521         3    ;  uncertainty k = 0.565188
        22        23        24        42     9      180.000000        1.249379         4    ;  uncertainty k = 0.583038
        23        22        21        41     9        0.000000        0.954942         1    ;  uncertainty k = 0.636273
        23        22        21        41     9      180.000000       11.894603         2    ;  uncertainty k = 0.460933
        23        22        21        41     9        0.000000        1.730548         3    ;  uncertainty k = 0.518861
        23        22        21        41     9      180.000000        0.048447         4    ;  uncertainty k = 0.167333
        23        22        25        43     9        0.000000        1.398760         1    ;  uncertainty k = 0.579543
        23        22        25        43     9      180.000000       -1.134020         2    ;  uncertainty k = 0.131940
        23        22        25        43     9        0.000000        0.742560         3    ;  uncertainty k = 0.044341
        23        22        25        43     9      180.000000        0.251257         4    ;  uncertainty k = 0.037757
        23        22        25        44     9        0.000000        1.398760         1    ;  uncertainty k = 0.579543
        23        22        25        44     9      180.000000       -1.134020         2    ;  uncertainty k = 0.131940
        23        22        25        44     9        0.000000        0.742560         3    ;  uncertainty k = 0.044341
        23        22        25        44     9      180.000000        0.251257         4    ;  uncertainty k = 0.037757
        23        22        25        45     9        0.000000        1.398760         1    ;  uncertainty k = 0.579543
        23        22        25        45     9      180.000000       -1.134020         2    ;  uncertainty k = 0.131940
        23        22        25        45     9        0.000000        0.742560         3    ;  uncertainty k = 0.044341
        23        22        25        45     9      180.000000        0.251257         4    ;  uncertainty k = 0.037757
        24        20        21        41     9        0.000000        0.015436         1    ;  uncertainty k = 0.258044
        24        20        21        41     9      180.000000       10.338561         2    ;  uncertainty k = 0.277931
        24        20        21        41     9        0.000000        1.639009         3    ;  uncertainty k = 0.357902
        24        20        21        41     9      180.000000        0.594000         4    ;  uncertainty k = 0.198129
        24        23        22        25     9        0.000000        0.933314         1    ;  uncertainty k = 1.275516
        24        23        22        25     9      180.000000       13.272691         2    ;  uncertainty k = 0.326664
        24        23        22        25     9        0.000000        1.823278         3    ;  uncertainty k = 0.443014
        24        23        22        25     9      180.000000       -0.164133         4    ;  uncertainty k = 0.298894
        25        22        21        41     9        0.000000       -0.476541         1    ;  uncertainty k = 0.254767
        25        22        21        41     9      180.000000        3.142291         2    ;  uncertainty k = 0.652805
        25        22        21        41     9        0.000000        1.097292         3    ;  uncertainty k = 0.480724
        25        22        21        41     9      180.000000        0.022420         4    ;  uncertainty k = 0.193415
        26        11        12        33     9        0.000000        0.170565         1    ;  uncertainty k = 0.421751
        26        11        12        33     9      180.000000        3.702767         2    ;  uncertainty k = 0.310221
        26        11        12        33     9        0.000000        0.591017         3    ;  uncertainty k = 0.057188
        26        11        12        33     9      180.000000        0.149033         4    ;  uncertainty k = 0.048358
        26        11        12        34     9        0.000000        0.170565         1    ;  uncertainty k = 0.421751
        26        11        12        34     9      180.000000        3.702767         2    ;  uncertainty k = 0.310221
        26        11        12        34     9        0.000000        0.591017         3    ;  uncertainty k = 0.057188
        26        11        12        34     9      180.000000        0.149033         4    ;  uncertainty k = 0.048358
        26        11        12        35     9        0.000000        0.170564         1    ;  uncertainty k = 0.421750
        26        11        12        35     9      180.000000        3.702766         2    ;  uncertainty k = 0.310222
        26        11        12        35     9        0.000000        0.591017         3    ;  uncertainty k = 0.057189
        26        11        12        35     9      180.000000        0.149033         4    ;  uncertainty k = 0.048358
        26        11        13        36     9        0.000000        3.367889         1    ;  uncertainty k = 0.697306
        26        11        13        36     9      180.000000       15.997558         2    ;  uncertainty k = 0.074752
        26        11        13        36     9        0.000000        1.302741         3    ;  uncertainty k = 0.362242
        26        11        13        36     9      180.000000       -0.304585         4    ;  uncertainty k = 0.225259
        28         3         4        29     9        0.000000       -0.113899         1    ;  uncertainty k = 0.673813
        28         3         4        29     9      180.000000        8.158455         2    ;  uncertainty k = 0.388729
        28         3         4        29     9        0.000000       -0.239895         3    ;  uncertainty k = 0.208035
        28         3         4        29     9      180.000000        0.287880         4    ;  uncertainty k = 0.187292
        37        15        16        38     9        0.000000       -0.105047         1    ;  uncertainty k = 0.079025
        37        15        16        38     9      180.000000        7.802566         2    ;  uncertainty k = 0.370707
        37        15        16        38     9        0.000000       -0.520984         3    ;  uncertainty k = 0.249530
        37        15        16        38     9      180.000000        0.209880         4    ;  uncertainty k = 0.188643
        39        18        19        40     9        0.000000       -0.105047         1    ;  uncertainty k = 0.079025
        39        18        19        40     9      180.000000        7.802566         2    ;  uncertainty k = 0.370707
        39        18        19        40     9        0.000000       -0.520984         3    ;  uncertainty k = 0.249530
        39        18        19        40     9      180.000000        0.209880         4    ;  uncertainty k = 0.188643

[ dihedrals ] ; impropers
;       ai        aj        ak        al funct           phase               k        pn
         1         2         4        13     4      180.000000       15.213067         2    ;  uncertainty k = 0.162610
         1         4        13         2     4      180.000000       15.213067         2    ;  uncertainty k = 0.162610
         1        13         2         4     4      180.000000       15.213067         2    ;  uncertainty k = 0.162610
         2         1         6        27     4      180.000000        3.737005         2    ;  uncertainty k = 0.162093
         2         6        27         1     4      180.000000        3.737005         2    ;  uncertainty k = 0.162093
         2        27         1         6     4      180.000000        3.737005         2    ;  uncertainty k = 0.162093
         3         4         5        28     4      180.000000        2.458402         2    ;  uncertainty k = 0.367114
         3         5        28         4     4      180.000000        2.458402         2    ;  uncertainty k = 0.367114
         3        28         4         5     4      180.000000        2.458402         2    ;  uncertainty k = 0.367114
         4         1         3        29     4      180.000000        3.092463         2    ;  uncertainty k = 0.294342
         4         3        29         1     4      180.000000        3.092463         2    ;  uncertainty k = 0.294342
         4        29         1         3     4      180.000000        3.092463         2    ;  uncertainty k = 0.294342
         5         3         6         9     4      180.000000        1.268303         2    ;  uncertainty k = 1.349584
         5         6         9         3     4      180.000000        1.268303         2    ;  uncertainty k = 1.349584
         5         9         3         6     4      180.000000        1.268303         2    ;  uncertainty k = 1.349584
         7         6         8        10     4      180.000000        6.448366         2    ;  uncertainty k = 0.271614
         7         8        10         6     4      180.000000        6.448366         2    ;  uncertainty k = 0.271614
         7        10         6         8     4      180.000000        6.448366         2    ;  uncertainty k = 0.271614
        11        12        13        26     4      180.000000       55.365443         2    ;  uncertainty k = 0.017048
        11        13        26        12     4      180.000000       55.365443         2    ;  uncertainty k = 0.017048
        11        26        12        13     4      180.000000       55.365443         2    ;  uncertainty k = 0.017048
        13         1        11        36     4      180.000000        0.063215         2    ;  uncertainty k = 0.141352
        13        11        36         1     4      180.000000        0.063215         2    ;  uncertainty k = 0.141352
        13        36         1        11     4      180.000000        0.063215         2    ;  uncertainty k = 0.141352
        14        10        15        19     4      180.000000       13.443226         2    ;  uncertainty k = 0.081656
        14        15        19        10     4      180.000000       13.443226         2    ;  uncertainty k = 0.081656
        14        19        10        15     4      180.000000       13.443226         2    ;  uncertainty k = 0.081656
        15        14        16        37     4      180.000000        4.038197         2    ;  uncertainty k = 0.126249
        15        16        37        14     4      180.000000        4.038197         2    ;  uncertainty k = 0.126249
        15        37        14        16     4      180.000000        4.038197         2    ;  uncertainty k = 0.126249
        16        15        17        38     4      180.000000        3.634538         2    ;  uncertainty k = 0.167362
        16        17        38        15     4      180.000000        3.634538         2    ;  uncertainty k = 0.167362
        16        38        15        17     4      180.000000        3.634538         2    ;  uncertainty k = 0.167362
        17        16        18        20     4      180.000000       14.868719         2    ;  uncertainty k = 0.081810
        17        18        20        16     4      180.000000       14.868719         2    ;  uncertainty k = 0.081810
        17        20        16        18     4      180.000000       14.868719         2    ;  uncertainty k = 0.081810
        18        17        19        39     4      180.000000        3.634538         2    ;  uncertainty k = 0.167362
        18        19        39        17     4      180.000000        3.634538         2    ;  uncertainty k = 0.167362
        18        39        17        19     4      180.000000        3.634538         2    ;  uncertainty k = 0.167362
        19        14        18        40     4      180.000000        4.038198         2    ;  uncertainty k = 0.126249
        19        18        40        14     4      180.000000        4.038198         2    ;  uncertainty k = 0.126249
        19        40        14        18     4      180.000000        4.038198         2    ;  uncertainty k = 0.126249
        20        17        21        24     4      180.000000        2.273631         2    ;  uncertainty k = 0.479724
        20        21        24        17     4      180.000000        2.273631         2    ;  uncertainty k = 0.479724
        20        24        17        21     4      180.000000        2.273631         2    ;  uncertainty k = 0.479724
        21        20        22        41     4      180.000000        0.843031         2    ;  uncertainty k = 0.771057
        21        22        41        20     4      180.000000        0.843031         2    ;  uncertainty k = 0.771057
        21        41        20        22     4      180.000000        0.843031         2    ;  uncertainty k = 0.771057
        24        20        23        42     4      180.000000        0.319029         2    ;  uncertainty k = 0.442787
        24        23        42        20     4      180.000000        0.319029         2    ;  uncertainty k = 0.442787
        24        42        20        23     4      180.000000        0.319029         2    ;  uncertainty k = 0.442787

[ pairs ]
;       ai        aj funct
         1         5     1
         1         7     1
         1        12     1
         1        26     1
         1        28     1
         2         3     1
         2         8     1
         2         9     1
         2        10     1
         2        11     1
         2        29     1
         2        36     1
         3         7     1
         3         8     1
         3        13     1
         3        30     1
         4         6     1
         4         9     1
         4        11     1
         4        27     1
         4        36     1
         5        10     1
         5        27     1
         5        29     1
         6        13     1
         6        14     1
         6        28     1
         6        30     1
         6        31     1
         6        32     1
         7        15     1
         7        19     1
         7        27     1
         7        30     1
         8        14     1
         8        31     1
         8        32     1
         9        10     1
         9        28     1
        10        16     1
        10        18     1
        10        37     1
        10        40     1
        12        36     1
        13        27     1
        13        29     1
        13        33     1
        13        34     1
        13        35     1
        14        17     1
        14        38     1
        14        39     1
        15        18     1
        15        20     1
        15        31     1
        15        32     1
        15        40     1
        16        19     1
        16        21     1
        16        24     1
        16        39     1
        17        22     1
        17        23     1
        17        37     1
        17        40     1
        17        41     1
        17        42     1
        18        21     1
        18        24     1
        18        38     1
        19        20     1
        19        31     1
        19        32     1
        19        37     1
        20        25     1
        20        38     1
        20        39     1
        21        42     1
        21        43     1
        21        44     1
        21        45     1
        22        42     1
        23        41     1
        23        43     1
        23        44     1
        23        45     1
        24        25     1
        24        41     1
        25        41     1
        26        33     1
        26        34     1
        26        35     1
        26        36     1
        28        29     1
        37        38     1
        39        40     1
