; ITP file created by ByteFF-joint-25, 2026-02-17 09:06:43.138356

[ atomtypes ]
;name           bonded.type        at.num        mass        charge   ptype           sigma         epsilon
 c0bf                                   6      0.0000       0.00000       A     3.31505e-01     4.13030e-01    ;  uncertainty sigma = 0.000016, epsilon = 0.001533
 c1bf                                   6      0.0000       0.00000       A     3.31502e-01     4.13574e-01    ;  uncertainty sigma = 0.000010, epsilon = 0.000733
 c2bf                                   6      0.0000       0.00000       A     3.31522e-01     4.13355e-01    ;  uncertainty sigma = 0.000006, epsilon = 0.000537
 c3bf                                   6      0.0000       0.00000       A     3.31529e-01     4.13445e-01    ;  uncertainty sigma = 0.000007, epsilon = 0.000606
 c4bf                                   6      0.0000       0.00000       A     3.31517e-01     4.13228e-01    ;  uncertainty sigma = 0.000005, epsilon = 0.000954
 c5bf                                   6      0.0000       0.00000       A     3.31537e-01     4.13242e-01    ;  uncertainty sigma = 0.000008, epsilon = 0.000855
 c6bf                                   6      0.0000       0.00000       A     3.31511e-01     4.13758e-01    ;  uncertainty sigma = 0.000012, epsilon = 0.000487
 n7bf                                   7      0.0000       0.00000       A     3.38378e-01     3.93289e-01    ;  uncertainty sigma = 0.000011, epsilon = 0.000859
 n8bf                                   7      0.0000       0.00000       A     3.20594e-01     8.54239e-01    ;  uncertainty sigma = 0.000008, epsilon = 0.000871
 c9bf                                   6      0.0000       0.00000       A     3.39770e-01     4.50677e-01    ;  uncertainty sigma = 0.000014, epsilon = 0.000932
 s10bf                                 16      0.0000       0.00000       A     4.05844e-01     2.56476e-01    ;  uncertainty sigma = 0.000016, epsilon = 0.001841
 c11bf                                  6      0.0000       0.00000       A     3.39770e-01     4.50904e-01    ;  uncertainty sigma = 0.000004, epsilon = 0.000622
 n12bf                                  7      0.0000       0.00000       A     3.27828e-01     6.46863e-01    ;  uncertainty sigma = 0.000063, epsilon = 0.004559
 c13bf                                  6      0.0000       0.00000       A     3.31526e-01     4.13322e-01    ;  uncertainty sigma = 0.000007, epsilon = 0.000745
 c14bf                                  6      0.0000       0.00000       A     3.31523e-01     4.13371e-01    ;  uncertainty sigma = 0.000005, epsilon = 0.000423
 c15bf                                  6      0.0000       0.00000       A     3.31520e-01     4.13353e-01    ;  uncertainty sigma = 0.000004, epsilon = 0.000667
 c16bf                                  6      0.0000       0.00000       A     3.31533e-01     4.13284e-01    ;  uncertainty sigma = 0.000006, epsilon = 0.001098
 c17bf                                  6      0.0000       0.00000       A     3.31520e-01     4.13353e-01    ;  uncertainty sigma = 0.000004, epsilon = 0.000667
 c18bf                                  6      0.0000       0.00000       A     3.31523e-01     4.13371e-01    ;  uncertainty sigma = 0.000005, epsilon = 0.000423
 c19bf                                  6      0.0000       0.00000       A     3.31535e-01     4.13223e-01    ;  uncertainty sigma = 0.000005, epsilon = 0.000899
 c20bf                                  6      0.0000       0.00000       A     3.31521e-01     4.13333e-01    ;  uncertainty sigma = 0.000008, epsilon = 0.000598
 n21bf                                  7      0.0000       0.00000       A     3.20584e-01     8.54185e-01    ;  uncertainty sigma = 0.000011, epsilon = 0.001160
 n22bf                                  7      0.0000       0.00000       A     3.38434e-01     3.93690e-01    ;  uncertainty sigma = 0.000004, epsilon = 0.000785
 c23bf                                  6      0.0000       0.00000       A     3.31536e-01     4.13003e-01    ;  uncertainty sigma = 0.000006, epsilon = 0.000684
 c24bf                                  6      0.0000       0.00000       A     3.39777e-01     4.50912e-01    ;  uncertainty sigma = 0.000003, epsilon = 0.000595
 o25bf                                  8      0.0000       0.00000       A     3.04826e-01     6.12580e-01    ;  uncertainty sigma = 0.000012, epsilon = 0.000757
 o26bf                                  8      0.0000       0.00000       A     3.04826e-01     6.12580e-01    ;  uncertainty sigma = 0.000012, epsilon = 0.000757
 h27bf                                  1      0.0000       0.00000       A     2.62603e-01     6.71254e-02    ;  uncertainty sigma = 0.000025, epsilon = 0.000374
 h28bf                                  1      0.0000       0.00000       A     2.62569e-01     6.69664e-02    ;  uncertainty sigma = 0.000010, epsilon = 0.000490
 h29bf                                  1      0.0000       0.00000       A     2.62577e-01     6.70946e-02    ;  uncertainty sigma = 0.000016, epsilon = 0.000459
 h30bf                                  1      0.0000       0.00000       A     1.10648e-01     4.14022e-02    ;  uncertainty sigma = 0.000065, epsilon = 0.000771
 h31bf                                  1      0.0000       0.00000       A     2.60075e-01     8.67590e-02    ;  uncertainty sigma = 0.000029, epsilon = 0.000876
 h32bf                                  1      0.0000       0.00000       A     2.60075e-01     8.67590e-02    ;  uncertainty sigma = 0.000029, epsilon = 0.000876
 h33bf                                  1      0.0000       0.00000       A     2.42186e-01     8.65718e-02    ;  uncertainty sigma = 0.000019, epsilon = 0.000619
 h34bf                                  1      0.0000       0.00000       A     2.42186e-01     8.65718e-02    ;  uncertainty sigma = 0.000019, epsilon = 0.000619
 h35bf                                  1      0.0000       0.00000       A     2.42186e-01     8.65717e-02    ;  uncertainty sigma = 0.000019, epsilon = 0.000619
 h36bf                                  1      0.0000       0.00000       A     1.10727e-01     4.15609e-02    ;  uncertainty sigma = 0.000107, epsilon = 0.000866
 h37bf                                  1      0.0000       0.00000       A     2.62562e-01     6.71171e-02    ;  uncertainty sigma = 0.000007, epsilon = 0.000513
 h38bf                                  1      0.0000       0.00000       A     2.62566e-01     6.70543e-02    ;  uncertainty sigma = 0.000011, epsilon = 0.000444
 h39bf                                  1      0.0000       0.00000       A     2.62566e-01     6.70543e-02    ;  uncertainty sigma = 0.000011, epsilon = 0.000444
 h40bf                                  1      0.0000       0.00000       A     2.62562e-01     6.71171e-02    ;  uncertainty sigma = 0.000007, epsilon = 0.000513
 h41bf                                  1      0.0000       0.00000       A     2.53668e-01     6.70573e-02    ;  uncertainty sigma = 0.000029, epsilon = 0.000503
 h42bf                                  1      0.0000       0.00000       A     2.53681e-01     6.72123e-02    ;  uncertainty sigma = 0.000016, epsilon = 0.000497
 h43bf                                  1      0.0000       0.00000       A     2.42209e-01     8.68411e-02    ;  uncertainty sigma = 0.000019, epsilon = 0.000599
 h44bf                                  1      0.0000       0.00000       A     2.42209e-01     8.68409e-02    ;  uncertainty sigma = 0.000019, epsilon = 0.000599
 h45bf                                  1      0.0000       0.00000       A     2.42209e-01     8.68409e-02    ;  uncertainty sigma = 0.000019, epsilon = 0.000599

[ moleculetype ]
;name             nrexcl
 MOL                   3

[ atoms ]
;       nr            type      resi   res      atom      cgnr      charge          mass ; qtot
         1            c0bf         1   UNL        c0         1     0.04403       12.0110 ; qtot    0.044
         2            c1bf         1   UNL        c1         2    -0.04842       12.0110 ; qtot   -0.004
         3            c2bf         1   UNL        c2         3    -0.13489       12.0110 ; qtot   -0.139
         4            c3bf         1   UNL        c3         4    -0.08954       12.0110 ; qtot   -0.229
         5            c4bf         1   UNL        c4         5    -0.02751       12.0110 ; qtot   -0.256
         6            c5bf         1   UNL        c5         6    -0.20844       12.0110 ; qtot   -0.465
         7            c6bf         1   UNL        c6         7     0.36375       12.0110 ; qtot   -0.101
         8            n7bf         1   UNL        n7         8    -0.50842       14.0070 ; qtot   -0.609
         9            n8bf         1   UNL        n8         9    -0.03409       14.0070 ; qtot   -0.644
        10            c9bf         1   UNL        c9        10    -0.04528       12.0110 ; qtot   -0.689
        11           s10bf         1   UNL       s10        11     1.13676       32.0670 ; qtot    0.448
        12           c11bf         1   UNL       c11        12    -0.20594       12.0110 ; qtot    0.242
        13           n12bf         1   UNL       n12        13    -0.65185       14.0070 ; qtot   -0.410
        14           c13bf         1   UNL       c13        14    -0.08175       12.0110 ; qtot   -0.492
        15           c14bf         1   UNL       c14        15    -0.11939       12.0110 ; qtot   -0.611
        16           c15bf         1   UNL       c15        16    -0.12732       12.0110 ; qtot   -0.738
        17           c16bf         1   UNL       c16        17     0.00918       12.0110 ; qtot   -0.729
        18           c17bf         1   UNL       c17        18    -0.12732       12.0110 ; qtot   -0.856
        19           c18bf         1   UNL       c18        19    -0.11939       12.0110 ; qtot   -0.976
        20           c19bf         1   UNL       c19        20    -0.22601       12.0110 ; qtot   -1.202
        21           c20bf         1   UNL       c20        21    -0.11441       12.0110 ; qtot   -1.316
        22           n21bf         1   UNL       n21        22     0.08671       14.0070 ; qtot   -1.230
        23           n22bf         1   UNL       n22        23    -0.52298       14.0070 ; qtot   -1.753
        24           c23bf         1   UNL       c23        24     0.31766       12.0110 ; qtot   -1.435
        25           c24bf         1   UNL       c24        25     0.04276       12.0110 ; qtot   -1.392
        26           o25bf         1   UNL       o25        26    -0.58638       15.9990 ; qtot   -1.978
        27           o26bf         1   UNL       o26        27    -0.58638       15.9990 ; qtot   -2.565
        28           h27bf         1   UNL       h27        28     0.15176        1.0080 ; qtot   -2.413
        29           h28bf         1   UNL       h28        29     0.14467        1.0080 ; qtot   -2.268
        30           h29bf         1   UNL       h29        30     0.14755        1.0080 ; qtot   -2.121
        31           h30bf         1   UNL       h30        31     0.32635        1.0080 ; qtot   -1.795
        32           h31bf         1   UNL       h31        32     0.06335        1.0080 ; qtot   -1.731
        33           h32bf         1   UNL       h32        33     0.06335        1.0080 ; qtot   -1.668
        34           h33bf         1   UNL       h33        34     0.10507        1.0080 ; qtot   -1.563
        35           h34bf         1   UNL       h34        35     0.10507        1.0080 ; qtot   -1.458
        36           h35bf         1   UNL       h35        36     0.10507        1.0080 ; qtot   -1.353
        37           h36bf         1   UNL       h36        37     0.42617        1.0080 ; qtot   -0.926
        38           h37bf         1   UNL       h37        38     0.13610        1.0080 ; qtot   -0.790
        39           h38bf         1   UNL       h38        39     0.13384        1.0080 ; qtot   -0.657
        40           h39bf         1   UNL       h39        40     0.13384        1.0080 ; qtot   -0.523
        41           h40bf         1   UNL       h40        41     0.13610        1.0080 ; qtot   -0.387
        42           h41bf         1   UNL       h41        42     0.17330        1.0080 ; qtot   -0.213
        43           h42bf         1   UNL       h42        43     0.03867        1.0080 ; qtot   -0.175
        44           h43bf         1   UNL       h43        44     0.05820        1.0080 ; qtot   -0.116
        45           h44bf         1   UNL       h44        45     0.05820        1.0080 ; qtot   -0.058
        46           h45bf         1   UNL       h45        46     0.05820        1.0080 ; qtot   -0.000

[ bonds ]
;       ai        aj funct               r               k
         1         2     1        0.139072   351837.064746    ;  uncertainty r = 0.000097, k = 4.198496
         1         4     1        0.142154   337594.201660    ;  uncertainty r = 0.000146, k = 10.471163
         1        13     1        0.142982   301926.776367    ;  uncertainty r = 0.000120, k = 14.033284
         2         6     1        0.139999   358397.726904    ;  uncertainty r = 0.000102, k = 2.598260
         2        28     1        0.108818   335734.640430    ;  uncertainty r = 0.000044, k = 2.439518
         3         4     1        0.138482   371700.952051    ;  uncertainty r = 0.000058, k = 3.675196
         3         5     1        0.140150   361973.254199    ;  uncertainty r = 0.000041, k = 4.539100
         3        29     1        0.108828   335948.079590    ;  uncertainty r = 0.000014, k = 1.652530
         4        30     1        0.108801   335974.306201    ;  uncertainty r = 0.000029, k = 1.840910
         5         6     1        0.141656   398182.730176    ;  uncertainty r = 0.000082, k = 8.153756
         5         9     1        0.137519   300213.798145    ;  uncertainty r = 0.000056, k = 10.195775
         6         7     1        0.144002   227459.033203    ;  uncertainty r = 0.000134, k = 12.998875
         7         8     1        0.132873   463856.974023    ;  uncertainty r = 0.000097, k = 8.320592
         7        10     1        0.150186   237880.676465    ;  uncertainty r = 0.000064, k = 4.541343
         8         9     1        0.136819   297875.211816    ;  uncertainty r = 0.000034, k = 11.449749
         9        31     1        0.101020   416476.391699    ;  uncertainty r = 0.000031, k = 2.687214
        10        14     1        0.151795   233478.870459    ;  uncertainty r = 0.000063, k = 3.628626
        10        32     1        0.109648   308979.130029    ;  uncertainty r = 0.000023, k = 1.425937
        10        33     1        0.109648   308979.130029    ;  uncertainty r = 0.000023, k = 1.425937
        11        12     1        0.180575   175923.026904    ;  uncertainty r = 0.000023, k = 5.565660
        11        13     1        0.171254   198172.808032    ;  uncertainty r = 0.000091, k = 40.124061
        11        26     1        0.146838   545099.303711    ;  uncertainty r = 0.000048, k = 3.726640
        11        27     1        0.146838   545099.303711    ;  uncertainty r = 0.000048, k = 3.726640
        12        34     1        0.109251   321337.226758    ;  uncertainty r = 0.000023, k = 1.610603
        12        35     1        0.109251   321337.226758    ;  uncertainty r = 0.000023, k = 1.610603
        12        36     1        0.109251   321337.226758    ;  uncertainty r = 0.000023, k = 1.610602
        13        37     1        0.102280   463905.800977    ;  uncertainty r = 0.000061, k = 4.183086
        14        15     1        0.139794   355474.059863    ;  uncertainty r = 0.000028, k = 2.352216
        14        19     1        0.139794   355474.059863    ;  uncertainty r = 0.000028, k = 2.352216
        15        16     1        0.139338   362972.291455    ;  uncertainty r = 0.000020, k = 2.159629
        15        38     1        0.108902   333492.303467    ;  uncertainty r = 0.000022, k = 1.112442
        16        17     1        0.140253   353391.993799    ;  uncertainty r = 0.000028, k = 3.610472
        16        39     1        0.108868   334958.771973    ;  uncertainty r = 0.000030, k = 0.809236
        17        18     1        0.140253   353391.993799    ;  uncertainty r = 0.000028, k = 3.610472
        17        20     1        0.146652   274345.727832    ;  uncertainty r = 0.000041, k = 6.994044
        18        19     1        0.139338   362972.291455    ;  uncertainty r = 0.000020, k = 2.159629
        18        40     1        0.108868   334958.771973    ;  uncertainty r = 0.000030, k = 0.809236
        19        41     1        0.108902   333492.303467    ;  uncertainty r = 0.000022, k = 1.112448
        20        21     1        0.139092   414208.236719    ;  uncertainty r = 0.000013, k = 2.977957
        20        24     1        0.142427   245231.916455    ;  uncertainty r = 0.000028, k = 7.933738
        21        22     1        0.136086   293168.518262    ;  uncertainty r = 0.000038, k = 2.183958
        21        42     1        0.108275   339142.108008    ;  uncertainty r = 0.000029, k = 1.978629
        22        23     1        0.135372   281833.821191    ;  uncertainty r = 0.000063, k = 7.581417
        22        25     1        0.145228   253114.098486    ;  uncertainty r = 0.000011, k = 4.991516
        23        24     1        0.133356   453692.795898    ;  uncertainty r = 0.000038, k = 2.837553
        24        43     1        0.108433   337731.157178    ;  uncertainty r = 0.000017, k = 2.346807
        25        44     1        0.109330   311409.266895    ;  uncertainty r = 0.000011, k = 1.149450
        25        45     1        0.109330   311409.266895    ;  uncertainty r = 0.000011, k = 1.149450
        25        46     1        0.109330   311409.266895    ;  uncertainty r = 0.000011, k = 1.149450

[ angles ]
;       ai        aj        ak funct           theta             cth
         1         2         6     1      117.422241      550.922212    ;  uncertainty theta = 0.001720, k = 0.141777
         1         2        28     1      119.952957      272.246526    ;  uncertainty theta = 0.004291, k = 0.058935
         1         4         3     1      121.883957      496.887188    ;  uncertainty theta = 0.003017, k = 0.096725
         1         4        30     1      118.316086      276.469215    ;  uncertainty theta = 0.002895, k = 0.094486
         1        13        11     1      113.641113      399.909952    ;  uncertainty theta = 0.003745, k = 0.169700
         1        13        37     1      112.721481      363.457611    ;  uncertainty theta = 0.002930, k = 0.092200
         2         1         4     1      122.400925      394.178435    ;  uncertainty theta = 0.002850, k = 0.106702
         2         1        13     1      120.985153      514.424128    ;  uncertainty theta = 0.001463, k = 0.068421
         2         6         5     1      117.983620      401.767393    ;  uncertainty theta = 0.003756, k = 0.154049
         2         6         7     1      130.958618      341.139295    ;  uncertainty theta = 0.003750, k = 0.183379
         3         4        30     1      119.718529      296.604077    ;  uncertainty theta = 0.003941, k = 0.047899
         3         5         6     1      120.022606      376.177135    ;  uncertainty theta = 0.005340, k = 0.109602
         3         5         9     1      130.085785      397.371818    ;  uncertainty theta = 0.002571, k = 0.082103
         4         1        13     1      120.363792      525.442273    ;  uncertainty theta = 0.002302, k = 0.175667
         4         3         5     1      116.880348      527.651074    ;  uncertainty theta = 0.003230, k = 0.049879
         4         3        29     1      120.947998      279.053826    ;  uncertainty theta = 0.001840, k = 0.061486
         5         3        29     1      122.806839      288.609653    ;  uncertainty theta = 0.001279, k = 0.088591
         5         6         7     1      103.926292      703.330106    ;  uncertainty theta = 0.005666, k = 0.104188
         5         9         8     1      108.834328      994.126789    ;  uncertainty theta = 0.004196, k = 0.105360
         5         9        31     1      115.868881      284.700560    ;  uncertainty theta = 0.007631, k = 0.067415
         6         2        28     1      121.888046      293.761509    ;  uncertainty theta = 0.004776, k = 0.061142
         6         5         9     1      105.200500      705.678499    ;  uncertainty theta = 0.003252, k = 0.066840
         6         7         8     1      112.687965      866.755029    ;  uncertainty theta = 0.001871, k = 0.102122
         6         7        10     1      127.196472      341.473927    ;  uncertainty theta = 0.004218, k = 0.129029
         7         8         9     1      109.410828      908.108994    ;  uncertainty theta = 0.003527, k = 0.142250
         7        10        14     1      111.438431      538.596534    ;  uncertainty theta = 0.002656, k = 0.073038
         7        10        32     1      107.231506      404.311751    ;  uncertainty theta = 0.002672, k = 0.096677
         7        10        33     1      107.231506      404.311751    ;  uncertainty theta = 0.002672, k = 0.096677
         8         7        10     1      121.548462      408.874786    ;  uncertainty theta = 0.004708, k = 0.121638
         8         9        31     1      108.270935      348.057521    ;  uncertainty theta = 0.007607, k = 0.026261
        10        14        15     1      121.045166      422.581127    ;  uncertainty theta = 0.002275, k = 0.038270
        10        14        19     1      121.045166      422.581127    ;  uncertainty theta = 0.002275, k = 0.038270
        11        12        34     1      106.718918      364.832051    ;  uncertainty theta = 0.002763, k = 0.051668
        11        12        35     1      106.718918      364.832051    ;  uncertainty theta = 0.002763, k = 0.051668
        11        12        36     1      106.718918      364.832019    ;  uncertainty theta = 0.002763, k = 0.051668
        11        13        37     1      112.194069      431.188825    ;  uncertainty theta = 0.004609, k = 0.120698
        12        11        13     1      103.694962      711.026289    ;  uncertainty theta = 0.001908, k = 0.073261
        12        11        26     1      113.818008      687.564708    ;  uncertainty theta = 0.001001, k = 0.119648
        12        11        27     1      113.818008      687.564708    ;  uncertainty theta = 0.001001, k = 0.119648
        13        11        26     1      113.496803      711.229117    ;  uncertainty theta = 0.002257, k = 0.124603
        13        11        27     1      113.496803      711.229117    ;  uncertainty theta = 0.002257, k = 0.124603
        14        10        32     1      107.837601      399.901237    ;  uncertainty theta = 0.002249, k = 0.057837
        14        10        33     1      107.837601      399.901237    ;  uncertainty theta = 0.002249, k = 0.057837
        14        15        16     1      121.318886      514.235568    ;  uncertainty theta = 0.001778, k = 0.059752
        14        15        38     1      119.166000      270.523857    ;  uncertainty theta = 0.002269, k = 0.008290
        14        19        18     1      121.318886      514.235568    ;  uncertainty theta = 0.001778, k = 0.059752
        14        19        41     1      119.166000      270.523857    ;  uncertainty theta = 0.002269, k = 0.008290
        15        14        19     1      118.819534      462.266433    ;  uncertainty theta = 0.001838, k = 0.080865
        15        16        17     1      121.217484      515.997661    ;  uncertainty theta = 0.001896, k = 0.077715
        15        16        39     1      119.997902      290.785989    ;  uncertainty theta = 0.002435, k = 0.029685
        16        15        38     1      119.867722      290.821262    ;  uncertainty theta = 0.002696, k = 0.045566
        16        17        18     1      118.904152      401.449329    ;  uncertainty theta = 0.000792, k = 0.077724
        16        17        20     1      121.709091      440.254499    ;  uncertainty theta = 0.000934, k = 0.108366
        17        16        39     1      119.095055      282.559113    ;  uncertainty theta = 0.001574, k = 0.076417
        17        18        19     1      121.217484      515.997629    ;  uncertainty theta = 0.001896, k = 0.077715
        17        18        40     1      119.095055      282.559113    ;  uncertainty theta = 0.001574, k = 0.076417
        17        20        21     1      127.697556      343.157780    ;  uncertainty theta = 0.004353, k = 0.177775
        17        20        24     1      126.731285      348.545089    ;  uncertainty theta = 0.003995, k = 0.207077
        18        17        20     1      121.709091      440.254499    ;  uncertainty theta = 0.000934, k = 0.108366
        18        19        41     1      119.867722      290.821262    ;  uncertainty theta = 0.002696, k = 0.045566
        19        18        40     1      119.997902      290.785989    ;  uncertainty theta = 0.002435, k = 0.029685
        20        21        22     1      107.786392      728.617782    ;  uncertainty theta = 0.002722, k = 0.171005
        20        21        42     1      129.337921      225.112173    ;  uncertainty theta = 0.003840, k = 0.127302
        20        24        23     1      112.792480      868.770035    ;  uncertainty theta = 0.004151, k = 0.098178
        20        24        43     1      126.058434      240.089592    ;  uncertainty theta = 0.003930, k = 0.061937
        21        20        24     1      104.376770      682.871498    ;  uncertainty theta = 0.005377, k = 0.161868
        21        22        23     1      109.875771      985.972854    ;  uncertainty theta = 0.001972, k = 0.104814
        21        22        25     1      122.678429      402.059506    ;  uncertainty theta = 0.001716, k = 0.122019
        22        21        42     1      118.090332      269.140033    ;  uncertainty theta = 0.002835, k = 0.151929
        22        23        24     1      106.284325      901.234404    ;  uncertainty theta = 0.001454, k = 0.058730
        22        25        44     1      108.689758      466.172366    ;  uncertainty theta = 0.001193, k = 0.023318
        22        25        45     1      108.689758      466.172366    ;  uncertainty theta = 0.001193, k = 0.023318
        22        25        46     1      108.689758      466.172366    ;  uncertainty theta = 0.001193, k = 0.023318
        23        22        25     1      116.723465      468.949367    ;  uncertainty theta = 0.002619, k = 0.085339
        23        24        43     1      118.687271      285.500605    ;  uncertainty theta = 0.004102, k = 0.050180
        26        11        27     1      124.966187      826.091141    ;  uncertainty theta = 0.002854, k = 0.098540
        32        10        33     1      104.257248      312.827994    ;  uncertainty theta = 0.003792, k = 0.040478
        34        12        35     1      108.830017      296.629550    ;  uncertainty theta = 0.003606, k = 0.022271
        34        12        36     1      108.830002      296.629614    ;  uncertainty theta = 0.003606, k = 0.022270
        35        12        36     1      108.830002      296.629614    ;  uncertainty theta = 0.003606, k = 0.022270
        44        25        45     1      107.724472      320.089279    ;  uncertainty theta = 0.001790, k = 0.014894
        44        25        46     1      107.724472      320.089279    ;  uncertainty theta = 0.001790, k = 0.014894
        45        25        46     1      107.724472      320.089215    ;  uncertainty theta = 0.001790, k = 0.014894

[ dihedrals ] ; propers for gromacs 4.5 or higher, use funct 9
;       ai        aj        ak        al funct           phase               k        pn
         1         2         6         5     9        0.000000        0.161988         1    ;  uncertainty k = 0.416912
         1         2         6         5     9      180.000000       13.531570         2    ;  uncertainty k = 0.406341
         1         2         6         5     9        0.000000       -1.571295         3    ;  uncertainty k = 0.555470
         1         2         6         5     9      180.000000        0.618638         4    ;  uncertainty k = 0.380721
         1         2         6         7     9        0.000000        0.185110         1    ;  uncertainty k = 0.187705
         1         2         6         7     9      180.000000        8.062455         2    ;  uncertainty k = 0.379325
         1         2         6         7     9        0.000000        0.879081         3    ;  uncertainty k = 0.472362
         1         2         6         7     9      180.000000        1.215616         4    ;  uncertainty k = 0.159902
         1         4         3         5     9        0.000000        0.031354         1    ;  uncertainty k = 0.338894
         1         4         3         5     9      180.000000       16.650422         2    ;  uncertainty k = 0.410706
         1         4         3         5     9        0.000000       -0.301503         3    ;  uncertainty k = 0.288977
         1         4         3         5     9      180.000000        0.674374         4    ;  uncertainty k = 0.388643
         1         4         3        29     9        0.000000        0.106106         1    ;  uncertainty k = 0.173945
         1         4         3        29     9      180.000000        9.204997         2    ;  uncertainty k = 0.582425
         1         4         3        29     9        0.000000        1.393163         3    ;  uncertainty k = 0.233632
         1         4         3        29     9      180.000000        1.727468         4    ;  uncertainty k = 0.241177
         1        13        11        12     9        0.000000        0.738972         1    ;  uncertainty k = 0.703773
         1        13        11        12     9      180.000000       -1.643132         2    ;  uncertainty k = 0.827715
         1        13        11        12     9        0.000000        1.228256         3    ;  uncertainty k = 0.478073
         1        13        11        12     9      180.000000        0.044638         4    ;  uncertainty k = 0.147104
         1        13        11        26     9        0.000000        1.101079         1    ;  uncertainty k = 1.166208
         1        13        11        26     9      180.000000        3.270147         2    ;  uncertainty k = 0.578127
         1        13        11        26     9        0.000000        1.992741         3    ;  uncertainty k = 0.196267
         1        13        11        26     9      180.000000        0.148830         4    ;  uncertainty k = 0.214858
         1        13        11        27     9        0.000000        1.101079         1    ;  uncertainty k = 1.166208
         1        13        11        27     9      180.000000        3.270147         2    ;  uncertainty k = 0.578127
         1        13        11        27     9        0.000000        1.992741         3    ;  uncertainty k = 0.196267
         1        13        11        27     9      180.000000        0.148830         4    ;  uncertainty k = 0.214858
         2         1         4         3     9        0.000000       -0.122786         1    ;  uncertainty k = 0.134694
         2         1         4         3     9      180.000000        7.894757         2    ;  uncertainty k = 0.751745
         2         1         4         3     9        0.000000       -0.029823         3    ;  uncertainty k = 0.336789
         2         1         4         3     9      180.000000        1.262215         4    ;  uncertainty k = 0.251684
         2         1         4        30     9        0.000000        0.122597         1    ;  uncertainty k = 0.421722
         2         1         4        30     9      180.000000        5.535700         2    ;  uncertainty k = 0.817886
         2         1         4        30     9        0.000000        1.151931         3    ;  uncertainty k = 0.214530
         2         1         4        30     9      180.000000        1.404276         4    ;  uncertainty k = 0.191124
         2         1        13        11     9        0.000000        1.927092         1    ;  uncertainty k = 1.588307
         2         1        13        11     9      180.000000        2.497812         2    ;  uncertainty k = 0.425011
         2         1        13        11     9        0.000000        0.235474         3    ;  uncertainty k = 0.289898
         2         1        13        11     9      180.000000       -0.142940         4    ;  uncertainty k = 0.118161
         2         1        13        37     9        0.000000        1.711041         1    ;  uncertainty k = 0.637089
         2         1        13        37     9      180.000000        2.044865         2    ;  uncertainty k = 0.140651
         2         1        13        37     9        0.000000        0.245313         3    ;  uncertainty k = 0.205855
         2         1        13        37     9      180.000000        0.074373         4    ;  uncertainty k = 0.094743
         2         6         5         3     9        0.000000       -0.493064         1    ;  uncertainty k = 0.503495
         2         6         5         3     9      180.000000        7.152335         2    ;  uncertainty k = 0.611794
         2         6         5         3     9        0.000000        0.147941         3    ;  uncertainty k = 0.305939
         2         6         5         3     9      180.000000        0.996244         4    ;  uncertainty k = 0.380532
         2         6         5         9     9        0.000000       -0.016720         1    ;  uncertainty k = 0.620358
         2         6         5         9     9      180.000000        8.427456         2    ;  uncertainty k = 0.552671
         2         6         5         9     9        0.000000       -0.196169         3    ;  uncertainty k = 0.359483
         2         6         5         9     9      180.000000        1.243980         4    ;  uncertainty k = 0.346007
         2         6         7         8     9        0.000000        0.533979         1    ;  uncertainty k = 0.660916
         2         6         7         8     9      180.000000        6.719574         2    ;  uncertainty k = 0.314342
         2         6         7         8     9        0.000000        0.171757         3    ;  uncertainty k = 0.734182
         2         6         7         8     9      180.000000        0.943614         4    ;  uncertainty k = 0.187408
         2         6         7        10     9        0.000000       -0.748652         1    ;  uncertainty k = 0.846834
         2         6         7        10     9      180.000000        4.047438         2    ;  uncertainty k = 0.644215
         2         6         7        10     9        0.000000        1.317714         3    ;  uncertainty k = 0.297337
         2         6         7        10     9      180.000000        0.108594         4    ;  uncertainty k = 0.223580
         3         4         1        13     9        0.000000       -0.256073         1    ;  uncertainty k = 0.700630
         3         4         1        13     9      180.000000        8.951118         2    ;  uncertainty k = 0.421485
         3         4         1        13     9        0.000000        1.148492         3    ;  uncertainty k = 0.274119
         3         4         1        13     9      180.000000        1.573177         4    ;  uncertainty k = 0.207561
         3         5         6         7     9        0.000000        0.150162         1    ;  uncertainty k = 0.257480
         3         5         6         7     9      180.000000        6.873873         2    ;  uncertainty k = 0.281017
         3         5         6         7     9        0.000000        0.279577         3    ;  uncertainty k = 0.444052
         3         5         6         7     9      180.000000        1.287646         4    ;  uncertainty k = 0.356279
         3         5         9         8     9        0.000000        1.099261         1    ;  uncertainty k = 1.069793
         3         5         9         8     9      180.000000        6.359542         2    ;  uncertainty k = 0.372339
         3         5         9         8     9        0.000000        0.655125         3    ;  uncertainty k = 0.608791
         3         5         9         8     9      180.000000        0.379958         4    ;  uncertainty k = 0.190917
         3         5         9        31     9        0.000000        1.832812         1    ;  uncertainty k = 1.071696
         3         5         9        31     9      180.000000        1.415388         2    ;  uncertainty k = 0.573527
         3         5         9        31     9        0.000000        1.356120         3    ;  uncertainty k = 0.503532
         3         5         9        31     9      180.000000        0.060256         4    ;  uncertainty k = 0.183352
         4         1         2         6     9        0.000000        0.026950         1    ;  uncertainty k = 0.311696
         4         1         2         6     9      180.000000       12.121506         2    ;  uncertainty k = 0.301501
         4         1         2         6     9        0.000000        0.188994         3    ;  uncertainty k = 0.295455
         4         1         2         6     9      180.000000        1.053484         4    ;  uncertainty k = 0.348681
         4         1         2        28     9        0.000000        0.136002         1    ;  uncertainty k = 0.568682
         4         1         2        28     9      180.000000        7.096330         2    ;  uncertainty k = 0.865189
         4         1         2        28     9        0.000000        1.366381         3    ;  uncertainty k = 0.372902
         4         1         2        28     9      180.000000        1.592455         4    ;  uncertainty k = 0.161325
         4         1        13        11     9        0.000000        1.148667         1    ;  uncertainty k = 1.109067
         4         1        13        11     9      180.000000        2.793637         2    ;  uncertainty k = 0.241442
         4         1        13        11     9        0.000000        0.435074         3    ;  uncertainty k = 0.266921
         4         1        13        11     9      180.000000       -0.183716         4    ;  uncertainty k = 0.123535
         4         1        13        37     9        0.000000        2.133924         1    ;  uncertainty k = 0.779101
         4         1        13        37     9      180.000000        2.398468         2    ;  uncertainty k = 0.234712
         4         1        13        37     9        0.000000        0.532211         3    ;  uncertainty k = 0.280573
         4         1        13        37     9      180.000000        0.095295         4    ;  uncertainty k = 0.050275
         4         3         5         6     9        0.000000       -0.099388         1    ;  uncertainty k = 0.345985
         4         3         5         6     9      180.000000       12.201399         2    ;  uncertainty k = 0.167542
         4         3         5         6     9        0.000000       -1.276987         3    ;  uncertainty k = 0.181287
         4         3         5         6     9      180.000000        0.808448         4    ;  uncertainty k = 0.118465
         4         3         5         9     9        0.000000        0.157451         1    ;  uncertainty k = 0.338142
         4         3         5         9     9      180.000000       10.096548         2    ;  uncertainty k = 0.673089
         4         3         5         9     9        0.000000        0.682660         3    ;  uncertainty k = 0.227103
         4         3         5         9     9      180.000000        1.222331         4    ;  uncertainty k = 0.321299
         5         3         4        30     9        0.000000       -0.048140         1    ;  uncertainty k = 0.148199
         5         3         4        30     9      180.000000       11.493457         2    ;  uncertainty k = 0.413687
         5         3         4        30     9        0.000000        1.439949         3    ;  uncertainty k = 0.258086
         5         3         4        30     9      180.000000        1.611436         4    ;  uncertainty k = 0.275342
         5         6         2        28     9        0.000000        0.117749         1    ;  uncertainty k = 0.330863
         5         6         2        28     9      180.000000        7.288547         2    ;  uncertainty k = 1.003202
         5         6         2        28     9        0.000000        1.365766         3    ;  uncertainty k = 0.276690
         5         6         2        28     9      180.000000        1.156823         4    ;  uncertainty k = 0.372199
         5         6         7         8     9        0.000000        0.537111         1    ;  uncertainty k = 0.506307
         5         6         7         8     9      180.000000       13.152955         2    ;  uncertainty k = 1.199555
         5         6         7         8     9        0.000000      -10.876233         3    ;  uncertainty k = 1.953748
         5         6         7         8     9      180.000000        2.101358         4    ;  uncertainty k = 0.586439
         5         6         7        10     9        0.000000        1.330345         1    ;  uncertainty k = 1.029072
         5         6         7        10     9      180.000000        8.351683         2    ;  uncertainty k = 0.560100
         5         6         7        10     9        0.000000        1.803459         3    ;  uncertainty k = 0.779806
         5         6         7        10     9      180.000000        0.287440         4    ;  uncertainty k = 0.336681
         5         9         8         7     9        0.000000       -0.762418         1    ;  uncertainty k = 0.911194
         5         9         8         7     9      180.000000       16.984304         2    ;  uncertainty k = 0.598181
         5         9         8         7     9        0.000000       -4.757016         3    ;  uncertainty k = 1.076404
         5         9         8         7     9      180.000000        1.030262         4    ;  uncertainty k = 0.546585
         6         2         1        13     9        0.000000        0.069269         1    ;  uncertainty k = 0.550935
         6         2         1        13     9      180.000000       13.377045         2    ;  uncertainty k = 0.333007
         6         2         1        13     9        0.000000        1.131654         3    ;  uncertainty k = 0.300600
         6         2         1        13     9      180.000000        1.406239         4    ;  uncertainty k = 0.286691
         6         5         3        29     9        0.000000        0.019070         1    ;  uncertainty k = 0.370396
         6         5         3        29     9      180.000000        6.454070         2    ;  uncertainty k = 1.084667
         6         5         3        29     9        0.000000        1.294237         3    ;  uncertainty k = 0.223889
         6         5         3        29     9      180.000000        1.023743         4    ;  uncertainty k = 0.473759
         6         5         9         8     9        0.000000        0.073713         1    ;  uncertainty k = 0.601028
         6         5         9         8     9      180.000000       16.984893         2    ;  uncertainty k = 1.089379
         6         5         9         8     9        0.000000       -8.553977         3    ;  uncertainty k = 1.547631
         6         5         9         8     9      180.000000        0.788662         4    ;  uncertainty k = 0.601123
         6         5         9        31     9        0.000000        4.512046         1    ;  uncertainty k = 1.882136
         6         5         9        31     9      180.000000        5.534304         2    ;  uncertainty k = 1.440860
         6         5         9        31     9        0.000000        1.445393         3    ;  uncertainty k = 0.257483
         6         5         9        31     9      180.000000        0.068539         4    ;  uncertainty k = 0.133763
         6         7         8         9     9        0.000000       -0.429889         1    ;  uncertainty k = 0.465563
         6         7         8         9     9      180.000000       24.859071         2    ;  uncertainty k = 0.191164
         6         7         8         9     9        0.000000       -4.315638         3    ;  uncertainty k = 0.987428
         6         7         8         9     9      180.000000        1.977979         4    ;  uncertainty k = 0.391622
         6         7        10        14     9        0.000000       -0.418261         1    ;  uncertainty k = 0.542916
         6         7        10        14     9      180.000000        0.882567         2    ;  uncertainty k = 0.505498
         6         7        10        14     9        0.000000        1.002550         3    ;  uncertainty k = 0.168716
         6         7        10        14     9      180.000000        0.163083         4    ;  uncertainty k = 0.124868
         6         7        10        32     9        0.000000       -1.239412         1    ;  uncertainty k = 0.271285
         6         7        10        32     9      180.000000        1.712608         2    ;  uncertainty k = 0.527585
         6         7        10        32     9        0.000000        0.872619         3    ;  uncertainty k = 0.159675
         6         7        10        32     9      180.000000        0.092912         4    ;  uncertainty k = 0.071398
         6         7        10        33     9        0.000000       -1.239412         1    ;  uncertainty k = 0.271285
         6         7        10        33     9      180.000000        1.712608         2    ;  uncertainty k = 0.527585
         6         7        10        33     9        0.000000        0.872619         3    ;  uncertainty k = 0.159675
         6         7        10        33     9      180.000000        0.092912         4    ;  uncertainty k = 0.071398
         7         6         2        28     9        0.000000        0.012308         1    ;  uncertainty k = 0.391492
         7         6         2        28     9      180.000000        5.263461         2    ;  uncertainty k = 0.724282
         7         6         2        28     9        0.000000        1.080247         3    ;  uncertainty k = 0.298086
         7         6         2        28     9      180.000000        0.675660         4    ;  uncertainty k = 0.381327
         7         6         5         9     9        0.000000       -0.385830         1    ;  uncertainty k = 0.297400
         7         6         5         9     9      180.000000       12.152225         2    ;  uncertainty k = 0.593800
         7         6         5         9     9        0.000000       -3.571057         3    ;  uncertainty k = 1.531657
         7         6         5         9     9      180.000000        1.620172         4    ;  uncertainty k = 0.531212
         7         8         9        31     9        0.000000        4.166696         1    ;  uncertainty k = 2.325081
         7         8         9        31     9      180.000000       12.844342         2    ;  uncertainty k = 0.090440
         7         8         9        31     9        0.000000        1.679962         3    ;  uncertainty k = 1.047059
         7         8         9        31     9      180.000000       -0.429841         4    ;  uncertainty k = 0.259278
         7        10        14        15     9        0.000000        0.614625         1    ;  uncertainty k = 0.141811
         7        10        14        15     9      180.000000        1.857637         2    ;  uncertainty k = 0.196509
         7        10        14        15     9        0.000000        0.522807         3    ;  uncertainty k = 0.169427
         7        10        14        15     9      180.000000        0.244971         4    ;  uncertainty k = 0.075624
         7        10        14        19     9        0.000000        0.614625         1    ;  uncertainty k = 0.141811
         7        10        14        19     9      180.000000        1.857637         2    ;  uncertainty k = 0.196509
         7        10        14        19     9        0.000000        0.522807         3    ;  uncertainty k = 0.169427
         7        10        14        19     9      180.000000        0.244971         4    ;  uncertainty k = 0.075624
         8         7        10        14     9        0.000000        1.067279         1    ;  uncertainty k = 0.422027
         8         7        10        14     9      180.000000        1.534861         2    ;  uncertainty k = 0.280829
         8         7        10        14     9        0.000000        0.013240         3    ;  uncertainty k = 0.167807
         8         7        10        14     9      180.000000        0.135900         4    ;  uncertainty k = 0.102645
         8         7        10        32     9        0.000000        1.769584         1    ;  uncertainty k = 0.094148
         8         7        10        32     9      180.000000        2.177403         2    ;  uncertainty k = 0.265529
         8         7        10        32     9        0.000000        0.153019         3    ;  uncertainty k = 0.091535
         8         7        10        32     9      180.000000        0.106115         4    ;  uncertainty k = 0.046748
         8         7        10        33     9        0.000000        1.769584         1    ;  uncertainty k = 0.094148
         8         7        10        33     9      180.000000        2.177403         2    ;  uncertainty k = 0.265529
         8         7        10        33     9        0.000000        0.153019         3    ;  uncertainty k = 0.091535
         8         7        10        33     9      180.000000        0.106115         4    ;  uncertainty k = 0.046748
         9         5         3        29     9        0.000000        0.437789         1    ;  uncertainty k = 0.423926
         9         5         3        29     9      180.000000        5.337246         2    ;  uncertainty k = 0.689674
         9         5         3        29     9        0.000000        1.088077         3    ;  uncertainty k = 0.252988
         9         5         3        29     9      180.000000        0.695615         4    ;  uncertainty k = 0.330689
         9         8         7        10     9        0.000000       -0.533478         1    ;  uncertainty k = 0.824493
         9         8         7        10     9      180.000000       25.129016         2    ;  uncertainty k = 0.170759
         9         8         7        10     9        0.000000        2.422035         3    ;  uncertainty k = 0.636198
         9         8         7        10     9      180.000000        1.095970         4    ;  uncertainty k = 0.276315
        10        14        15        16     9        0.000000        0.169204         1    ;  uncertainty k = 0.242807
        10        14        15        16     9      180.000000        8.593729         2    ;  uncertainty k = 0.401443
        10        14        15        16     9        0.000000        1.459163         3    ;  uncertainty k = 0.363057
        10        14        15        16     9      180.000000        1.890470         4    ;  uncertainty k = 0.111180
        10        14        15        38     9        0.000000       -0.145243         1    ;  uncertainty k = 0.181743
        10        14        15        38     9      180.000000        7.615666         2    ;  uncertainty k = 0.278472
        10        14        15        38     9        0.000000        0.580734         3    ;  uncertainty k = 0.342497
        10        14        15        38     9      180.000000        0.989521         4    ;  uncertainty k = 0.234579
        10        14        19        18     9        0.000000        0.169204         1    ;  uncertainty k = 0.242807
        10        14        19        18     9      180.000000        8.593729         2    ;  uncertainty k = 0.401443
        10        14        19        18     9        0.000000        1.459163         3    ;  uncertainty k = 0.363057
        10        14        19        18     9      180.000000        1.890470         4    ;  uncertainty k = 0.111180
        10        14        19        41     9        0.000000       -0.145243         1    ;  uncertainty k = 0.181743
        10        14        19        41     9      180.000000        7.615666         2    ;  uncertainty k = 0.278472
        10        14        19        41     9        0.000000        0.580734         3    ;  uncertainty k = 0.342497
        10        14        19        41     9      180.000000        0.989521         4    ;  uncertainty k = 0.234579
        12        11        13        37     9        0.000000       -2.965161         1    ;  uncertainty k = 1.351811
        12        11        13        37     9      180.000000       -4.803409         2    ;  uncertainty k = 0.729456
        12        11        13        37     9        0.000000       -1.199654         3    ;  uncertainty k = 0.337830
        12        11        13        37     9      180.000000       -0.101196         4    ;  uncertainty k = 0.221178
        13         1         2        28     9        0.000000       -0.551907         1    ;  uncertainty k = 0.633073
        13         1         2        28     9      180.000000        8.361272         2    ;  uncertainty k = 0.222892
        13         1         2        28     9        0.000000        0.889795         3    ;  uncertainty k = 0.222485
        13         1         2        28     9      180.000000        1.158281         4    ;  uncertainty k = 0.338367
        13         1         4        30     9        0.000000       -0.593416         1    ;  uncertainty k = 0.496310
        13         1         4        30     9      180.000000        7.307395         2    ;  uncertainty k = 0.282851
        13         1         4        30     9        0.000000        0.916875         3    ;  uncertainty k = 0.346737
        13         1         4        30     9      180.000000        1.133848         4    ;  uncertainty k = 0.227931
        13        11        12        34     9        0.000000        0.386869         1    ;  uncertainty k = 1.143581
        13        11        12        34     9      180.000000       -1.760683         2    ;  uncertainty k = 0.358677
        13        11        12        34     9        0.000000        0.364615         3    ;  uncertainty k = 0.166333
        13        11        12        34     9      180.000000       -0.020089         4    ;  uncertainty k = 0.154905
        13        11        12        35     9        0.000000        0.386869         1    ;  uncertainty k = 1.143581
        13        11        12        35     9      180.000000       -1.760683         2    ;  uncertainty k = 0.358677
        13        11        12        35     9        0.000000        0.364615         3    ;  uncertainty k = 0.166333
        13        11        12        35     9      180.000000       -0.020089         4    ;  uncertainty k = 0.154905
        13        11        12        36     9        0.000000        0.386871         1    ;  uncertainty k = 1.143583
        13        11        12        36     9      180.000000       -1.760683         2    ;  uncertainty k = 0.358678
        13        11        12        36     9        0.000000        0.364615         3    ;  uncertainty k = 0.166333
        13        11        12        36     9      180.000000       -0.020088         4    ;  uncertainty k = 0.154905
        14        15        16        17     9        0.000000       -0.087057         1    ;  uncertainty k = 0.154901
        14        15        16        17     9      180.000000       13.600436         2    ;  uncertainty k = 0.230971
        14        15        16        17     9        0.000000       -0.751784         3    ;  uncertainty k = 0.436421
        14        15        16        17     9      180.000000        0.777514         4    ;  uncertainty k = 0.245178
        14        15        16        39     9        0.000000        0.010827         1    ;  uncertainty k = 0.163132
        14        15        16        39     9      180.000000        7.805433         2    ;  uncertainty k = 0.422073
        14        15        16        39     9        0.000000        1.391790         3    ;  uncertainty k = 0.234314
        14        15        16        39     9      180.000000        1.880931         4    ;  uncertainty k = 0.189420
        14        19        18        17     9        0.000000       -0.087057         1    ;  uncertainty k = 0.154901
        14        19        18        17     9      180.000000       13.600436         2    ;  uncertainty k = 0.230971
        14        19        18        17     9        0.000000       -0.751784         3    ;  uncertainty k = 0.436421
        14        19        18        17     9      180.000000        0.777514         4    ;  uncertainty k = 0.245178
        14        19        18        40     9        0.000000        0.010827         1    ;  uncertainty k = 0.163132
        14        19        18        40     9      180.000000        7.805433         2    ;  uncertainty k = 0.422073
        14        19        18        40     9        0.000000        1.391790         3    ;  uncertainty k = 0.234314
        14        19        18        40     9      180.000000        1.880931         4    ;  uncertainty k = 0.189420
        15        14        10        32     9        0.000000       -0.300138         1    ;  uncertainty k = 0.153189
        15        14        10        32     9      180.000000        1.928373         2    ;  uncertainty k = 0.130920
        15        14        10        32     9        0.000000        0.360376         3    ;  uncertainty k = 0.118491
        15        14        10        32     9      180.000000        0.117080         4    ;  uncertainty k = 0.032968
        15        14        10        33     9        0.000000       -0.300138         1    ;  uncertainty k = 0.153189
        15        14        10        33     9      180.000000        1.928373         2    ;  uncertainty k = 0.130920
        15        14        10        33     9        0.000000        0.360376         3    ;  uncertainty k = 0.118491
        15        14        10        33     9      180.000000        0.117080         4    ;  uncertainty k = 0.032968
        15        14        19        18     9        0.000000       -0.141019         1    ;  uncertainty k = 0.190132
        15        14        19        18     9      180.000000       11.565169         2    ;  uncertainty k = 0.450751
        15        14        19        18     9        0.000000       -0.482803         3    ;  uncertainty k = 0.323947
        15        14        19        18     9      180.000000        0.820385         4    ;  uncertainty k = 0.428180
        15        14        19        41     9        0.000000        0.161510         1    ;  uncertainty k = 0.189284
        15        14        19        41     9      180.000000        7.143526         2    ;  uncertainty k = 0.548274
        15        14        19        41     9        0.000000        1.383620         3    ;  uncertainty k = 0.306740
        15        14        19        41     9      180.000000        1.646182         4    ;  uncertainty k = 0.144811
        15        16        17        18     9        0.000000        0.099530         1    ;  uncertainty k = 0.198850
        15        16        17        18     9      180.000000       10.864272         2    ;  uncertainty k = 0.250101
        15        16        17        18     9        0.000000       -0.460426         3    ;  uncertainty k = 0.291547
        15        16        17        18     9      180.000000        0.910602         4    ;  uncertainty k = 0.279798
        15        16        17        20     9        0.000000       -0.069350         1    ;  uncertainty k = 0.292775
        15        16        17        20     9      180.000000        8.942093         2    ;  uncertainty k = 0.563576
        15        16        17        20     9        0.000000        1.225126         3    ;  uncertainty k = 0.296630
        15        16        17        20     9      180.000000        1.608135         4    ;  uncertainty k = 0.239057
        16        15        14        19     9        0.000000       -0.141019         1    ;  uncertainty k = 0.190132
        16        15        14        19     9      180.000000       11.565169         2    ;  uncertainty k = 0.450751
        16        15        14        19     9        0.000000       -0.482803         3    ;  uncertainty k = 0.323947
        16        15        14        19     9      180.000000        0.820385         4    ;  uncertainty k = 0.428180
        16        17        18        19     9        0.000000        0.099530         1    ;  uncertainty k = 0.198850
        16        17        18        19     9      180.000000       10.864272         2    ;  uncertainty k = 0.250101
        16        17        18        19     9        0.000000       -0.460426         3    ;  uncertainty k = 0.291547
        16        17        18        19     9      180.000000        0.910602         4    ;  uncertainty k = 0.279798
        16        17        18        40     9        0.000000        0.071629         1    ;  uncertainty k = 0.210521
        16        17        18        40     9      180.000000        6.731318         2    ;  uncertainty k = 0.652358
        16        17        18        40     9        0.000000        1.402558         3    ;  uncertainty k = 0.275742
        16        17        18        40     9      180.000000        1.629461         4    ;  uncertainty k = 0.263941
        16        17        20        21     9        0.000000        0.364742         1    ;  uncertainty k = 0.617618
        16        17        20        21     9      180.000000        2.957626         2    ;  uncertainty k = 0.176252
        16        17        20        21     9        0.000000        0.337574         3    ;  uncertainty k = 0.277333
        16        17        20        21     9      180.000000       -0.075996         4    ;  uncertainty k = 0.052358
        16        17        20        24     9        0.000000        0.212085         1    ;  uncertainty k = 0.583246
        16        17        20        24     9      180.000000        2.756721         2    ;  uncertainty k = 0.102989
        16        17        20        24     9        0.000000        0.399155         3    ;  uncertainty k = 0.207054
        16        17        20        24     9      180.000000       -0.145894         4    ;  uncertainty k = 0.054997
        17        16        15        38     9        0.000000        0.051679         1    ;  uncertainty k = 0.047053
        17        16        15        38     9      180.000000        8.110356         2    ;  uncertainty k = 0.308214
        17        16        15        38     9        0.000000        1.348837         3    ;  uncertainty k = 0.262065
        17        16        15        38     9      180.000000        1.847919         4    ;  uncertainty k = 0.146536
        17        18        19        41     9        0.000000        0.051679         1    ;  uncertainty k = 0.047053
        17        18        19        41     9      180.000000        8.110356         2    ;  uncertainty k = 0.308214
        17        18        19        41     9        0.000000        1.348837         3    ;  uncertainty k = 0.262065
        17        18        19        41     9      180.000000        1.847919         4    ;  uncertainty k = 0.146536
        17        20        21        22     9        0.000000        0.730829         1    ;  uncertainty k = 0.745969
        17        20        21        22     9      180.000000       14.124868         2    ;  uncertainty k = 0.381349
        17        20        21        22     9        0.000000        1.366411         3    ;  uncertainty k = 0.224812
        17        20        21        22     9      180.000000        0.828718         4    ;  uncertainty k = 0.243932
        17        20        21        42     9        0.000000        0.487086         1    ;  uncertainty k = 0.482656
        17        20        21        42     9      180.000000        6.408018         2    ;  uncertainty k = 0.855931
        17        20        21        42     9        0.000000        1.305884         3    ;  uncertainty k = 0.462346
        17        20        21        42     9      180.000000        0.400447         4    ;  uncertainty k = 0.122561
        17        20        24        23     9        0.000000        0.856900         1    ;  uncertainty k = 1.194888
        17        20        24        23     9      180.000000       12.441670         2    ;  uncertainty k = 0.564932
        17        20        24        23     9        0.000000        1.830358         3    ;  uncertainty k = 0.514365
        17        20        24        23     9      180.000000        0.550073         4    ;  uncertainty k = 0.201764
        17        20        24        43     9        0.000000        0.304653         1    ;  uncertainty k = 0.808439
        17        20        24        43     9      180.000000        5.213596         2    ;  uncertainty k = 0.592555
        17        20        24        43     9        0.000000        1.354869         3    ;  uncertainty k = 0.262334
        17        20        24        43     9      180.000000        0.295532         4    ;  uncertainty k = 0.033191
        18        17        16        39     9        0.000000        0.071629         1    ;  uncertainty k = 0.210521
        18        17        16        39     9      180.000000        6.731318         2    ;  uncertainty k = 0.652358
        18        17        16        39     9        0.000000        1.402558         3    ;  uncertainty k = 0.275742
        18        17        16        39     9      180.000000        1.629461         4    ;  uncertainty k = 0.263941
        18        17        20        21     9        0.000000        0.364742         1    ;  uncertainty k = 0.617618
        18        17        20        21     9      180.000000        2.957626         2    ;  uncertainty k = 0.176252
        18        17        20        21     9        0.000000        0.337574         3    ;  uncertainty k = 0.277333
        18        17        20        21     9      180.000000       -0.075996         4    ;  uncertainty k = 0.052358
        18        17        20        24     9        0.000000        0.212085         1    ;  uncertainty k = 0.583246
        18        17        20        24     9      180.000000        2.756721         2    ;  uncertainty k = 0.102989
        18        17        20        24     9        0.000000        0.399155         3    ;  uncertainty k = 0.207054
        18        17        20        24     9      180.000000       -0.145894         4    ;  uncertainty k = 0.054997
        19        14        10        32     9        0.000000       -0.300138         1    ;  uncertainty k = 0.153189
        19        14        10        32     9      180.000000        1.928373         2    ;  uncertainty k = 0.130920
        19        14        10        32     9        0.000000        0.360376         3    ;  uncertainty k = 0.118491
        19        14        10        32     9      180.000000        0.117080         4    ;  uncertainty k = 0.032968
        19        14        10        33     9        0.000000       -0.300138         1    ;  uncertainty k = 0.153189
        19        14        10        33     9      180.000000        1.928373         2    ;  uncertainty k = 0.130920
        19        14        10        33     9        0.000000        0.360376         3    ;  uncertainty k = 0.118491
        19        14        10        33     9      180.000000        0.117080         4    ;  uncertainty k = 0.032968
        19        14        15        38     9        0.000000        0.161510         1    ;  uncertainty k = 0.189284
        19        14        15        38     9      180.000000        7.143526         2    ;  uncertainty k = 0.548274
        19        14        15        38     9        0.000000        1.383620         3    ;  uncertainty k = 0.306740
        19        14        15        38     9      180.000000        1.646182         4    ;  uncertainty k = 0.144811
        19        18        17        20     9        0.000000       -0.069350         1    ;  uncertainty k = 0.292775
        19        18        17        20     9      180.000000        8.942093         2    ;  uncertainty k = 0.563576
        19        18        17        20     9        0.000000        1.225126         3    ;  uncertainty k = 0.296630
        19        18        17        20     9      180.000000        1.608135         4    ;  uncertainty k = 0.239057
        20        17        16        39     9        0.000000       -0.274120         1    ;  uncertainty k = 0.256076
        20        17        16        39     9      180.000000        6.927145         2    ;  uncertainty k = 0.360005
        20        17        16        39     9        0.000000        0.845887         3    ;  uncertainty k = 0.114326
        20        17        16        39     9      180.000000        1.148769         4    ;  uncertainty k = 0.209269
        20        17        18        40     9        0.000000       -0.274120         1    ;  uncertainty k = 0.256076
        20        17        18        40     9      180.000000        6.927145         2    ;  uncertainty k = 0.360005
        20        17        18        40     9        0.000000        0.845887         3    ;  uncertainty k = 0.114326
        20        17        18        40     9      180.000000        1.148769         4    ;  uncertainty k = 0.209269
        20        21        22        23     9        0.000000       -0.316526         1    ;  uncertainty k = 1.047711
        20        21        22        23     9      180.000000       17.284046         2    ;  uncertainty k = 0.688330
        20        21        22        23     9        0.000000       -9.057288         3    ;  uncertainty k = 0.901701
        20        21        22        23     9      180.000000        1.215837         4    ;  uncertainty k = 0.532722
        20        21        22        25     9        0.000000        1.392889         1    ;  uncertainty k = 1.290773
        20        21        22        25     9      180.000000        9.638849         2    ;  uncertainty k = 0.368011
        20        21        22        25     9        0.000000        1.944194         3    ;  uncertainty k = 0.374374
        20        21        22        25     9      180.000000       -0.106447         4    ;  uncertainty k = 0.068875
        20        24        23        22     9        0.000000       -0.058010         1    ;  uncertainty k = 0.625462
        20        24        23        22     9      180.000000       24.452638         2    ;  uncertainty k = 0.460560
        20        24        23        22     9        0.000000       -7.646340         3    ;  uncertainty k = 0.486543
        20        24        23        22     9      180.000000        2.227719         4    ;  uncertainty k = 0.719303
        21        20        24        23     9        0.000000       -0.355455         1    ;  uncertainty k = 0.508595
        21        20        24        23     9      180.000000       15.046675         2    ;  uncertainty k = 1.070272
        21        20        24        23     9        0.000000       -9.005960         3    ;  uncertainty k = 0.840801
        21        20        24        23     9      180.000000        1.826438         4    ;  uncertainty k = 0.522282
        21        20        24        43     9        0.000000       -0.031464         1    ;  uncertainty k = 0.354506
        21        20        24        43     9      180.000000        8.072054         2    ;  uncertainty k = 0.597935
        21        20        24        43     9        0.000000        1.249978         3    ;  uncertainty k = 0.335798
        21        20        24        43     9      180.000000        0.512738         4    ;  uncertainty k = 0.162738
        21        22        23        24     9        0.000000       -0.225287         1    ;  uncertainty k = 0.828367
        21        22        23        24     9      180.000000       16.689018         2    ;  uncertainty k = 0.422253
        21        22        23        24     9        0.000000       -7.488213         3    ;  uncertainty k = 1.300321
        21        22        23        24     9      180.000000        1.602126         4    ;  uncertainty k = 0.425607
        21        22        25        44     9        0.000000       -0.009532         1    ;  uncertainty k = 0.351892
        21        22        25        44     9      180.000000       -1.118669         2    ;  uncertainty k = 0.175718
        21        22        25        44     9        0.000000        0.788902         3    ;  uncertainty k = 0.017444
        21        22        25        44     9      180.000000        0.208638         4    ;  uncertainty k = 0.050244
        21        22        25        45     9        0.000000       -0.009532         1    ;  uncertainty k = 0.351892
        21        22        25        45     9      180.000000       -1.118669         2    ;  uncertainty k = 0.175718
        21        22        25        45     9        0.000000        0.788902         3    ;  uncertainty k = 0.017444
        21        22        25        45     9      180.000000        0.208638         4    ;  uncertainty k = 0.050244
        21        22        25        46     9        0.000000       -0.009532         1    ;  uncertainty k = 0.351892
        21        22        25        46     9      180.000000       -1.118669         2    ;  uncertainty k = 0.175718
        21        22        25        46     9        0.000000        0.788902         3    ;  uncertainty k = 0.017444
        21        22        25        46     9      180.000000        0.208638         4    ;  uncertainty k = 0.050244
        22        21        20        24     9        0.000000        0.138355         1    ;  uncertainty k = 0.250165
        22        21        20        24     9      180.000000       18.966874         2    ;  uncertainty k = 0.230930
        22        21        20        24     9        0.000000       -9.822058         3    ;  uncertainty k = 0.542344
        22        21        20        24     9      180.000000        1.616629         4    ;  uncertainty k = 0.658377
        22        23        24        43     9        0.000000        0.455448         1    ;  uncertainty k = 0.742365
        22        23        24        43     9      180.000000       22.168886         2    ;  uncertainty k = 0.393002
        22        23        24        43     9        0.000000        1.308522         3    ;  uncertainty k = 0.565188
        22        23        24        43     9      180.000000        1.249378         4    ;  uncertainty k = 0.583038
        23        22        21        42     9        0.000000        0.954942         1    ;  uncertainty k = 0.636273
        23        22        21        42     9      180.000000       11.894603         2    ;  uncertainty k = 0.460933
        23        22        21        42     9        0.000000        1.730548         3    ;  uncertainty k = 0.518861
        23        22        21        42     9      180.000000        0.048447         4    ;  uncertainty k = 0.167333
        23        22        25        44     9        0.000000        1.398760         1    ;  uncertainty k = 0.579543
        23        22        25        44     9      180.000000       -1.134020         2    ;  uncertainty k = 0.131940
        23        22        25        44     9        0.000000        0.742560         3    ;  uncertainty k = 0.044341
        23        22        25        44     9      180.000000        0.251257         4    ;  uncertainty k = 0.037757
        23        22        25        45     9        0.000000        1.398760         1    ;  uncertainty k = 0.579543
        23        22        25        45     9      180.000000       -1.134020         2    ;  uncertainty k = 0.131940
        23        22        25        45     9        0.000000        0.742560         3    ;  uncertainty k = 0.044341
        23        22        25        45     9      180.000000        0.251257         4    ;  uncertainty k = 0.037757
        23        22        25        46     9        0.000000        1.398760         1    ;  uncertainty k = 0.579543
        23        22        25        46     9      180.000000       -1.134020         2    ;  uncertainty k = 0.131940
        23        22        25        46     9        0.000000        0.742560         3    ;  uncertainty k = 0.044341
        23        22        25        46     9      180.000000        0.251257         4    ;  uncertainty k = 0.037757
        24        20        21        42     9        0.000000        0.015435         1    ;  uncertainty k = 0.258046
        24        20        21        42     9      180.000000       10.338561         2    ;  uncertainty k = 0.277931
        24        20        21        42     9        0.000000        1.639009         3    ;  uncertainty k = 0.357902
        24        20        21        42     9      180.000000        0.594000         4    ;  uncertainty k = 0.198130
        24        23        22        25     9        0.000000        0.933316         1    ;  uncertainty k = 1.275517
        24        23        22        25     9      180.000000       13.272691         2    ;  uncertainty k = 0.326665
        24        23        22        25     9        0.000000        1.823279         3    ;  uncertainty k = 0.443014
        24        23        22        25     9      180.000000       -0.164134         4    ;  uncertainty k = 0.298894
        25        22        21        42     9        0.000000       -0.476541         1    ;  uncertainty k = 0.254767
        25        22        21        42     9      180.000000        3.142291         2    ;  uncertainty k = 0.652805
        25        22        21        42     9        0.000000        1.097292         3    ;  uncertainty k = 0.480724
        25        22        21        42     9      180.000000        0.022420         4    ;  uncertainty k = 0.193415
        26        11        12        34     9        0.000000        0.062317         1    ;  uncertainty k = 0.734094
        26        11        12        34     9      180.000000       -0.145693         2    ;  uncertainty k = 0.327444
        26        11        12        34     9        0.000000        0.684568         3    ;  uncertainty k = 0.135104
        26        11        12        34     9      180.000000        0.035101         4    ;  uncertainty k = 0.115070
        26        11        12        35     9        0.000000        0.062317         1    ;  uncertainty k = 0.734094
        26        11        12        35     9      180.000000       -0.145693         2    ;  uncertainty k = 0.327444
        26        11        12        35     9        0.000000        0.684568         3    ;  uncertainty k = 0.135104
        26        11        12        35     9      180.000000        0.035101         4    ;  uncertainty k = 0.115070
        26        11        12        36     9        0.000000        0.062316         1    ;  uncertainty k = 0.734095
        26        11        12        36     9      180.000000       -0.145693         2    ;  uncertainty k = 0.327443
        26        11        12        36     9        0.000000        0.684568         3    ;  uncertainty k = 0.135103
        26        11        12        36     9      180.000000        0.035101         4    ;  uncertainty k = 0.115070
        26        11        13        37     9        0.000000        7.858070         1    ;  uncertainty k = 0.667068
        26        11        13        37     9      180.000000       -0.333828         2    ;  uncertainty k = 0.640664
        26        11        13        37     9        0.000000       -0.311668         3    ;  uncertainty k = 0.226477
        26        11        13        37     9      180.000000       -0.112111         4    ;  uncertainty k = 0.225194
        27        11        12        34     9        0.000000        0.062317         1    ;  uncertainty k = 0.734094
        27        11        12        34     9      180.000000       -0.145693         2    ;  uncertainty k = 0.327444
        27        11        12        34     9        0.000000        0.684568         3    ;  uncertainty k = 0.135104
        27        11        12        34     9      180.000000        0.035101         4    ;  uncertainty k = 0.115070
        27        11        12        35     9        0.000000        0.062317         1    ;  uncertainty k = 0.734094
        27        11        12        35     9      180.000000       -0.145693         2    ;  uncertainty k = 0.327444
        27        11        12        35     9        0.000000        0.684568         3    ;  uncertainty k = 0.135104
        27        11        12        35     9      180.000000        0.035101         4    ;  uncertainty k = 0.115070
        27        11        12        36     9        0.000000        0.062316         1    ;  uncertainty k = 0.734095
        27        11        12        36     9      180.000000       -0.145693         2    ;  uncertainty k = 0.327443
        27        11        12        36     9        0.000000        0.684568         3    ;  uncertainty k = 0.135103
        27        11        12        36     9      180.000000        0.035101         4    ;  uncertainty k = 0.115070
        27        11        13        37     9        0.000000        7.858070         1    ;  uncertainty k = 0.667068
        27        11        13        37     9      180.000000       -0.333828         2    ;  uncertainty k = 0.640664
        27        11        13        37     9        0.000000       -0.311668         3    ;  uncertainty k = 0.226477
        27        11        13        37     9      180.000000       -0.112111         4    ;  uncertainty k = 0.225194
        29         3         4        30     9        0.000000        0.034153         1    ;  uncertainty k = 0.616974
        29         3         4        30     9      180.000000        7.871175         2    ;  uncertainty k = 0.313110
        29         3         4        30     9        0.000000       -0.272745         3    ;  uncertainty k = 0.317523
        29         3         4        30     9      180.000000        0.213738         4    ;  uncertainty k = 0.200300
        38        15        16        39     9        0.000000       -0.105047         1    ;  uncertainty k = 0.079025
        38        15        16        39     9      180.000000        7.802566         2    ;  uncertainty k = 0.370707
        38        15        16        39     9        0.000000       -0.520984         3    ;  uncertainty k = 0.249530
        38        15        16        39     9      180.000000        0.209880         4    ;  uncertainty k = 0.188643
        40        18        19        41     9        0.000000       -0.105047         1    ;  uncertainty k = 0.079025
        40        18        19        41     9      180.000000        7.802566         2    ;  uncertainty k = 0.370707
        40        18        19        41     9        0.000000       -0.520984         3    ;  uncertainty k = 0.249530
        40        18        19        41     9      180.000000        0.209880         4    ;  uncertainty k = 0.188643

[ dihedrals ] ; impropers
;       ai        aj        ak        al funct           phase               k        pn
         1         2         4        13     4      180.000000       13.189264         2    ;  uncertainty k = 0.294628
         1         4        13         2     4      180.000000       13.189264         2    ;  uncertainty k = 0.294628
         1        13         2         4     4      180.000000       13.189264         2    ;  uncertainty k = 0.294628
         2         1         6        28     4      180.000000        3.551305         2    ;  uncertainty k = 0.262719
         2         6        28         1     4      180.000000        3.551305         2    ;  uncertainty k = 0.262719
         2        28         1         6     4      180.000000        3.551305         2    ;  uncertainty k = 0.262719
         3         4         5        29     4      180.000000        2.916989         2    ;  uncertainty k = 0.250908
         3         5        29         4     4      180.000000        2.916989         2    ;  uncertainty k = 0.250908
         3        29         4         5     4      180.000000        2.916989         2    ;  uncertainty k = 0.250908
         4         1         3        30     4      180.000000        3.138889         2    ;  uncertainty k = 0.129984
         4         3        30         1     4      180.000000        3.138889         2    ;  uncertainty k = 0.129984
         4        30         1         3     4      180.000000        3.138889         2    ;  uncertainty k = 0.129984
         5         3         6         9     4      180.000000        1.483892         2    ;  uncertainty k = 0.929152
         5         6         9         3     4      180.000000        1.483892         2    ;  uncertainty k = 0.929152
         5         9         3         6     4      180.000000        1.483892         2    ;  uncertainty k = 0.929152
         7         6         8        10     4      180.000000        6.911165         2    ;  uncertainty k = 0.264659
         7         8        10         6     4      180.000000        6.911165         2    ;  uncertainty k = 0.264659
         7        10         6         8     4      180.000000        6.911165         2    ;  uncertainty k = 0.264659
        14        10        15        19     4      180.000000       13.443225         2    ;  uncertainty k = 0.081656
        14        15        19        10     4      180.000000       13.443225         2    ;  uncertainty k = 0.081656
        14        19        10        15     4      180.000000       13.443225         2    ;  uncertainty k = 0.081656
        15        14        16        38     4      180.000000        4.038197         2    ;  uncertainty k = 0.126249
        15        16        38        14     4      180.000000        4.038197         2    ;  uncertainty k = 0.126249
        15        38        14        16     4      180.000000        4.038197         2    ;  uncertainty k = 0.126249
        16        15        17        39     4      180.000000        3.634538         2    ;  uncertainty k = 0.167362
        16        17        39        15     4      180.000000        3.634538         2    ;  uncertainty k = 0.167362
        16        39        15        17     4      180.000000        3.634538         2    ;  uncertainty k = 0.167362
        17        16        18        20     4      180.000000       14.868719         2    ;  uncertainty k = 0.081810
        17        18        20        16     4      180.000000       14.868719         2    ;  uncertainty k = 0.081810
        17        20        16        18     4      180.000000       14.868719         2    ;  uncertainty k = 0.081810
        18        17        19        40     4      180.000000        3.634538         2    ;  uncertainty k = 0.167362
        18        19        40        17     4      180.000000        3.634538         2    ;  uncertainty k = 0.167362
        18        40        17        19     4      180.000000        3.634538         2    ;  uncertainty k = 0.167362
        19        14        18        41     4      180.000000        4.038197         2    ;  uncertainty k = 0.126249
        19        18        41        14     4      180.000000        4.038197         2    ;  uncertainty k = 0.126249
        19        41        14        18     4      180.000000        4.038197         2    ;  uncertainty k = 0.126249
        20        17        21        24     4      180.000000        2.273628         2    ;  uncertainty k = 0.479725
        20        21        24        17     4      180.000000        2.273628         2    ;  uncertainty k = 0.479725
        20        24        17        21     4      180.000000        2.273628         2    ;  uncertainty k = 0.479725
        21        20        22        42     4      180.000000        0.843031         2    ;  uncertainty k = 0.771057
        21        22        42        20     4      180.000000        0.843031         2    ;  uncertainty k = 0.771057
        21        42        20        22     4      180.000000        0.843031         2    ;  uncertainty k = 0.771057
        24        20        23        43     4      180.000000        0.319029         2    ;  uncertainty k = 0.442787
        24        23        43        20     4      180.000000        0.319029         2    ;  uncertainty k = 0.442787
        24        43        20        23     4      180.000000        0.319029         2    ;  uncertainty k = 0.442787

[ pairs ]
;       ai        aj funct
         1         5     1
         1         7     1
         1        12     1
         1        26     1
         1        27     1
         1        29     1
         2         3     1
         2         8     1
         2         9     1
         2        10     1
         2        11     1
         2        30     1
         2        37     1
         3         7     1
         3         8     1
         3        13     1
         3        31     1
         4         6     1
         4         9     1
         4        11     1
         4        28     1
         4        37     1
         5        10     1
         5        28     1
         5        30     1
         6        13     1
         6        14     1
         6        29     1
         6        31     1
         6        32     1
         6        33     1
         7        15     1
         7        19     1
         7        28     1
         7        31     1
         8        14     1
         8        32     1
         8        33     1
         9        10     1
         9        29     1
        10        16     1
        10        18     1
        10        38     1
        10        41     1
        12        37     1
        13        28     1
        13        30     1
        13        34     1
        13        35     1
        13        36     1
        14        17     1
        14        39     1
        14        40     1
        15        18     1
        15        20     1
        15        32     1
        15        33     1
        15        41     1
        16        19     1
        16        21     1
        16        24     1
        16        40     1
        17        22     1
        17        23     1
        17        38     1
        17        41     1
        17        42     1
        17        43     1
        18        21     1
        18        24     1
        18        39     1
        19        20     1
        19        32     1
        19        33     1
        19        38     1
        20        25     1
        20        39     1
        20        40     1
        21        43     1
        21        44     1
        21        45     1
        21        46     1
        22        43     1
        23        42     1
        23        44     1
        23        45     1
        23        46     1
        24        25     1
        24        42     1
        25        42     1
        26        34     1
        26        35     1
        26        36     1
        26        37     1
        27        34     1
        27        35     1
        27        36     1
        27        37     1
        29        30     1
        38        39     1
        40        41     1
