; ITP file created by ByteFF-joint-25, 2026-02-17 09:06:34.250093

[ atomtypes ]
;name           bonded.type        at.num        mass        charge   ptype           sigma         epsilon
 c0bf                                   6      0.0000       0.00000       A     3.31535e-01     4.13369e-01    ;  uncertainty sigma = 0.000020, epsilon = 0.000806
 c1bf                                   6      0.0000       0.00000       A     3.31540e-01     4.12574e-01    ;  uncertainty sigma = 0.000031, epsilon = 0.000879
 c2bf                                   6      0.0000       0.00000       A     3.31509e-01     4.13295e-01    ;  uncertainty sigma = 0.000007, epsilon = 0.000930
 c3bf                                   6      0.0000       0.00000       A     3.31526e-01     4.13387e-01    ;  uncertainty sigma = 0.000007, epsilon = 0.000525
 c4bf                                   6      0.0000       0.00000       A     3.31512e-01     4.13172e-01    ;  uncertainty sigma = 0.000009, epsilon = 0.000904
 c5bf                                   6      0.0000       0.00000       A     3.31534e-01     4.13481e-01    ;  uncertainty sigma = 0.000012, epsilon = 0.000649
 c6bf                                   6      0.0000       0.00000       A     3.31512e-01     4.13793e-01    ;  uncertainty sigma = 0.000012, epsilon = 0.000519
 n7bf                                   7      0.0000       0.00000       A     3.38378e-01     3.93289e-01    ;  uncertainty sigma = 0.000011, epsilon = 0.000859
 n8bf                                   7      0.0000       0.00000       A     3.20594e-01     8.54239e-01    ;  uncertainty sigma = 0.000008, epsilon = 0.000871
 c9bf                                   6      0.0000       0.00000       A     3.39770e-01     4.50677e-01    ;  uncertainty sigma = 0.000014, epsilon = 0.000932
 s10bf                                 16      0.0000       0.00000       A     4.05866e-01     2.56573e-01    ;  uncertainty sigma = 0.000005, epsilon = 0.002612
 c11bf                                  6      0.0000       0.00000       A     3.31526e-01     4.13322e-01    ;  uncertainty sigma = 0.000007, epsilon = 0.000745
 c12bf                                  6      0.0000       0.00000       A     3.31523e-01     4.13371e-01    ;  uncertainty sigma = 0.000005, epsilon = 0.000423
 c13bf                                  6      0.0000       0.00000       A     3.31520e-01     4.13353e-01    ;  uncertainty sigma = 0.000004, epsilon = 0.000667
 c14bf                                  6      0.0000       0.00000       A     3.31533e-01     4.13284e-01    ;  uncertainty sigma = 0.000006, epsilon = 0.001098
 c15bf                                  6      0.0000       0.00000       A     3.31520e-01     4.13353e-01    ;  uncertainty sigma = 0.000004, epsilon = 0.000667
 c16bf                                  6      0.0000       0.00000       A     3.31523e-01     4.13371e-01    ;  uncertainty sigma = 0.000005, epsilon = 0.000423
 c17bf                                  6      0.0000       0.00000       A     3.31535e-01     4.13223e-01    ;  uncertainty sigma = 0.000005, epsilon = 0.000899
 c18bf                                  6      0.0000       0.00000       A     3.31521e-01     4.13333e-01    ;  uncertainty sigma = 0.000008, epsilon = 0.000598
 n19bf                                  7      0.0000       0.00000       A     3.20584e-01     8.54185e-01    ;  uncertainty sigma = 0.000011, epsilon = 0.001160
 n20bf                                  7      0.0000       0.00000       A     3.38434e-01     3.93690e-01    ;  uncertainty sigma = 0.000004, epsilon = 0.000785
 c21bf                                  6      0.0000       0.00000       A     3.31536e-01     4.13003e-01    ;  uncertainty sigma = 0.000006, epsilon = 0.000684
 c22bf                                  6      0.0000       0.00000       A     3.39777e-01     4.50912e-01    ;  uncertainty sigma = 0.000003, epsilon = 0.000595
 o23bf                                  8      0.0000       0.00000       A     3.04797e-01     6.12100e-01    ;  uncertainty sigma = 0.000019, epsilon = 0.001062
 o24bf                                  8      0.0000       0.00000       A     3.04797e-01     6.12100e-01    ;  uncertainty sigma = 0.000019, epsilon = 0.001062
 n25bf                                  7      0.0000       0.00000       A     3.50795e-01     2.16381e-01    ;  uncertainty sigma = 0.000066, epsilon = 0.005776
 c26bf                                  6      0.0000       0.00000       A     3.39716e-01     4.50710e-01    ;  uncertainty sigma = 0.000019, epsilon = 0.001642
 c27bf                                  6      0.0000       0.00000       A     3.39759e-01     4.50838e-01    ;  uncertainty sigma = 0.000013, epsilon = 0.000631
 c28bf                                  6      0.0000       0.00000       A     3.39759e-01     4.50838e-01    ;  uncertainty sigma = 0.000013, epsilon = 0.000631
 h29bf                                  1      0.0000       0.00000       A     2.62583e-01     6.70402e-02    ;  uncertainty sigma = 0.000022, epsilon = 0.000828
 h30bf                                  1      0.0000       0.00000       A     2.62568e-01     6.69487e-02    ;  uncertainty sigma = 0.000011, epsilon = 0.000498
 h31bf                                  1      0.0000       0.00000       A     2.62565e-01     6.72338e-02    ;  uncertainty sigma = 0.000016, epsilon = 0.000733
 h32bf                                  1      0.0000       0.00000       A     1.10648e-01     4.14022e-02    ;  uncertainty sigma = 0.000065, epsilon = 0.000771
 h33bf                                  1      0.0000       0.00000       A     2.60075e-01     8.67590e-02    ;  uncertainty sigma = 0.000029, epsilon = 0.000876
 h34bf                                  1      0.0000       0.00000       A     2.60075e-01     8.67590e-02    ;  uncertainty sigma = 0.000029, epsilon = 0.000876
 h35bf                                  1      0.0000       0.00000       A     2.62562e-01     6.71169e-02    ;  uncertainty sigma = 0.000007, epsilon = 0.000513
 h36bf                                  1      0.0000       0.00000       A     2.62566e-01     6.70543e-02    ;  uncertainty sigma = 0.000011, epsilon = 0.000444
 h37bf                                  1      0.0000       0.00000       A     2.62566e-01     6.70543e-02    ;  uncertainty sigma = 0.000011, epsilon = 0.000444
 h38bf                                  1      0.0000       0.00000       A     2.62562e-01     6.71171e-02    ;  uncertainty sigma = 0.000007, epsilon = 0.000513
 h39bf                                  1      0.0000       0.00000       A     2.53668e-01     6.70573e-02    ;  uncertainty sigma = 0.000029, epsilon = 0.000503
 h40bf                                  1      0.0000       0.00000       A     2.53681e-01     6.72123e-02    ;  uncertainty sigma = 0.000016, epsilon = 0.000497
 h41bf                                  1      0.0000       0.00000       A     2.42209e-01     8.68411e-02    ;  uncertainty sigma = 0.000019, epsilon = 0.000599
 h42bf                                  1      0.0000       0.00000       A     2.42209e-01     8.68411e-02    ;  uncertainty sigma = 0.000019, epsilon = 0.000599
 h43bf                                  1      0.0000       0.00000       A     2.42209e-01     8.68411e-02    ;  uncertainty sigma = 0.000019, epsilon = 0.000599
 h44bf                                  1      0.0000       0.00000       A     1.10505e-01     4.20274e-02    ;  uncertainty sigma = 0.000092, epsilon = 0.000854
 h45bf                                  1      0.0000       0.00000       A     2.42163e-01     8.76515e-02    ;  uncertainty sigma = 0.000091, epsilon = 0.001668
 h46bf                                  1      0.0000       0.00000       A     2.59996e-01     8.69839e-02    ;  uncertainty sigma = 0.000018, epsilon = 0.000788
 h47bf                                  1      0.0000       0.00000       A     2.59996e-01     8.69839e-02    ;  uncertainty sigma = 0.000018, epsilon = 0.000788
 h48bf                                  1      0.0000       0.00000       A     2.59996e-01     8.69841e-02    ;  uncertainty sigma = 0.000018, epsilon = 0.000788
 h49bf                                  1      0.0000       0.00000       A     2.59996e-01     8.69842e-02    ;  uncertainty sigma = 0.000018, epsilon = 0.000788

[ moleculetype ]
;name             nrexcl
 MOL                   3

[ atoms ]
;       nr            type      resi   res      atom      cgnr      charge          mass ; qtot
         1            c0bf         1   UNL        c0         1    -0.29436       12.0110 ; qtot   -0.294
         2            c1bf         1   UNL        c1         2     0.05966       12.0110 ; qtot   -0.235
         3            c2bf         1   UNL        c2         3    -0.16280       12.0110 ; qtot   -0.398
         4            c3bf         1   UNL        c3         4    -0.01220       12.0110 ; qtot   -0.410
         5            c4bf         1   UNL        c4         5     0.01460       12.0110 ; qtot   -0.395
         6            c5bf         1   UNL        c5         6    -0.24685       12.0110 ; qtot   -0.642
         7            c6bf         1   UNL        c6         7     0.37831       12.0110 ; qtot   -0.264
         8            n7bf         1   UNL        n7         8    -0.50529       14.0070 ; qtot   -0.769
         9            n8bf         1   UNL        n8         9    -0.03173       14.0070 ; qtot   -0.801
        10            c9bf         1   UNL        c9        10    -0.04605       12.0110 ; qtot   -0.847
        11           s10bf         1   UNL       s10        11     1.20846       32.0670 ; qtot    0.362
        12           c11bf         1   UNL       c11        12    -0.08175       12.0110 ; qtot    0.280
        13           c12bf         1   UNL       c12        13    -0.11939       12.0110 ; qtot    0.161
        14           c13bf         1   UNL       c13        14    -0.12732       12.0110 ; qtot    0.033
        15           c14bf         1   UNL       c14        15     0.00918       12.0110 ; qtot    0.042
        16           c15bf         1   UNL       c15        16    -0.12732       12.0110 ; qtot   -0.085
        17           c16bf         1   UNL       c16        17    -0.11939       12.0110 ; qtot   -0.204
        18           c17bf         1   UNL       c17        18    -0.22601       12.0110 ; qtot   -0.430
        19           c18bf         1   UNL       c18        19    -0.11441       12.0110 ; qtot   -0.545
        20           n19bf         1   UNL       n19        20     0.08671       14.0070 ; qtot   -0.458
        21           n20bf         1   UNL       n20        21    -0.52298       14.0070 ; qtot   -0.981
        22           c21bf         1   UNL       c21        22     0.31766       12.0110 ; qtot   -0.663
        23           c22bf         1   UNL       c22        23     0.04276       12.0110 ; qtot   -0.621
        24           o23bf         1   UNL       o23        24    -0.59697       15.9990 ; qtot   -1.217
        25           o24bf         1   UNL       o24        25    -0.59697       15.9990 ; qtot   -1.814
        26           n25bf         1   UNL       n25        26    -0.74496       14.0070 ; qtot   -2.559
        27           c26bf         1   UNL       c26        27     0.10943       12.0110 ; qtot   -2.450
        28           c27bf         1   UNL       c27        28    -0.12353       12.0110 ; qtot   -2.574
        29           c28bf         1   UNL       c28        29    -0.12353       12.0110 ; qtot   -2.697
        30           h29bf         1   UNL       h29        30     0.16648        1.0080 ; qtot   -2.531
        31           h30bf         1   UNL       h30        31     0.15077        1.0080 ; qtot   -2.380
        32           h31bf         1   UNL       h31        32     0.15981        1.0080 ; qtot   -2.220
        33           h32bf         1   UNL       h32        33     0.32635        1.0080 ; qtot   -1.894
        34           h33bf         1   UNL       h33        34     0.06335        1.0080 ; qtot   -1.830
        35           h34bf         1   UNL       h34        35     0.06335        1.0080 ; qtot   -1.767
        36           h35bf         1   UNL       h35        36     0.13610        1.0080 ; qtot   -1.631
        37           h36bf         1   UNL       h36        37     0.13384        1.0080 ; qtot   -1.497
        38           h37bf         1   UNL       h37        38     0.13384        1.0080 ; qtot   -1.363
        39           h38bf         1   UNL       h38        39     0.13610        1.0080 ; qtot   -1.227
        40           h39bf         1   UNL       h39        40     0.17330        1.0080 ; qtot   -1.054
        41           h40bf         1   UNL       h40        41     0.03867        1.0080 ; qtot   -1.015
        42           h41bf         1   UNL       h41        42     0.05820        1.0080 ; qtot   -0.957
        43           h42bf         1   UNL       h42        43     0.05820        1.0080 ; qtot   -0.899
        44           h43bf         1   UNL       h43        44     0.05820        1.0080 ; qtot   -0.840
        45           h44bf         1   UNL       h44        45     0.42103        1.0080 ; qtot   -0.419
        46           h45bf         1   UNL       h45        46     0.09318        1.0080 ; qtot   -0.326
        47           h46bf         1   UNL       h46        47     0.08156        1.0080 ; qtot   -0.245
        48           h47bf         1   UNL       h47        48     0.08156        1.0080 ; qtot   -0.163
        49           h48bf         1   UNL       h48        49     0.08156        1.0080 ; qtot   -0.082
        50           h49bf         1   UNL       h49        50     0.08159        1.0080 ; qtot   -0.000

[ bonds ]
;       ai        aj funct               r               k
         1         2     1        0.138684   354390.239404    ;  uncertainty r = 0.000139, k = 10.100335
         1         4     1        0.141536   340592.028467    ;  uncertainty r = 0.000067, k = 6.375416
         1        11     1        0.178626   154957.979443    ;  uncertainty r = 0.000262, k = 14.573309
         2         6     1        0.139783   364147.177246    ;  uncertainty r = 0.000047, k = 4.583799
         2        30     1        0.108595   329888.991797    ;  uncertainty r = 0.000027, k = 1.525085
         3         4     1        0.138393   365745.902441    ;  uncertainty r = 0.000034, k = 6.425057
         3         5     1        0.140308   357379.792187    ;  uncertainty r = 0.000072, k = 6.835836
         3        31     1        0.108803   335721.156836    ;  uncertainty r = 0.000017, k = 1.670131
         4        32     1        0.108540   329592.199512    ;  uncertainty r = 0.000022, k = 2.536676
         5         6     1        0.141938   400232.210889    ;  uncertainty r = 0.000092, k = 4.086004
         5         9     1        0.137186   298743.984277    ;  uncertainty r = 0.000065, k = 10.607268
         6         7     1        0.144266   227141.760156    ;  uncertainty r = 0.000148, k = 13.644577
         7         8     1        0.132738   463129.013184    ;  uncertainty r = 0.000098, k = 6.941489
         7        10     1        0.150153   236596.185400    ;  uncertainty r = 0.000068, k = 4.028015
         8         9     1        0.136819   297875.211816    ;  uncertainty r = 0.000034, k = 11.449749
         9        33     1        0.101020   416476.391699    ;  uncertainty r = 0.000031, k = 2.687214
        10        12     1        0.151795   233478.870459    ;  uncertainty r = 0.000063, k = 3.628626
        10        34     1        0.109648   308979.130029    ;  uncertainty r = 0.000023, k = 1.425937
        10        35     1        0.109648   308979.130029    ;  uncertainty r = 0.000023, k = 1.425937
        11        24     1        0.147244   541050.803613    ;  uncertainty r = 0.000075, k = 6.572955
        11        25     1        0.147244   541050.803613    ;  uncertainty r = 0.000075, k = 6.572955
        11        26     1        0.171181   173510.153125    ;  uncertainty r = 0.000301, k = 55.944500
        12        13     1        0.139794   355474.059863    ;  uncertainty r = 0.000028, k = 2.352255
        12        17     1        0.139794   355474.059863    ;  uncertainty r = 0.000028, k = 2.352255
        13        14     1        0.139338   362972.291455    ;  uncertainty r = 0.000020, k = 2.159620
        13        36     1        0.108902   333492.329004    ;  uncertainty r = 0.000022, k = 1.112447
        14        15     1        0.140253   353391.993799    ;  uncertainty r = 0.000028, k = 3.610471
        14        37     1        0.108868   334958.771973    ;  uncertainty r = 0.000030, k = 0.809215
        15        16     1        0.140253   353391.993799    ;  uncertainty r = 0.000028, k = 3.610472
        15        18     1        0.146652   274345.727832    ;  uncertainty r = 0.000041, k = 6.994044
        16        17     1        0.139338   362972.291455    ;  uncertainty r = 0.000020, k = 2.159629
        16        38     1        0.108868   334958.771973    ;  uncertainty r = 0.000030, k = 0.809239
        17        39     1        0.108902   333492.303467    ;  uncertainty r = 0.000022, k = 1.112442
        18        19     1        0.139092   414208.236719    ;  uncertainty r = 0.000013, k = 2.977949
        18        22     1        0.142427   245231.890918    ;  uncertainty r = 0.000028, k = 7.933802
        19        20     1        0.136086   293168.518262    ;  uncertainty r = 0.000038, k = 2.183978
        19        40     1        0.108275   339142.108008    ;  uncertainty r = 0.000029, k = 1.978626
        20        21     1        0.135372   281833.846729    ;  uncertainty r = 0.000063, k = 7.581417
        20        23     1        0.145228   253114.072949    ;  uncertainty r = 0.000011, k = 4.991527
        21        22     1        0.133356   453692.795898    ;  uncertainty r = 0.000038, k = 2.837549
        22        41     1        0.108433   337731.157178    ;  uncertainty r = 0.000017, k = 2.346797
        23        42     1        0.109330   311409.292432    ;  uncertainty r = 0.000011, k = 1.149464
        23        43     1        0.109330   311409.292432    ;  uncertainty r = 0.000011, k = 1.149464
        23        44     1        0.109330   311409.292432    ;  uncertainty r = 0.000011, k = 1.149464
        26        27     1        0.144718   242966.315186    ;  uncertainty r = 0.000107, k = 14.415528
        26        45     1        0.102455   458549.392285    ;  uncertainty r = 0.000059, k = 8.354046
        27        28     1        0.151159   202385.511743    ;  uncertainty r = 0.000046, k = 6.985538
        27        29     1        0.151159   202385.511743    ;  uncertainty r = 0.000046, k = 6.985538
        27        46     1        0.108705   312446.686426    ;  uncertainty r = 0.000062, k = 6.577904
        28        29     1        0.151422   216401.822363    ;  uncertainty r = 0.000074, k = 7.323249
        28        47     1        0.108615   314051.974658    ;  uncertainty r = 0.000016, k = 3.515710
        28        48     1        0.108615   314051.974658    ;  uncertainty r = 0.000016, k = 3.515710
        29        49     1        0.108615   314051.974658    ;  uncertainty r = 0.000016, k = 3.515714
        29        50     1        0.108615   314051.974658    ;  uncertainty r = 0.000016, k = 3.515714

[ angles ]
;       ai        aj        ak funct           theta             cth
         1         2         6     1      117.606041      525.294605    ;  uncertainty theta = 0.006572, k = 0.159490
         1         2        30     1      120.323532      264.081419    ;  uncertainty theta = 0.005928, k = 0.167981
         1         4         3     1      122.293922      497.533565    ;  uncertainty theta = 0.003277, k = 0.085187
         1         4        32     1      118.933739      266.561838    ;  uncertainty theta = 0.003394, k = 0.051075
         1        11        24     1      113.907730      628.367135    ;  uncertainty theta = 0.003195, k = 0.079442
         1        11        25     1      113.907730      628.367135    ;  uncertainty theta = 0.003195, k = 0.079442
         1        11        26     1      104.029503      708.115761    ;  uncertainty theta = 0.004299, k = 0.141462
         2         1         4     1      125.521950      443.295106    ;  uncertainty theta = 0.005548, k = 0.105346
         2         1        11     1      116.856544      334.320536    ;  uncertainty theta = 0.006782, k = 0.247848
         2         6         5     1      118.034409      405.515922    ;  uncertainty theta = 0.005580, k = 0.207650
         2         6         7     1      130.442902      341.963633    ;  uncertainty theta = 0.004320, k = 0.212877
         3         4        32     1      119.725441      280.656822    ;  uncertainty theta = 0.003816, k = 0.089168
         3         5         6     1      120.733826      385.799518    ;  uncertainty theta = 0.006339, k = 0.095817
         3         5         9     1      129.889267      398.715038    ;  uncertainty theta = 0.003155, k = 0.062532
         4         1        11     1      116.739136      352.396276    ;  uncertainty theta = 0.007638, k = 0.104021
         4         3         5     1      116.728577      515.165406    ;  uncertainty theta = 0.002266, k = 0.108550
         4         3        31     1      120.925186      279.352387    ;  uncertainty theta = 0.000807, k = 0.047987
         5         3        31     1      122.753136      290.561933    ;  uncertainty theta = 0.001894, k = 0.131968
         5         6         7     1      104.206261      707.663881    ;  uncertainty theta = 0.005232, k = 0.129898
         5         9         8     1      108.835854      996.696141    ;  uncertainty theta = 0.003838, k = 0.119897
         5         9        33     1      115.980553      285.170985    ;  uncertainty theta = 0.007860, k = 0.042838
         6         2        30     1      122.151222      285.581015    ;  uncertainty theta = 0.007693, k = 0.073367
         6         5         9     1      105.264748      703.400716    ;  uncertainty theta = 0.002531, k = 0.063294
         6         7         8     1      112.543358      860.260240    ;  uncertainty theta = 0.002405, k = 0.111457
         6         7        10     1      127.146408      338.973046    ;  uncertainty theta = 0.004631, k = 0.200556
         7         8         9     1      109.364769      912.055435    ;  uncertainty theta = 0.003373, k = 0.137416
         7        10        12     1      111.355850      539.068077    ;  uncertainty theta = 0.002753, k = 0.064231
         7        10        34     1      107.120422      403.679740    ;  uncertainty theta = 0.002758, k = 0.096683
         7        10        35     1      107.120422      403.679740    ;  uncertainty theta = 0.002758, k = 0.096683
         8         7        10     1      121.680969      407.198594    ;  uncertainty theta = 0.004608, k = 0.108160
         8         9        33     1      108.270935      348.057521    ;  uncertainty theta = 0.007607, k = 0.026261
        10        12        13     1      121.045166      422.581127    ;  uncertainty theta = 0.002275, k = 0.038270
        10        12        17     1      121.045166      422.581127    ;  uncertainty theta = 0.002275, k = 0.038270
        11        26        27     1      108.878784      437.992900    ;  uncertainty theta = 0.006457, k = 0.206046
        11        26        45     1      110.048195      431.734361    ;  uncertainty theta = 0.002845, k = 0.141233
        12        10        34     1      107.837601      399.901237    ;  uncertainty theta = 0.002249, k = 0.057837
        12        10        35     1      107.837601      399.901237    ;  uncertainty theta = 0.002249, k = 0.057837
        12        13        14     1      121.318886      514.235568    ;  uncertainty theta = 0.001778, k = 0.059752
        12        13        36     1      119.166016      270.523857    ;  uncertainty theta = 0.002269, k = 0.008290
        12        17        16     1      121.318886      514.235568    ;  uncertainty theta = 0.001778, k = 0.059752
        12        17        39     1      119.166000      270.523857    ;  uncertainty theta = 0.002269, k = 0.008290
        13        12        17     1      118.819534      462.266433    ;  uncertainty theta = 0.001838, k = 0.080865
        13        14        15     1      121.217484      515.997661    ;  uncertainty theta = 0.001896, k = 0.077715
        13        14        37     1      119.997902      290.785989    ;  uncertainty theta = 0.002435, k = 0.029685
        14        13        36     1      119.867722      290.821262    ;  uncertainty theta = 0.002696, k = 0.045566
        14        15        16     1      118.904152      401.449329    ;  uncertainty theta = 0.000792, k = 0.077724
        14        15        18     1      121.709091      440.254499    ;  uncertainty theta = 0.000934, k = 0.108366
        15        14        37     1      119.095055      282.559209    ;  uncertainty theta = 0.001574, k = 0.076416
        15        16        17     1      121.217484      515.997661    ;  uncertainty theta = 0.001896, k = 0.077715
        15        16        38     1      119.095055      282.559209    ;  uncertainty theta = 0.001574, k = 0.076416
        15        18        19     1      127.697556      343.157780    ;  uncertainty theta = 0.004353, k = 0.177775
        15        18        22     1      126.731285      348.545089    ;  uncertainty theta = 0.003995, k = 0.207077
        16        15        18     1      121.709091      440.254499    ;  uncertainty theta = 0.000934, k = 0.108366
        16        17        39     1      119.867722      290.821262    ;  uncertainty theta = 0.002696, k = 0.045566
        17        16        38     1      119.997902      290.785989    ;  uncertainty theta = 0.002435, k = 0.029686
        18        19        20     1      107.786392      728.617782    ;  uncertainty theta = 0.002722, k = 0.171005
        18        19        40     1      129.337921      225.112173    ;  uncertainty theta = 0.003840, k = 0.127302
        18        22        21     1      112.792480      868.770035    ;  uncertainty theta = 0.004151, k = 0.098178
        18        22        41     1      126.058434      240.089592    ;  uncertainty theta = 0.003930, k = 0.061937
        19        18        22     1      104.376785      682.871562    ;  uncertainty theta = 0.005377, k = 0.161868
        19        20        21     1      109.875755      985.972854    ;  uncertainty theta = 0.001972, k = 0.104814
        19        20        23     1      122.678429      402.059474    ;  uncertainty theta = 0.001716, k = 0.122019
        20        19        40     1      118.090332      269.140033    ;  uncertainty theta = 0.002835, k = 0.151929
        20        21        22     1      106.284317      901.234341    ;  uncertainty theta = 0.001454, k = 0.058730
        20        23        42     1      108.689758      466.172430    ;  uncertainty theta = 0.001193, k = 0.023318
        20        23        43     1      108.689758      466.172430    ;  uncertainty theta = 0.001193, k = 0.023318
        20        23        44     1      108.689758      466.172430    ;  uncertainty theta = 0.001193, k = 0.023318
        21        20        23     1      116.723465      468.949431    ;  uncertainty theta = 0.002619, k = 0.085339
        21        22        41     1      118.687271      285.500605    ;  uncertainty theta = 0.004102, k = 0.050181
        24        11        25     1      124.359375      794.027385    ;  uncertainty theta = 0.002580, k = 0.060801
        24        11        26     1      113.852394      800.612065    ;  uncertainty theta = 0.004410, k = 0.074877
        25        11        26     1      113.852394      800.612065    ;  uncertainty theta = 0.004410, k = 0.074877
        26        27        28     1      111.538658      355.196740    ;  uncertainty theta = 0.007502, k = 0.343774
        26        27        29     1      111.538658      355.196740    ;  uncertainty theta = 0.007502, k = 0.343774
        26        27        46     1      116.110458      286.580474    ;  uncertainty theta = 0.008781, k = 0.490527
        27        26        45     1      109.158043      380.525307    ;  uncertainty theta = 0.004479, k = 0.110172
        27        28        29     1       59.519543      167.360000    ;  uncertainty theta = 0.020753, k = 0.000000
        27        28        47     1      108.372604      217.837113    ;  uncertainty theta = 0.003155, k = 0.204286
        27        28        48     1      108.372604      217.837113    ;  uncertainty theta = 0.003155, k = 0.204286
        27        29        28     1       59.519543      167.360000    ;  uncertainty theta = 0.020753, k = 0.000000
        27        29        49     1      108.372604      217.837113    ;  uncertainty theta = 0.003155, k = 0.204286
        27        29        50     1      108.372604      217.837113    ;  uncertainty theta = 0.003155, k = 0.204286
        28        27        29     1       59.128670      167.360000    ;  uncertainty theta = 0.022970, k = 0.000000
        28        27        46     1      109.824730      172.490533    ;  uncertainty theta = 0.010432, k = 0.278274
        28        29        49     1      109.811600      213.652778    ;  uncertainty theta = 0.003286, k = 0.209802
        28        29        50     1      109.811600      213.652778    ;  uncertainty theta = 0.003286, k = 0.209802
        29        27        46     1      109.824730      172.490533    ;  uncertainty theta = 0.010432, k = 0.278274
        29        28        47     1      109.811600      213.652778    ;  uncertainty theta = 0.003286, k = 0.209802
        29        28        48     1      109.811600      213.652778    ;  uncertainty theta = 0.003286, k = 0.209802
        34        10        35     1      104.257248      312.827994    ;  uncertainty theta = 0.003792, k = 0.040478
        42        23        43     1      107.724472      320.089279    ;  uncertainty theta = 0.001790, k = 0.014894
        42        23        44     1      107.724472      320.089279    ;  uncertainty theta = 0.001790, k = 0.014894
        43        23        44     1      107.724472      320.089279    ;  uncertainty theta = 0.001790, k = 0.014894
        47        28        48     1      114.545448      201.148501    ;  uncertainty theta = 0.002762, k = 0.078066
        49        29        50     1      114.545448      201.148501    ;  uncertainty theta = 0.002762, k = 0.078065

[ dihedrals ] ; propers for gromacs 4.5 or higher, use funct 9
;       ai        aj        ak        al funct           phase               k        pn
         1         2         6         5     9        0.000000       -0.068585         1    ;  uncertainty k = 0.434615
         1         2         6         5     9      180.000000       13.555267         2    ;  uncertainty k = 0.177945
         1         2         6         5     9        0.000000       -1.635391         3    ;  uncertainty k = 0.517387
         1         2         6         5     9      180.000000        0.742949         4    ;  uncertainty k = 0.230900
         1         2         6         7     9        0.000000        0.142719         1    ;  uncertainty k = 0.287396
         1         2         6         7     9      180.000000        9.355457         2    ;  uncertainty k = 0.571612
         1         2         6         7     9        0.000000        0.297371         3    ;  uncertainty k = 0.363676
         1         2         6         7     9      180.000000        1.113603         4    ;  uncertainty k = 0.224736
         1         4         3         5     9        0.000000        0.004417         1    ;  uncertainty k = 0.324131
         1         4         3         5     9      180.000000       16.619396         2    ;  uncertainty k = 0.177580
         1         4         3         5     9        0.000000       -0.085985         3    ;  uncertainty k = 0.557816
         1         4         3         5     9      180.000000        0.605530         4    ;  uncertainty k = 0.267162
         1         4         3        31     9        0.000000       -0.065898         1    ;  uncertainty k = 0.354824
         1         4         3        31     9      180.000000        9.691543         2    ;  uncertainty k = 0.587633
         1         4         3        31     9        0.000000        1.331308         3    ;  uncertainty k = 0.250858
         1         4         3        31     9      180.000000        1.666541         4    ;  uncertainty k = 0.201168
         1        11        26        27     9        0.000000       -5.469856         1    ;  uncertainty k = 0.733420
         1        11        26        27     9      180.000000       -3.760480         2    ;  uncertainty k = 0.759072
         1        11        26        27     9        0.000000        2.780429         3    ;  uncertainty k = 0.635289
         1        11        26        27     9      180.000000        0.318944         4    ;  uncertainty k = 0.198849
         1        11        26        45     9        0.000000       -0.417773         1    ;  uncertainty k = 0.649242
         1        11        26        45     9      180.000000       -5.004381         2    ;  uncertainty k = 0.385238
         1        11        26        45     9        0.000000       -0.708035         3    ;  uncertainty k = 0.224956
         1        11        26        45     9      180.000000       -0.134123         4    ;  uncertainty k = 0.253956
         2         1         4         3     9        0.000000        0.012108         1    ;  uncertainty k = 0.287850
         2         1         4         3     9      180.000000        9.032680         2    ;  uncertainty k = 0.519132
         2         1         4         3     9        0.000000       -0.217070         3    ;  uncertainty k = 0.441877
         2         1         4         3     9      180.000000        1.115566         4    ;  uncertainty k = 0.379033
         2         1         4        32     9        0.000000        0.168050         1    ;  uncertainty k = 0.271661
         2         1         4        32     9      180.000000        5.991571         2    ;  uncertainty k = 0.754379
         2         1         4        32     9        0.000000        1.159292         3    ;  uncertainty k = 0.191354
         2         1         4        32     9      180.000000        1.428602         4    ;  uncertainty k = 0.196522
         2         1        11        24     9        0.000000       -0.259144         1    ;  uncertainty k = 0.906646
         2         1        11        24     9      180.000000        1.773217         2    ;  uncertainty k = 0.234560
         2         1        11        24     9        0.000000        0.583928         3    ;  uncertainty k = 0.121005
         2         1        11        24     9      180.000000       -0.025731         4    ;  uncertainty k = 0.101404
         2         1        11        25     9        0.000000       -0.259144         1    ;  uncertainty k = 0.906646
         2         1        11        25     9      180.000000        1.773217         2    ;  uncertainty k = 0.234560
         2         1        11        25     9        0.000000        0.583928         3    ;  uncertainty k = 0.121005
         2         1        11        25     9      180.000000       -0.025731         4    ;  uncertainty k = 0.101404
         2         1        11        26     9        0.000000        2.022067         1    ;  uncertainty k = 0.757096
         2         1        11        26     9      180.000000        1.558350         2    ;  uncertainty k = 0.244465
         2         1        11        26     9        0.000000        0.621408         3    ;  uncertainty k = 0.197331
         2         1        11        26     9      180.000000        0.012554         4    ;  uncertainty k = 0.161092
         2         6         5         3     9        0.000000       -0.450527         1    ;  uncertainty k = 0.562144
         2         6         5         3     9      180.000000        7.229415         2    ;  uncertainty k = 0.568203
         2         6         5         3     9        0.000000        0.336747         3    ;  uncertainty k = 0.144872
         2         6         5         3     9      180.000000        0.900662         4    ;  uncertainty k = 0.399955
         2         6         5         9     9        0.000000       -0.015459         1    ;  uncertainty k = 0.705727
         2         6         5         9     9      180.000000        8.367475         2    ;  uncertainty k = 0.429806
         2         6         5         9     9        0.000000        0.039829         3    ;  uncertainty k = 0.315392
         2         6         5         9     9      180.000000        1.129935         4    ;  uncertainty k = 0.330369
         2         6         7         8     9        0.000000        1.132074         1    ;  uncertainty k = 0.257924
         2         6         7         8     9      180.000000        6.297265         2    ;  uncertainty k = 0.341443
         2         6         7         8     9        0.000000        0.242945         3    ;  uncertainty k = 0.827098
         2         6         7         8     9      180.000000        0.845113         4    ;  uncertainty k = 0.069797
         2         6         7        10     9        0.000000       -1.112479         1    ;  uncertainty k = 0.860533
         2         6         7        10     9      180.000000        3.803329         2    ;  uncertainty k = 0.734309
         2         6         7        10     9        0.000000        1.240663         3    ;  uncertainty k = 0.201973
         2         6         7        10     9      180.000000        0.091414         4    ;  uncertainty k = 0.239553
         3         4         1        11     9        0.000000        0.422121         1    ;  uncertainty k = 0.334468
         3         4         1        11     9      180.000000        8.480979         2    ;  uncertainty k = 0.792486
         3         4         1        11     9        0.000000        1.345580         3    ;  uncertainty k = 0.151774
         3         4         1        11     9      180.000000        1.647579         4    ;  uncertainty k = 0.137990
         3         5         6         7     9        0.000000       -0.043530         1    ;  uncertainty k = 0.506677
         3         5         6         7     9      180.000000        6.841731         2    ;  uncertainty k = 0.267817
         3         5         6         7     9        0.000000        0.242132         3    ;  uncertainty k = 0.392030
         3         5         6         7     9      180.000000        1.299747         4    ;  uncertainty k = 0.263418
         3         5         9         8     9        0.000000        0.786107         1    ;  uncertainty k = 1.176551
         3         5         9         8     9      180.000000        7.180821         2    ;  uncertainty k = 0.503856
         3         5         9         8     9        0.000000        0.572850         3    ;  uncertainty k = 0.680608
         3         5         9         8     9      180.000000        0.327608         4    ;  uncertainty k = 0.190061
         3         5         9        33     9        0.000000        1.602892         1    ;  uncertainty k = 0.994403
         3         5         9        33     9      180.000000        2.144605         2    ;  uncertainty k = 0.430700
         3         5         9        33     9        0.000000        1.361217         3    ;  uncertainty k = 0.548514
         3         5         9        33     9      180.000000        0.031034         4    ;  uncertainty k = 0.136964
         4         1         2         6     9        0.000000       -0.144871         1    ;  uncertainty k = 0.304457
         4         1         2         6     9      180.000000       12.579711         2    ;  uncertainty k = 0.275428
         4         1         2         6     9        0.000000       -0.142907         3    ;  uncertainty k = 0.544270
         4         1         2         6     9      180.000000        0.925402         4    ;  uncertainty k = 0.339000
         4         1         2        30     9        0.000000        0.292315         1    ;  uncertainty k = 0.263589
         4         1         2        30     9      180.000000        7.252241         2    ;  uncertainty k = 0.469555
         4         1         2        30     9        0.000000        1.373264         3    ;  uncertainty k = 0.374418
         4         1         2        30     9      180.000000        1.612571         4    ;  uncertainty k = 0.252194
         4         1        11        24     9        0.000000       -0.722270         1    ;  uncertainty k = 0.866474
         4         1        11        24     9      180.000000        1.925988         2    ;  uncertainty k = 0.123883
         4         1        11        24     9        0.000000        0.900294         3    ;  uncertainty k = 0.072577
         4         1        11        24     9      180.000000       -0.059963         4    ;  uncertainty k = 0.065643
         4         1        11        25     9        0.000000       -0.722270         1    ;  uncertainty k = 0.866474
         4         1        11        25     9      180.000000        1.925988         2    ;  uncertainty k = 0.123883
         4         1        11        25     9        0.000000        0.900294         3    ;  uncertainty k = 0.072577
         4         1        11        25     9      180.000000       -0.059963         4    ;  uncertainty k = 0.065643
         4         1        11        26     9        0.000000        2.054068         1    ;  uncertainty k = 1.012041
         4         1        11        26     9      180.000000        1.861293         2    ;  uncertainty k = 0.211263
         4         1        11        26     9        0.000000        0.970011         3    ;  uncertainty k = 0.321704
         4         1        11        26     9      180.000000       -0.029411         4    ;  uncertainty k = 0.047501
         4         3         5         6     9        0.000000       -0.242943         1    ;  uncertainty k = 0.310191
         4         3         5         6     9      180.000000       11.866410         2    ;  uncertainty k = 0.151181
         4         3         5         6     9        0.000000       -1.315471         3    ;  uncertainty k = 0.426690
         4         3         5         6     9      180.000000        0.813205         4    ;  uncertainty k = 0.163560
         4         3         5         9     9        0.000000        0.079836         1    ;  uncertainty k = 0.444076
         4         3         5         9     9      180.000000        9.962244         2    ;  uncertainty k = 0.467618
         4         3         5         9     9        0.000000        0.763487         3    ;  uncertainty k = 0.224460
         4         3         5         9     9      180.000000        1.112050         4    ;  uncertainty k = 0.293046
         5         3         4        32     9        0.000000       -0.049266         1    ;  uncertainty k = 0.302275
         5         3         4        32     9      180.000000       11.357515         2    ;  uncertainty k = 0.313771
         5         3         4        32     9        0.000000        1.452439         3    ;  uncertainty k = 0.211883
         5         3         4        32     9      180.000000        1.481052         4    ;  uncertainty k = 0.160291
         5         6         2        30     9        0.000000        0.078464         1    ;  uncertainty k = 0.339995
         5         6         2        30     9      180.000000        7.912767         2    ;  uncertainty k = 1.041503
         5         6         2        30     9        0.000000        1.315738         3    ;  uncertainty k = 0.327190
         5         6         2        30     9      180.000000        1.065119         4    ;  uncertainty k = 0.478503
         5         6         7         8     9        0.000000        0.476137         1    ;  uncertainty k = 0.543342
         5         6         7         8     9      180.000000       12.970670         2    ;  uncertainty k = 1.280341
         5         6         7         8     9        0.000000      -10.986330         3    ;  uncertainty k = 2.049754
         5         6         7         8     9      180.000000        2.149929         4    ;  uncertainty k = 0.608425
         5         6         7        10     9        0.000000        1.165354         1    ;  uncertainty k = 0.924179
         5         6         7        10     9      180.000000        8.354571         2    ;  uncertainty k = 0.580284
         5         6         7        10     9        0.000000        1.896700         3    ;  uncertainty k = 0.857839
         5         6         7        10     9      180.000000        0.294876         4    ;  uncertainty k = 0.313716
         5         9         8         7     9        0.000000       -0.700046         1    ;  uncertainty k = 0.917773
         5         9         8         7     9      180.000000       16.996149         2    ;  uncertainty k = 0.591275
         5         9         8         7     9        0.000000       -4.718708         3    ;  uncertainty k = 1.041994
         5         9         8         7     9      180.000000        1.062173         4    ;  uncertainty k = 0.516509
         6         2         1        11     9        0.000000        0.328823         1    ;  uncertainty k = 0.485995
         6         2         1        11     9      180.000000       10.776287         2    ;  uncertainty k = 0.749482
         6         2         1        11     9        0.000000        1.602520         3    ;  uncertainty k = 0.318058
         6         2         1        11     9      180.000000        1.658895         4    ;  uncertainty k = 0.391521
         6         5         3        31     9        0.000000       -0.095900         1    ;  uncertainty k = 0.382356
         6         5         3        31     9      180.000000        6.800467         2    ;  uncertainty k = 1.143985
         6         5         3        31     9        0.000000        1.285218         3    ;  uncertainty k = 0.143543
         6         5         3        31     9      180.000000        1.020856         4    ;  uncertainty k = 0.504484
         6         5         9         8     9        0.000000        0.254139         1    ;  uncertainty k = 0.517877
         6         5         9         8     9      180.000000       17.666764         2    ;  uncertainty k = 1.014066
         6         5         9         8     9        0.000000       -8.651082         3    ;  uncertainty k = 1.693173
         6         5         9         8     9      180.000000        0.804755         4    ;  uncertainty k = 0.526106
         6         5         9        33     9        0.000000        4.095596         1    ;  uncertainty k = 2.456733
         6         5         9        33     9      180.000000        6.453855         2    ;  uncertainty k = 1.334318
         6         5         9        33     9        0.000000        1.445511         3    ;  uncertainty k = 0.321571
         6         5         9        33     9      180.000000       -0.032318         4    ;  uncertainty k = 0.135675
         6         7         8         9     9        0.000000       -0.448667         1    ;  uncertainty k = 0.644681
         6         7         8         9     9      180.000000       25.075766         2    ;  uncertainty k = 0.256000
         6         7         8         9     9        0.000000       -4.269727         3    ;  uncertainty k = 1.016779
         6         7         8         9     9      180.000000        1.982258         4    ;  uncertainty k = 0.291639
         6         7        10        12     9        0.000000       -0.155674         1    ;  uncertainty k = 0.599127
         6         7        10        12     9      180.000000        1.049381         2    ;  uncertainty k = 0.463402
         6         7        10        12     9        0.000000        0.977805         3    ;  uncertainty k = 0.159070
         6         7        10        12     9      180.000000        0.173873         4    ;  uncertainty k = 0.102543
         6         7        10        34     9        0.000000       -1.174971         1    ;  uncertainty k = 0.359417
         6         7        10        34     9      180.000000        1.809720         2    ;  uncertainty k = 0.521479
         6         7        10        34     9        0.000000        0.854211         3    ;  uncertainty k = 0.197349
         6         7        10        34     9      180.000000        0.105984         4    ;  uncertainty k = 0.071441
         6         7        10        35     9        0.000000       -1.174971         1    ;  uncertainty k = 0.359417
         6         7        10        35     9      180.000000        1.809720         2    ;  uncertainty k = 0.521479
         6         7        10        35     9        0.000000        0.854211         3    ;  uncertainty k = 0.197349
         6         7        10        35     9      180.000000        0.105984         4    ;  uncertainty k = 0.071441
         7         6         2        30     9        0.000000       -0.027171         1    ;  uncertainty k = 0.354610
         7         6         2        30     9      180.000000        5.659478         2    ;  uncertainty k = 0.859738
         7         6         2        30     9        0.000000        1.139283         3    ;  uncertainty k = 0.220418
         7         6         2        30     9      180.000000        0.611022         4    ;  uncertainty k = 0.314760
         7         6         5         9     9        0.000000       -0.340185         1    ;  uncertainty k = 0.288394
         7         6         5         9     9      180.000000       12.118174         2    ;  uncertainty k = 0.685295
         7         6         5         9     9        0.000000       -3.605158         3    ;  uncertainty k = 1.563089
         7         6         5         9     9      180.000000        1.603047         4    ;  uncertainty k = 0.630414
         7         8         9        33     9        0.000000        4.010280         1    ;  uncertainty k = 2.388349
         7         8         9        33     9      180.000000       13.131061         2    ;  uncertainty k = 0.138321
         7         8         9        33     9        0.000000        1.660961         3    ;  uncertainty k = 1.065942
         7         8         9        33     9      180.000000       -0.458512         4    ;  uncertainty k = 0.239344
         7        10        12        13     9        0.000000        0.580178         1    ;  uncertainty k = 0.152566
         7        10        12        13     9      180.000000        1.847120         2    ;  uncertainty k = 0.196793
         7        10        12        13     9        0.000000        0.532808         3    ;  uncertainty k = 0.175602
         7        10        12        13     9      180.000000        0.237757         4    ;  uncertainty k = 0.066229
         7        10        12        17     9        0.000000        0.580178         1    ;  uncertainty k = 0.152566
         7        10        12        17     9      180.000000        1.847120         2    ;  uncertainty k = 0.196793
         7        10        12        17     9        0.000000        0.532808         3    ;  uncertainty k = 0.175602
         7        10        12        17     9      180.000000        0.237757         4    ;  uncertainty k = 0.066229
         8         7        10        12     9        0.000000        1.033546         1    ;  uncertainty k = 0.373544
         8         7        10        12     9      180.000000        1.572963         2    ;  uncertainty k = 0.311349
         8         7        10        12     9        0.000000        0.019495         3    ;  uncertainty k = 0.162338
         8         7        10        12     9      180.000000        0.138235         4    ;  uncertainty k = 0.098739
         8         7        10        34     9        0.000000        1.762605         1    ;  uncertainty k = 0.095749
         8         7        10        34     9      180.000000        2.218930         2    ;  uncertainty k = 0.255583
         8         7        10        34     9        0.000000        0.163665         3    ;  uncertainty k = 0.090085
         8         7        10        34     9      180.000000        0.112100         4    ;  uncertainty k = 0.048616
         8         7        10        35     9        0.000000        1.762605         1    ;  uncertainty k = 0.095749
         8         7        10        35     9      180.000000        2.218930         2    ;  uncertainty k = 0.255583
         8         7        10        35     9        0.000000        0.163665         3    ;  uncertainty k = 0.090085
         8         7        10        35     9      180.000000        0.112100         4    ;  uncertainty k = 0.048616
         9         5         3        31     9        0.000000        0.485239         1    ;  uncertainty k = 0.368756
         9         5         3        31     9      180.000000        5.658502         2    ;  uncertainty k = 0.651443
         9         5         3        31     9        0.000000        1.127807         3    ;  uncertainty k = 0.148716
         9         5         3        31     9      180.000000        0.703363         4    ;  uncertainty k = 0.341380
         9         8         7        10     9        0.000000       -0.550134         1    ;  uncertainty k = 0.839630
         9         8         7        10     9      180.000000       25.073555         2    ;  uncertainty k = 0.176513
         9         8         7        10     9        0.000000        2.407354         3    ;  uncertainty k = 0.623815
         9         8         7        10     9      180.000000        1.113573         4    ;  uncertainty k = 0.280162
        10        12        13        14     9        0.000000        0.169204         1    ;  uncertainty k = 0.242807
        10        12        13        14     9      180.000000        8.593729         2    ;  uncertainty k = 0.401443
        10        12        13        14     9        0.000000        1.459163         3    ;  uncertainty k = 0.363057
        10        12        13        14     9      180.000000        1.890470         4    ;  uncertainty k = 0.111180
        10        12        13        36     9        0.000000       -0.145242         1    ;  uncertainty k = 0.181744
        10        12        13        36     9      180.000000        7.615666         2    ;  uncertainty k = 0.278473
        10        12        13        36     9        0.000000        0.580734         3    ;  uncertainty k = 0.342497
        10        12        13        36     9      180.000000        0.989521         4    ;  uncertainty k = 0.234579
        10        12        17        16     9        0.000000        0.169204         1    ;  uncertainty k = 0.242807
        10        12        17        16     9      180.000000        8.593729         2    ;  uncertainty k = 0.401443
        10        12        17        16     9        0.000000        1.459163         3    ;  uncertainty k = 0.363057
        10        12        17        16     9      180.000000        1.890470         4    ;  uncertainty k = 0.111180
        10        12        17        39     9        0.000000       -0.145243         1    ;  uncertainty k = 0.181743
        10        12        17        39     9      180.000000        7.615666         2    ;  uncertainty k = 0.278472
        10        12        17        39     9        0.000000        0.580734         3    ;  uncertainty k = 0.342497
        10        12        17        39     9      180.000000        0.989521         4    ;  uncertainty k = 0.234579
        11         1         2        30     9        0.000000       -0.092322         1    ;  uncertainty k = 0.525195
        11         1         2        30     9      180.000000        7.220803         2    ;  uncertainty k = 0.567985
        11         1         2        30     9        0.000000        0.933436         3    ;  uncertainty k = 0.206430
        11         1         2        30     9      180.000000        1.117155         4    ;  uncertainty k = 0.188535
        11         1         4        32     9        0.000000       -0.469232         1    ;  uncertainty k = 0.555883
        11         1         4        32     9      180.000000        6.344630         2    ;  uncertainty k = 0.611875
        11         1         4        32     9        0.000000        0.703829         3    ;  uncertainty k = 0.208264
        11         1         4        32     9      180.000000        0.928057         4    ;  uncertainty k = 0.147268
        11        26        27        28     9        0.000000       -4.541430         1    ;  uncertainty k = 1.055102
        11        26        27        28     9      180.000000       -2.318586         2    ;  uncertainty k = 0.820899
        11        26        27        28     9        0.000000        0.859310         3    ;  uncertainty k = 0.198985
        11        26        27        28     9      180.000000        0.052531         4    ;  uncertainty k = 0.208816
        11        26        27        29     9        0.000000       -4.541430         1    ;  uncertainty k = 1.055102
        11        26        27        29     9      180.000000       -2.318586         2    ;  uncertainty k = 0.820899
        11        26        27        29     9        0.000000        0.859310         3    ;  uncertainty k = 0.198985
        11        26        27        29     9      180.000000        0.052531         4    ;  uncertainty k = 0.208816
        11        26        27        46     9        0.000000        5.058416         1    ;  uncertainty k = 1.208484
        11        26        27        46     9      180.000000       -4.074853         2    ;  uncertainty k = 1.160184
        11        26        27        46     9        0.000000        0.764266         3    ;  uncertainty k = 0.310373
        11        26        27        46     9      180.000000       -0.008180         4    ;  uncertainty k = 0.068993
        12        13        14        15     9        0.000000       -0.087057         1    ;  uncertainty k = 0.154901
        12        13        14        15     9      180.000000       13.600436         2    ;  uncertainty k = 0.230971
        12        13        14        15     9        0.000000       -0.751784         3    ;  uncertainty k = 0.436421
        12        13        14        15     9      180.000000        0.777514         4    ;  uncertainty k = 0.245178
        12        13        14        37     9        0.000000        0.010829         1    ;  uncertainty k = 0.163132
        12        13        14        37     9      180.000000        7.805433         2    ;  uncertainty k = 0.422071
        12        13        14        37     9        0.000000        1.391790         3    ;  uncertainty k = 0.234314
        12        13        14        37     9      180.000000        1.880931         4    ;  uncertainty k = 0.189420
        12        17        16        15     9        0.000000       -0.087057         1    ;  uncertainty k = 0.154901
        12        17        16        15     9      180.000000       13.600436         2    ;  uncertainty k = 0.230971
        12        17        16        15     9        0.000000       -0.751784         3    ;  uncertainty k = 0.436421
        12        17        16        15     9      180.000000        0.777514         4    ;  uncertainty k = 0.245178
        12        17        16        38     9        0.000000        0.010829         1    ;  uncertainty k = 0.163132
        12        17        16        38     9      180.000000        7.805433         2    ;  uncertainty k = 0.422071
        12        17        16        38     9        0.000000        1.391790         3    ;  uncertainty k = 0.234314
        12        17        16        38     9      180.000000        1.880931         4    ;  uncertainty k = 0.189420
        13        12        10        34     9        0.000000       -0.300138         1    ;  uncertainty k = 0.153189
        13        12        10        34     9      180.000000        1.928373         2    ;  uncertainty k = 0.130920
        13        12        10        34     9        0.000000        0.360376         3    ;  uncertainty k = 0.118491
        13        12        10        34     9      180.000000        0.117080         4    ;  uncertainty k = 0.032968
        13        12        10        35     9        0.000000       -0.300138         1    ;  uncertainty k = 0.153189
        13        12        10        35     9      180.000000        1.928373         2    ;  uncertainty k = 0.130920
        13        12        10        35     9        0.000000        0.360376         3    ;  uncertainty k = 0.118491
        13        12        10        35     9      180.000000        0.117080         4    ;  uncertainty k = 0.032968
        13        12        17        16     9        0.000000       -0.141019         1    ;  uncertainty k = 0.190132
        13        12        17        16     9      180.000000       11.565169         2    ;  uncertainty k = 0.450751
        13        12        17        16     9        0.000000       -0.482803         3    ;  uncertainty k = 0.323947
        13        12        17        16     9      180.000000        0.820385         4    ;  uncertainty k = 0.428180
        13        12        17        39     9        0.000000        0.161510         1    ;  uncertainty k = 0.189284
        13        12        17        39     9      180.000000        7.143526         2    ;  uncertainty k = 0.548274
        13        12        17        39     9        0.000000        1.383620         3    ;  uncertainty k = 0.306740
        13        12        17        39     9      180.000000        1.646182         4    ;  uncertainty k = 0.144811
        13        14        15        16     9        0.000000        0.099530         1    ;  uncertainty k = 0.198850
        13        14        15        16     9      180.000000       10.864272         2    ;  uncertainty k = 0.250101
        13        14        15        16     9        0.000000       -0.460426         3    ;  uncertainty k = 0.291547
        13        14        15        16     9      180.000000        0.910602         4    ;  uncertainty k = 0.279798
        13        14        15        18     9        0.000000       -0.069350         1    ;  uncertainty k = 0.292775
        13        14        15        18     9      180.000000        8.942093         2    ;  uncertainty k = 0.563576
        13        14        15        18     9        0.000000        1.225126         3    ;  uncertainty k = 0.296630
        13        14        15        18     9      180.000000        1.608135         4    ;  uncertainty k = 0.239057
        14        13        12        17     9        0.000000       -0.141019         1    ;  uncertainty k = 0.190132
        14        13        12        17     9      180.000000       11.565169         2    ;  uncertainty k = 0.450751
        14        13        12        17     9        0.000000       -0.482803         3    ;  uncertainty k = 0.323947
        14        13        12        17     9      180.000000        0.820385         4    ;  uncertainty k = 0.428180
        14        15        16        17     9        0.000000        0.099530         1    ;  uncertainty k = 0.198850
        14        15        16        17     9      180.000000       10.864272         2    ;  uncertainty k = 0.250101
        14        15        16        17     9        0.000000       -0.460426         3    ;  uncertainty k = 0.291547
        14        15        16        17     9      180.000000        0.910602         4    ;  uncertainty k = 0.279798
        14        15        16        38     9        0.000000        0.071629         1    ;  uncertainty k = 0.210521
        14        15        16        38     9      180.000000        6.731320         2    ;  uncertainty k = 0.652358
        14        15        16        38     9        0.000000        1.402558         3    ;  uncertainty k = 0.275743
        14        15        16        38     9      180.000000        1.629461         4    ;  uncertainty k = 0.263941
        14        15        18        19     9        0.000000        0.364742         1    ;  uncertainty k = 0.617618
        14        15        18        19     9      180.000000        2.957626         2    ;  uncertainty k = 0.176252
        14        15        18        19     9        0.000000        0.337574         3    ;  uncertainty k = 0.277333
        14        15        18        19     9      180.000000       -0.075996         4    ;  uncertainty k = 0.052358
        14        15        18        22     9        0.000000        0.212085         1    ;  uncertainty k = 0.583246
        14        15        18        22     9      180.000000        2.756721         2    ;  uncertainty k = 0.102989
        14        15        18        22     9        0.000000        0.399155         3    ;  uncertainty k = 0.207054
        14        15        18        22     9      180.000000       -0.145894         4    ;  uncertainty k = 0.054997
        15        14        13        36     9        0.000000        0.051679         1    ;  uncertainty k = 0.047053
        15        14        13        36     9      180.000000        8.110356         2    ;  uncertainty k = 0.308213
        15        14        13        36     9        0.000000        1.348836         3    ;  uncertainty k = 0.262064
        15        14        13        36     9      180.000000        1.847919         4    ;  uncertainty k = 0.146536
        15        16        17        39     9        0.000000        0.051679         1    ;  uncertainty k = 0.047053
        15        16        17        39     9      180.000000        8.110356         2    ;  uncertainty k = 0.308214
        15        16        17        39     9        0.000000        1.348837         3    ;  uncertainty k = 0.262065
        15        16        17        39     9      180.000000        1.847919         4    ;  uncertainty k = 0.146536
        15        18        19        20     9        0.000000        0.730829         1    ;  uncertainty k = 0.745969
        15        18        19        20     9      180.000000       14.124868         2    ;  uncertainty k = 0.381349
        15        18        19        20     9        0.000000        1.366411         3    ;  uncertainty k = 0.224812
        15        18        19        20     9      180.000000        0.828718         4    ;  uncertainty k = 0.243932
        15        18        19        40     9        0.000000        0.487086         1    ;  uncertainty k = 0.482656
        15        18        19        40     9      180.000000        6.408018         2    ;  uncertainty k = 0.855931
        15        18        19        40     9        0.000000        1.305884         3    ;  uncertainty k = 0.462346
        15        18        19        40     9      180.000000        0.400447         4    ;  uncertainty k = 0.122561
        15        18        22        21     9        0.000000        0.856900         1    ;  uncertainty k = 1.194888
        15        18        22        21     9      180.000000       12.441670         2    ;  uncertainty k = 0.564932
        15        18        22        21     9        0.000000        1.830358         3    ;  uncertainty k = 0.514365
        15        18        22        21     9      180.000000        0.550073         4    ;  uncertainty k = 0.201764
        15        18        22        41     9        0.000000        0.304653         1    ;  uncertainty k = 0.808439
        15        18        22        41     9      180.000000        5.213596         2    ;  uncertainty k = 0.592555
        15        18        22        41     9        0.000000        1.354869         3    ;  uncertainty k = 0.262334
        15        18        22        41     9      180.000000        0.295532         4    ;  uncertainty k = 0.033191
        16        15        14        37     9        0.000000        0.071629         1    ;  uncertainty k = 0.210521
        16        15        14        37     9      180.000000        6.731320         2    ;  uncertainty k = 0.652358
        16        15        14        37     9        0.000000        1.402558         3    ;  uncertainty k = 0.275743
        16        15        14        37     9      180.000000        1.629461         4    ;  uncertainty k = 0.263941
        16        15        18        19     9        0.000000        0.364742         1    ;  uncertainty k = 0.617618
        16        15        18        19     9      180.000000        2.957626         2    ;  uncertainty k = 0.176252
        16        15        18        19     9        0.000000        0.337574         3    ;  uncertainty k = 0.277333
        16        15        18        19     9      180.000000       -0.075996         4    ;  uncertainty k = 0.052358
        16        15        18        22     9        0.000000        0.212085         1    ;  uncertainty k = 0.583246
        16        15        18        22     9      180.000000        2.756721         2    ;  uncertainty k = 0.102989
        16        15        18        22     9        0.000000        0.399155         3    ;  uncertainty k = 0.207054
        16        15        18        22     9      180.000000       -0.145894         4    ;  uncertainty k = 0.054997
        17        12        10        34     9        0.000000       -0.300138         1    ;  uncertainty k = 0.153189
        17        12        10        34     9      180.000000        1.928373         2    ;  uncertainty k = 0.130920
        17        12        10        34     9        0.000000        0.360376         3    ;  uncertainty k = 0.118491
        17        12        10        34     9      180.000000        0.117080         4    ;  uncertainty k = 0.032968
        17        12        10        35     9        0.000000       -0.300138         1    ;  uncertainty k = 0.153189
        17        12        10        35     9      180.000000        1.928373         2    ;  uncertainty k = 0.130920
        17        12        10        35     9        0.000000        0.360376         3    ;  uncertainty k = 0.118491
        17        12        10        35     9      180.000000        0.117080         4    ;  uncertainty k = 0.032968
        17        12        13        36     9        0.000000        0.161510         1    ;  uncertainty k = 0.189285
        17        12        13        36     9      180.000000        7.143530         2    ;  uncertainty k = 0.548274
        17        12        13        36     9        0.000000        1.383620         3    ;  uncertainty k = 0.306740
        17        12        13        36     9      180.000000        1.646182         4    ;  uncertainty k = 0.144812
        17        16        15        18     9        0.000000       -0.069350         1    ;  uncertainty k = 0.292775
        17        16        15        18     9      180.000000        8.942093         2    ;  uncertainty k = 0.563576
        17        16        15        18     9        0.000000        1.225126         3    ;  uncertainty k = 0.296630
        17        16        15        18     9      180.000000        1.608135         4    ;  uncertainty k = 0.239057
        18        15        14        37     9        0.000000       -0.274120         1    ;  uncertainty k = 0.256075
        18        15        14        37     9      180.000000        6.927144         2    ;  uncertainty k = 0.360004
        18        15        14        37     9        0.000000        0.845886         3    ;  uncertainty k = 0.114326
        18        15        14        37     9      180.000000        1.148769         4    ;  uncertainty k = 0.209269
        18        15        16        38     9        0.000000       -0.274120         1    ;  uncertainty k = 0.256075
        18        15        16        38     9      180.000000        6.927144         2    ;  uncertainty k = 0.360004
        18        15        16        38     9        0.000000        0.845886         3    ;  uncertainty k = 0.114326
        18        15        16        38     9      180.000000        1.148769         4    ;  uncertainty k = 0.209269
        18        19        20        21     9        0.000000       -0.316526         1    ;  uncertainty k = 1.047711
        18        19        20        21     9      180.000000       17.284046         2    ;  uncertainty k = 0.688330
        18        19        20        21     9        0.000000       -9.057288         3    ;  uncertainty k = 0.901701
        18        19        20        21     9      180.000000        1.215837         4    ;  uncertainty k = 0.532722
        18        19        20        23     9        0.000000        1.392889         1    ;  uncertainty k = 1.290774
        18        19        20        23     9      180.000000        9.638848         2    ;  uncertainty k = 0.368010
        18        19        20        23     9        0.000000        1.944195         3    ;  uncertainty k = 0.374373
        18        19        20        23     9      180.000000       -0.106447         4    ;  uncertainty k = 0.068874
        18        22        21        20     9        0.000000       -0.058010         1    ;  uncertainty k = 0.625462
        18        22        21        20     9      180.000000       24.452638         2    ;  uncertainty k = 0.460560
        18        22        21        20     9        0.000000       -7.646340         3    ;  uncertainty k = 0.486543
        18        22        21        20     9      180.000000        2.227719         4    ;  uncertainty k = 0.719303
        19        18        22        21     9        0.000000       -0.355455         1    ;  uncertainty k = 0.508595
        19        18        22        21     9      180.000000       15.046675         2    ;  uncertainty k = 1.070272
        19        18        22        21     9        0.000000       -9.005960         3    ;  uncertainty k = 0.840801
        19        18        22        21     9      180.000000        1.826438         4    ;  uncertainty k = 0.522282
        19        18        22        41     9        0.000000       -0.031464         1    ;  uncertainty k = 0.354506
        19        18        22        41     9      180.000000        8.072054         2    ;  uncertainty k = 0.597935
        19        18        22        41     9        0.000000        1.249978         3    ;  uncertainty k = 0.335798
        19        18        22        41     9      180.000000        0.512738         4    ;  uncertainty k = 0.162738
        19        20        21        22     9        0.000000       -0.225287         1    ;  uncertainty k = 0.828367
        19        20        21        22     9      180.000000       16.689018         2    ;  uncertainty k = 0.422253
        19        20        21        22     9        0.000000       -7.488213         3    ;  uncertainty k = 1.300321
        19        20        21        22     9      180.000000        1.602126         4    ;  uncertainty k = 0.425607
        19        20        23        42     9        0.000000       -0.009533         1    ;  uncertainty k = 0.351891
        19        20        23        42     9      180.000000       -1.118668         2    ;  uncertainty k = 0.175719
        19        20        23        42     9        0.000000        0.788902         3    ;  uncertainty k = 0.017444
        19        20        23        42     9      180.000000        0.208637         4    ;  uncertainty k = 0.050244
        19        20        23        43     9        0.000000       -0.009533         1    ;  uncertainty k = 0.351891
        19        20        23        43     9      180.000000       -1.118668         2    ;  uncertainty k = 0.175719
        19        20        23        43     9        0.000000        0.788902         3    ;  uncertainty k = 0.017444
        19        20        23        43     9      180.000000        0.208637         4    ;  uncertainty k = 0.050244
        19        20        23        44     9        0.000000       -0.009533         1    ;  uncertainty k = 0.351891
        19        20        23        44     9      180.000000       -1.118668         2    ;  uncertainty k = 0.175719
        19        20        23        44     9        0.000000        0.788902         3    ;  uncertainty k = 0.017444
        19        20        23        44     9      180.000000        0.208637         4    ;  uncertainty k = 0.050244
        20        19        18        22     9        0.000000        0.138355         1    ;  uncertainty k = 0.250165
        20        19        18        22     9      180.000000       18.966874         2    ;  uncertainty k = 0.230930
        20        19        18        22     9        0.000000       -9.822058         3    ;  uncertainty k = 0.542344
        20        19        18        22     9      180.000000        1.616629         4    ;  uncertainty k = 0.658377
        20        21        22        41     9        0.000000        0.455448         1    ;  uncertainty k = 0.742365
        20        21        22        41     9      180.000000       22.168886         2    ;  uncertainty k = 0.393002
        20        21        22        41     9        0.000000        1.308522         3    ;  uncertainty k = 0.565188
        20        21        22        41     9      180.000000        1.249378         4    ;  uncertainty k = 0.583038
        21        20        19        40     9        0.000000        0.954942         1    ;  uncertainty k = 0.636273
        21        20        19        40     9      180.000000       11.894603         2    ;  uncertainty k = 0.460933
        21        20        19        40     9        0.000000        1.730548         3    ;  uncertainty k = 0.518861
        21        20        19        40     9      180.000000        0.048447         4    ;  uncertainty k = 0.167333
        21        20        23        42     9        0.000000        1.398760         1    ;  uncertainty k = 0.579544
        21        20        23        42     9      180.000000       -1.134020         2    ;  uncertainty k = 0.131941
        21        20        23        42     9        0.000000        0.742560         3    ;  uncertainty k = 0.044341
        21        20        23        42     9      180.000000        0.251257         4    ;  uncertainty k = 0.037756
        21        20        23        43     9        0.000000        1.398760         1    ;  uncertainty k = 0.579544
        21        20        23        43     9      180.000000       -1.134020         2    ;  uncertainty k = 0.131941
        21        20        23        43     9        0.000000        0.742560         3    ;  uncertainty k = 0.044341
        21        20        23        43     9      180.000000        0.251257         4    ;  uncertainty k = 0.037756
        21        20        23        44     9        0.000000        1.398760         1    ;  uncertainty k = 0.579544
        21        20        23        44     9      180.000000       -1.134020         2    ;  uncertainty k = 0.131941
        21        20        23        44     9        0.000000        0.742560         3    ;  uncertainty k = 0.044341
        21        20        23        44     9      180.000000        0.251257         4    ;  uncertainty k = 0.037756
        22        18        19        40     9        0.000000        0.015435         1    ;  uncertainty k = 0.258046
        22        18        19        40     9      180.000000       10.338561         2    ;  uncertainty k = 0.277931
        22        18        19        40     9        0.000000        1.639009         3    ;  uncertainty k = 0.357902
        22        18        19        40     9      180.000000        0.594000         4    ;  uncertainty k = 0.198130
        22        21        20        23     9        0.000000        0.933315         1    ;  uncertainty k = 1.275516
        22        21        20        23     9      180.000000       13.272692         2    ;  uncertainty k = 0.326665
        22        21        20        23     9        0.000000        1.823279         3    ;  uncertainty k = 0.443014
        22        21        20        23     9      180.000000       -0.164134         4    ;  uncertainty k = 0.298893
        23        20        19        40     9        0.000000       -0.476540         1    ;  uncertainty k = 0.254767
        23        20        19        40     9      180.000000        3.142291         2    ;  uncertainty k = 0.652804
        23        20        19        40     9        0.000000        1.097292         3    ;  uncertainty k = 0.480723
        23        20        19        40     9      180.000000        0.022420         4    ;  uncertainty k = 0.193415
        24        11        26        27     9        0.000000        1.797480         1    ;  uncertainty k = 0.537791
        24        11        26        27     9      180.000000        2.998568         2    ;  uncertainty k = 0.320025
        24        11        26        27     9        0.000000        1.922199         3    ;  uncertainty k = 0.588476
        24        11        26        27     9      180.000000       -0.490873         4    ;  uncertainty k = 0.132603
        24        11        26        45     9        0.000000        8.650005         1    ;  uncertainty k = 0.243777
        24        11        26        45     9      180.000000       -0.030313         2    ;  uncertainty k = 0.291865
        24        11        26        45     9        0.000000       -0.471387         3    ;  uncertainty k = 0.347091
        24        11        26        45     9      180.000000       -0.081442         4    ;  uncertainty k = 0.197733
        25        11        26        27     9        0.000000        1.797480         1    ;  uncertainty k = 0.537791
        25        11        26        27     9      180.000000        2.998568         2    ;  uncertainty k = 0.320025
        25        11        26        27     9        0.000000        1.922199         3    ;  uncertainty k = 0.588476
        25        11        26        27     9      180.000000       -0.490873         4    ;  uncertainty k = 0.132603
        25        11        26        45     9        0.000000        8.650005         1    ;  uncertainty k = 0.243777
        25        11        26        45     9      180.000000       -0.030313         2    ;  uncertainty k = 0.291865
        25        11        26        45     9        0.000000       -0.471387         3    ;  uncertainty k = 0.347091
        25        11        26        45     9      180.000000       -0.081442         4    ;  uncertainty k = 0.197733
        26        27        28        29     9        0.000000       72.510819         1    ;  uncertainty k = 0.244580
        26        27        28        29     9      180.000000        0.222862         2    ;  uncertainty k = 5.688690
        26        27        28        29     9        0.000000      -14.043404         3    ;  uncertainty k = 2.968255
        26        27        28        29     9      180.000000       11.075711         4    ;  uncertainty k = 0.767762
        26        27        28        47     9        0.000000        1.524864         1    ;  uncertainty k = 3.870334
        26        27        28        47     9      180.000000       -2.263840         2    ;  uncertainty k = 1.618414
        26        27        28        47     9        0.000000        0.543499         3    ;  uncertainty k = 0.535403
        26        27        28        47     9      180.000000       -0.691099         4    ;  uncertainty k = 0.385533
        26        27        28        48     9        0.000000        1.524864         1    ;  uncertainty k = 3.870334
        26        27        28        48     9      180.000000       -2.263840         2    ;  uncertainty k = 1.618414
        26        27        28        48     9        0.000000        0.543499         3    ;  uncertainty k = 0.535403
        26        27        28        48     9      180.000000       -0.691099         4    ;  uncertainty k = 0.385533
        26        27        29        28     9        0.000000       72.510819         1    ;  uncertainty k = 0.244580
        26        27        29        28     9      180.000000        0.222862         2    ;  uncertainty k = 5.688690
        26        27        29        28     9        0.000000      -14.043404         3    ;  uncertainty k = 2.968255
        26        27        29        28     9      180.000000       11.075711         4    ;  uncertainty k = 0.767762
        26        27        29        49     9        0.000000        1.524864         1    ;  uncertainty k = 3.870334
        26        27        29        49     9      180.000000       -2.263840         2    ;  uncertainty k = 1.618414
        26        27        29        49     9        0.000000        0.543499         3    ;  uncertainty k = 0.535403
        26        27        29        49     9      180.000000       -0.691099         4    ;  uncertainty k = 0.385533
        26        27        29        50     9        0.000000        1.524864         1    ;  uncertainty k = 3.870334
        26        27        29        50     9      180.000000       -2.263840         2    ;  uncertainty k = 1.618414
        26        27        29        50     9        0.000000        0.543499         3    ;  uncertainty k = 0.535403
        26        27        29        50     9      180.000000       -0.691099         4    ;  uncertainty k = 0.385533
        27        28        29        49     9        0.000000       43.202935         1    ;  uncertainty k = 0.431131
        27        28        29        49     9      180.000000       -4.499986         2    ;  uncertainty k = 0.621881
        27        28        29        49     9        0.000000       -9.754511         3    ;  uncertainty k = 0.843343
        27        28        29        49     9      180.000000        4.487290         4    ;  uncertainty k = 0.419374
        27        28        29        50     9        0.000000       43.202935         1    ;  uncertainty k = 0.431131
        27        28        29        50     9      180.000000       -4.499986         2    ;  uncertainty k = 0.621881
        27        28        29        50     9        0.000000       -9.754511         3    ;  uncertainty k = 0.843343
        27        28        29        50     9      180.000000        4.487290         4    ;  uncertainty k = 0.419374
        27        29        28        47     9        0.000000       43.202935         1    ;  uncertainty k = 0.431131
        27        29        28        47     9      180.000000       -4.499986         2    ;  uncertainty k = 0.621881
        27        29        28        47     9        0.000000       -9.754511         3    ;  uncertainty k = 0.843343
        27        29        28        47     9      180.000000        4.487290         4    ;  uncertainty k = 0.419374
        27        29        28        48     9        0.000000       43.202935         1    ;  uncertainty k = 0.431131
        27        29        28        48     9      180.000000       -4.499986         2    ;  uncertainty k = 0.621881
        27        29        28        48     9        0.000000       -9.754511         3    ;  uncertainty k = 0.843343
        27        29        28        48     9      180.000000        4.487290         4    ;  uncertainty k = 0.419374
        28        27        26        45     9        0.000000        2.971961         1    ;  uncertainty k = 0.902230
        28        27        26        45     9      180.000000       -3.945656         2    ;  uncertainty k = 0.953682
        28        27        26        45     9        0.000000        0.290958         3    ;  uncertainty k = 0.348005
        28        27        26        45     9      180.000000        0.169237         4    ;  uncertainty k = 0.180032
        28        27        29        49     9        0.000000       44.106738         1    ;  uncertainty k = 0.259450
        28        27        29        49     9      180.000000       -3.272089         2    ;  uncertainty k = 0.940393
        28        27        29        49     9        0.000000       -9.991863         3    ;  uncertainty k = 1.034459
        28        27        29        49     9      180.000000        5.060382         4    ;  uncertainty k = 0.348960
        28        27        29        50     9        0.000000       44.106738         1    ;  uncertainty k = 0.259450
        28        27        29        50     9      180.000000       -3.272089         2    ;  uncertainty k = 0.940393
        28        27        29        50     9        0.000000       -9.991863         3    ;  uncertainty k = 1.034459
        28        27        29        50     9      180.000000        5.060382         4    ;  uncertainty k = 0.348960
        28        29        27        46     9        0.000000       49.847296         1    ;  uncertainty k = 0.257912
        28        29        27        46     9      180.000000       -2.045174         2    ;  uncertainty k = 1.915361
        28        29        27        46     9        0.000000      -10.868100         3    ;  uncertainty k = 1.177674
        28        29        27        46     9      180.000000        6.361303         4    ;  uncertainty k = 0.308182
        29        27        26        45     9        0.000000        2.971961         1    ;  uncertainty k = 0.902230
        29        27        26        45     9      180.000000       -3.945656         2    ;  uncertainty k = 0.953682
        29        27        26        45     9        0.000000        0.290958         3    ;  uncertainty k = 0.348005
        29        27        26        45     9      180.000000        0.169237         4    ;  uncertainty k = 0.180032
        29        27        28        47     9        0.000000       44.106738         1    ;  uncertainty k = 0.259450
        29        27        28        47     9      180.000000       -3.272089         2    ;  uncertainty k = 0.940393
        29        27        28        47     9        0.000000       -9.991863         3    ;  uncertainty k = 1.034459
        29        27        28        47     9      180.000000        5.060382         4    ;  uncertainty k = 0.348960
        29        27        28        48     9        0.000000       44.106738         1    ;  uncertainty k = 0.259450
        29        27        28        48     9      180.000000       -3.272089         2    ;  uncertainty k = 0.940393
        29        27        28        48     9        0.000000       -9.991863         3    ;  uncertainty k = 1.034459
        29        27        28        48     9      180.000000        5.060382         4    ;  uncertainty k = 0.348960
        29        28        27        46     9        0.000000       49.847296         1    ;  uncertainty k = 0.257912
        29        28        27        46     9      180.000000       -2.045174         2    ;  uncertainty k = 1.915361
        29        28        27        46     9        0.000000      -10.868100         3    ;  uncertainty k = 1.177674
        29        28        27        46     9      180.000000        6.361303         4    ;  uncertainty k = 0.308182
        31         3         4        32     9        0.000000       -0.088760         1    ;  uncertainty k = 0.414362
        31         3         4        32     9      180.000000        7.871382         2    ;  uncertainty k = 0.253563
        31         3         4        32     9        0.000000       -0.179796         3    ;  uncertainty k = 0.378246
        31         3         4        32     9      180.000000        0.188663         4    ;  uncertainty k = 0.234760
        36        13        14        37     9        0.000000       -0.105048         1    ;  uncertainty k = 0.079024
        36        13        14        37     9      180.000000        7.802567         2    ;  uncertainty k = 0.370707
        36        13        14        37     9        0.000000       -0.520984         3    ;  uncertainty k = 0.249529
        36        13        14        37     9      180.000000        0.209880         4    ;  uncertainty k = 0.188642
        38        16        17        39     9        0.000000       -0.105048         1    ;  uncertainty k = 0.079025
        38        16        17        39     9      180.000000        7.802567         2    ;  uncertainty k = 0.370707
        38        16        17        39     9        0.000000       -0.520984         3    ;  uncertainty k = 0.249529
        38        16        17        39     9      180.000000        0.209880         4    ;  uncertainty k = 0.188642
        45        26        27        46     9        0.000000        3.819449         1    ;  uncertainty k = 1.009851
        45        26        27        46     9      180.000000       -3.268312         2    ;  uncertainty k = 0.925542
        45        26        27        46     9        0.000000        0.468099         3    ;  uncertainty k = 0.133561
        45        26        27        46     9      180.000000        0.039004         4    ;  uncertainty k = 0.217292
        46        27        28        47     9        0.000000        0.848488         1    ;  uncertainty k = 2.348869
        46        27        28        47     9      180.000000       -1.342398         2    ;  uncertainty k = 0.974871
        46        27        28        47     9        0.000000        0.655851         3    ;  uncertainty k = 0.171236
        46        27        28        47     9      180.000000       -0.758318         4    ;  uncertainty k = 0.064616
        46        27        28        48     9        0.000000        0.848488         1    ;  uncertainty k = 2.348869
        46        27        28        48     9      180.000000       -1.342398         2    ;  uncertainty k = 0.974871
        46        27        28        48     9        0.000000        0.655851         3    ;  uncertainty k = 0.171236
        46        27        28        48     9      180.000000       -0.758318         4    ;  uncertainty k = 0.064616
        46        27        29        49     9        0.000000        0.848488         1    ;  uncertainty k = 2.348869
        46        27        29        49     9      180.000000       -1.342398         2    ;  uncertainty k = 0.974871
        46        27        29        49     9        0.000000        0.655851         3    ;  uncertainty k = 0.171236
        46        27        29        49     9      180.000000       -0.758318         4    ;  uncertainty k = 0.064616
        46        27        29        50     9        0.000000        0.848488         1    ;  uncertainty k = 2.348869
        46        27        29        50     9      180.000000       -1.342398         2    ;  uncertainty k = 0.974871
        46        27        29        50     9        0.000000        0.655851         3    ;  uncertainty k = 0.171236
        46        27        29        50     9      180.000000       -0.758318         4    ;  uncertainty k = 0.064616
        47        28        29        49     9        0.000000        0.099332         1    ;  uncertainty k = 1.108229
        47        28        29        49     9      180.000000       -1.456650         2    ;  uncertainty k = 0.892945
        47        28        29        49     9        0.000000        0.917647         3    ;  uncertainty k = 0.374022
        47        28        29        49     9      180.000000       -0.696954         4    ;  uncertainty k = 0.105187
        47        28        29        50     9        0.000000        0.099332         1    ;  uncertainty k = 1.108229
        47        28        29        50     9      180.000000       -1.456650         2    ;  uncertainty k = 0.892945
        47        28        29        50     9        0.000000        0.917647         3    ;  uncertainty k = 0.374022
        47        28        29        50     9      180.000000       -0.696954         4    ;  uncertainty k = 0.105187
        48        28        29        49     9        0.000000        0.099332         1    ;  uncertainty k = 1.108229
        48        28        29        49     9      180.000000       -1.456650         2    ;  uncertainty k = 0.892945
        48        28        29        49     9        0.000000        0.917647         3    ;  uncertainty k = 0.374022
        48        28        29        49     9      180.000000       -0.696954         4    ;  uncertainty k = 0.105187
        48        28        29        50     9        0.000000        0.099332         1    ;  uncertainty k = 1.108229
        48        28        29        50     9      180.000000       -1.456650         2    ;  uncertainty k = 0.892945
        48        28        29        50     9        0.000000        0.917647         3    ;  uncertainty k = 0.374022
        48        28        29        50     9      180.000000       -0.696954         4    ;  uncertainty k = 0.105187

[ dihedrals ] ; impropers
;       ai        aj        ak        al funct           phase               k        pn
         1         2         4        11     4      180.000000        4.329178         2    ;  uncertainty k = 0.467415
         1         4        11         2     4      180.000000        4.329178         2    ;  uncertainty k = 0.467415
         1        11         2         4     4      180.000000        4.329178         2    ;  uncertainty k = 0.467415
         2         1         6        30     4      180.000000        7.119696         2    ;  uncertainty k = 0.175475
         2         6        30         1     4      180.000000        7.119696         2    ;  uncertainty k = 0.175475
         2        30         1         6     4      180.000000        7.119696         2    ;  uncertainty k = 0.175475
         3         4         5        31     4      180.000000        2.637668         2    ;  uncertainty k = 0.145649
         3         5        31         4     4      180.000000        2.637668         2    ;  uncertainty k = 0.145649
         3        31         4         5     4      180.000000        2.637668         2    ;  uncertainty k = 0.145649
         4         1         3        32     4      180.000000        5.678373         2    ;  uncertainty k = 0.254405
         4         3        32         1     4      180.000000        5.678373         2    ;  uncertainty k = 0.254405
         4        32         1         3     4      180.000000        5.678373         2    ;  uncertainty k = 0.254405
         5         3         6         9     4      180.000000        2.873795         2    ;  uncertainty k = 0.530202
         5         6         9         3     4      180.000000        2.873795         2    ;  uncertainty k = 0.530202
         5         9         3         6     4      180.000000        2.873795         2    ;  uncertainty k = 0.530202
         7         6         8        10     4      180.000000        8.071062         2    ;  uncertainty k = 0.212945
         7         8        10         6     4      180.000000        8.071062         2    ;  uncertainty k = 0.212945
         7        10         6         8     4      180.000000        8.071062         2    ;  uncertainty k = 0.212945
        12        10        13        17     4      180.000000       13.443225         2    ;  uncertainty k = 0.081656
        12        13        17        10     4      180.000000       13.443225         2    ;  uncertainty k = 0.081656
        12        17        10        13     4      180.000000       13.443225         2    ;  uncertainty k = 0.081656
        13        12        14        36     4      180.000000        4.038198         2    ;  uncertainty k = 0.126248
        13        14        36        12     4      180.000000        4.038198         2    ;  uncertainty k = 0.126248
        13        36        12        14     4      180.000000        4.038198         2    ;  uncertainty k = 0.126248
        14        13        15        37     4      180.000000        3.634538         2    ;  uncertainty k = 0.167362
        14        15        37        13     4      180.000000        3.634538         2    ;  uncertainty k = 0.167362
        14        37        13        15     4      180.000000        3.634538         2    ;  uncertainty k = 0.167362
        15        14        16        18     4      180.000000       14.868719         2    ;  uncertainty k = 0.081810
        15        16        18        14     4      180.000000       14.868719         2    ;  uncertainty k = 0.081810
        15        18        14        16     4      180.000000       14.868719         2    ;  uncertainty k = 0.081810
        16        15        17        38     4      180.000000        3.634538         2    ;  uncertainty k = 0.167362
        16        17        38        15     4      180.000000        3.634538         2    ;  uncertainty k = 0.167362
        16        38        15        17     4      180.000000        3.634538         2    ;  uncertainty k = 0.167362
        17        12        16        39     4      180.000000        4.038197         2    ;  uncertainty k = 0.126249
        17        16        39        12     4      180.000000        4.038197         2    ;  uncertainty k = 0.126249
        17        39        12        16     4      180.000000        4.038197         2    ;  uncertainty k = 0.126249
        18        15        19        22     4      180.000000        2.273631         2    ;  uncertainty k = 0.479723
        18        19        22        15     4      180.000000        2.273631         2    ;  uncertainty k = 0.479723
        18        22        15        19     4      180.000000        2.273631         2    ;  uncertainty k = 0.479723
        19        18        20        40     4      180.000000        0.843031         2    ;  uncertainty k = 0.771057
        19        20        40        18     4      180.000000        0.843031         2    ;  uncertainty k = 0.771057
        19        40        18        20     4      180.000000        0.843031         2    ;  uncertainty k = 0.771057
        22        18        21        41     4      180.000000        0.319029         2    ;  uncertainty k = 0.442787
        22        21        41        18     4      180.000000        0.319029         2    ;  uncertainty k = 0.442787
        22        41        18        21     4      180.000000        0.319029         2    ;  uncertainty k = 0.442787

[ pairs ]
;       ai        aj funct
         1         5     1
         1         7     1
         1        27     1
         1        31     1
         1        45     1
         2         3     1
         2         8     1
         2         9     1
         2        10     1
         2        24     1
         2        25     1
         2        26     1
         2        32     1
         3         7     1
         3         8     1
         3        11     1
         3        33     1
         4         6     1
         4         9     1
         4        24     1
         4        25     1
         4        26     1
         4        30     1
         5        10     1
         5        30     1
         5        32     1
         6        11     1
         6        12     1
         6        31     1
         6        33     1
         6        34     1
         6        35     1
         7        13     1
         7        17     1
         7        30     1
         7        33     1
         8        12     1
         8        34     1
         8        35     1
         9        10     1
         9        31     1
        10        14     1
        10        16     1
        10        36     1
        10        39     1
        11        28     1
        11        29     1
        11        30     1
        11        32     1
        11        46     1
        12        15     1
        12        37     1
        12        38     1
        13        16     1
        13        18     1
        13        34     1
        13        35     1
        13        39     1
        14        17     1
        14        19     1
        14        22     1
        14        38     1
        15        20     1
        15        21     1
        15        36     1
        15        39     1
        15        40     1
        15        41     1
        16        19     1
        16        22     1
        16        37     1
        17        18     1
        17        34     1
        17        35     1
        17        36     1
        18        23     1
        18        37     1
        18        38     1
        19        41     1
        19        42     1
        19        43     1
        19        44     1
        20        41     1
        21        40     1
        21        42     1
        21        43     1
        21        44     1
        22        23     1
        22        40     1
        23        40     1
        24        27     1
        24        45     1
        25        27     1
        25        45     1
        26        47     1
        26        48     1
        26        49     1
        26        50     1
        28        45     1
        29        45     1
        31        32     1
        36        37     1
        38        39     1
        45        46     1
        46        47     1
        46        48     1
        46        49     1
        46        50     1
        47        49     1
        47        50     1
        48        49     1
        48        50     1
