; ITP file created by ByteFF-joint-25, 2026-02-17 09:09:07.242179

[ atomtypes ]
;name           bonded.type        at.num        mass        charge   ptype           sigma         epsilon
 c0bf                                   6      0.0000       0.00000       A     3.31529e-01     4.13359e-01    ;  uncertainty sigma = 0.000016, epsilon = 0.000873
 c1bf                                   6      0.0000       0.00000       A     3.31527e-01     4.13231e-01    ;  uncertainty sigma = 0.000007, epsilon = 0.000411
 c2bf                                   6      0.0000       0.00000       A     3.31520e-01     4.13315e-01    ;  uncertainty sigma = 0.000006, epsilon = 0.000869
 c3bf                                   6      0.0000       0.00000       A     3.31528e-01     4.13512e-01    ;  uncertainty sigma = 0.000006, epsilon = 0.000477
 c4bf                                   6      0.0000       0.00000       A     3.31513e-01     4.13127e-01    ;  uncertainty sigma = 0.000006, epsilon = 0.000908
 c5bf                                   6      0.0000       0.00000       A     3.31532e-01     4.13349e-01    ;  uncertainty sigma = 0.000008, epsilon = 0.000623
 c6bf                                   6      0.0000       0.00000       A     3.31510e-01     4.13718e-01    ;  uncertainty sigma = 0.000012, epsilon = 0.000573
 n7bf                                   7      0.0000       0.00000       A     3.38378e-01     3.93289e-01    ;  uncertainty sigma = 0.000011, epsilon = 0.000859
 n8bf                                   7      0.0000       0.00000       A     3.20594e-01     8.54239e-01    ;  uncertainty sigma = 0.000008, epsilon = 0.000871
 c9bf                                   6      0.0000       0.00000       A     3.39770e-01     4.50677e-01    ;  uncertainty sigma = 0.000014, epsilon = 0.000932
 n10bf                                  7      0.0000       0.00000       A     3.26978e-01     4.90058e-01    ;  uncertainty sigma = 0.000036, epsilon = 0.002163
 c11bf                                  6      0.0000       0.00000       A     3.31510e-01     4.12522e-01    ;  uncertainty sigma = 0.000006, epsilon = 0.000679
 o12bf                                  8      0.0000       0.00000       A     3.04808e-01     6.12291e-01    ;  uncertainty sigma = 0.000010, epsilon = 0.001265
 c13bf                                  6      0.0000       0.00000       A     3.31526e-01     4.13322e-01    ;  uncertainty sigma = 0.000007, epsilon = 0.000745
 c14bf                                  6      0.0000       0.00000       A     3.31523e-01     4.13371e-01    ;  uncertainty sigma = 0.000005, epsilon = 0.000423
 c15bf                                  6      0.0000       0.00000       A     3.31520e-01     4.13353e-01    ;  uncertainty sigma = 0.000004, epsilon = 0.000667
 c16bf                                  6      0.0000       0.00000       A     3.31533e-01     4.13284e-01    ;  uncertainty sigma = 0.000006, epsilon = 0.001098
 c17bf                                  6      0.0000       0.00000       A     3.31520e-01     4.13353e-01    ;  uncertainty sigma = 0.000004, epsilon = 0.000667
 c18bf                                  6      0.0000       0.00000       A     3.31523e-01     4.13371e-01    ;  uncertainty sigma = 0.000005, epsilon = 0.000423
 c19bf                                  6      0.0000       0.00000       A     3.31535e-01     4.13223e-01    ;  uncertainty sigma = 0.000005, epsilon = 0.000899
 c20bf                                  6      0.0000       0.00000       A     3.31521e-01     4.13333e-01    ;  uncertainty sigma = 0.000008, epsilon = 0.000598
 n21bf                                  7      0.0000       0.00000       A     3.20584e-01     8.54185e-01    ;  uncertainty sigma = 0.000011, epsilon = 0.001160
 n22bf                                  7      0.0000       0.00000       A     3.38434e-01     3.93690e-01    ;  uncertainty sigma = 0.000004, epsilon = 0.000785
 c23bf                                  6      0.0000       0.00000       A     3.31536e-01     4.13003e-01    ;  uncertainty sigma = 0.000006, epsilon = 0.000684
 c24bf                                  6      0.0000       0.00000       A     3.39777e-01     4.50912e-01    ;  uncertainty sigma = 0.000003, epsilon = 0.000595
 c25bf                                  6      0.0000       0.00000       A     3.39792e-01     4.50878e-01    ;  uncertainty sigma = 0.000008, epsilon = 0.001078
 c26bf                                  6      0.0000       0.00000       A     3.39760e-01     4.50994e-01    ;  uncertainty sigma = 0.000010, epsilon = 0.000862
 c27bf                                  6      0.0000       0.00000       A     3.39760e-01     4.50994e-01    ;  uncertainty sigma = 0.000010, epsilon = 0.000862
 h28bf                                  1      0.0000       0.00000       A     2.62573e-01     6.70552e-02    ;  uncertainty sigma = 0.000013, epsilon = 0.000866
 h29bf                                  1      0.0000       0.00000       A     2.62571e-01     6.70414e-02    ;  uncertainty sigma = 0.000009, epsilon = 0.000485
 h30bf                                  1      0.0000       0.00000       A     2.62555e-01     6.71833e-02    ;  uncertainty sigma = 0.000010, epsilon = 0.000661
 h31bf                                  1      0.0000       0.00000       A     1.10648e-01     4.14022e-02    ;  uncertainty sigma = 0.000065, epsilon = 0.000771
 h32bf                                  1      0.0000       0.00000       A     2.60075e-01     8.67590e-02    ;  uncertainty sigma = 0.000029, epsilon = 0.000876
 h33bf                                  1      0.0000       0.00000       A     2.60075e-01     8.67590e-02    ;  uncertainty sigma = 0.000029, epsilon = 0.000876
 h34bf                                  1      0.0000       0.00000       A     1.10689e-01     4.13350e-02    ;  uncertainty sigma = 0.000045, epsilon = 0.000667
 h35bf                                  1      0.0000       0.00000       A     2.62562e-01     6.71169e-02    ;  uncertainty sigma = 0.000007, epsilon = 0.000513
 h36bf                                  1      0.0000       0.00000       A     2.62566e-01     6.70543e-02    ;  uncertainty sigma = 0.000011, epsilon = 0.000444
 h37bf                                  1      0.0000       0.00000       A     2.62566e-01     6.70543e-02    ;  uncertainty sigma = 0.000011, epsilon = 0.000444
 h38bf                                  1      0.0000       0.00000       A     2.62562e-01     6.71171e-02    ;  uncertainty sigma = 0.000007, epsilon = 0.000513
 h39bf                                  1      0.0000       0.00000       A     2.53668e-01     6.70573e-02    ;  uncertainty sigma = 0.000029, epsilon = 0.000503
 h40bf                                  1      0.0000       0.00000       A     2.53681e-01     6.72123e-02    ;  uncertainty sigma = 0.000016, epsilon = 0.000497
 h41bf                                  1      0.0000       0.00000       A     2.42209e-01     8.68411e-02    ;  uncertainty sigma = 0.000019, epsilon = 0.000599
 h42bf                                  1      0.0000       0.00000       A     2.42209e-01     8.68411e-02    ;  uncertainty sigma = 0.000019, epsilon = 0.000599
 h43bf                                  1      0.0000       0.00000       A     2.42209e-01     8.68411e-02    ;  uncertainty sigma = 0.000019, epsilon = 0.000599
 h44bf                                  1      0.0000       0.00000       A     2.42178e-01     8.75594e-02    ;  uncertainty sigma = 0.000045, epsilon = 0.001149
 h45bf                                  1      0.0000       0.00000       A     2.59988e-01     8.68617e-02    ;  uncertainty sigma = 0.000018, epsilon = 0.000715
 h46bf                                  1      0.0000       0.00000       A     2.59988e-01     8.68617e-02    ;  uncertainty sigma = 0.000018, epsilon = 0.000715
 h47bf                                  1      0.0000       0.00000       A     2.59988e-01     8.68617e-02    ;  uncertainty sigma = 0.000018, epsilon = 0.000715
 h48bf                                  1      0.0000       0.00000       A     2.59988e-01     8.68617e-02    ;  uncertainty sigma = 0.000018, epsilon = 0.000715

[ moleculetype ]
;name             nrexcl
 MOL                   3

[ atoms ]
;       nr            type      resi   res      atom      cgnr      charge          mass ; qtot
         1            c0bf         1   UNL        c0         1    -0.19471       12.0110 ; qtot   -0.195
         2            c1bf         1   UNL        c1         2    -0.00025       12.0110 ; qtot   -0.195
         3            c2bf         1   UNL        c2         3    -0.16099       12.0110 ; qtot   -0.356
         4            c3bf         1   UNL        c3         4    -0.05809       12.0110 ; qtot   -0.414
         5            c4bf         1   UNL        c4         5    -0.00020       12.0110 ; qtot   -0.414
         6            c5bf         1   UNL        c5         6    -0.23592       12.0110 ; qtot   -0.650
         7            c6bf         1   UNL        c6         7     0.37213       12.0110 ; qtot   -0.278
         8            n7bf         1   UNL        n7         8    -0.50863       14.0070 ; qtot   -0.787
         9            n8bf         1   UNL        n8         9    -0.03606       14.0070 ; qtot   -0.823
        10            c9bf         1   UNL        c9        10    -0.04574       12.0110 ; qtot   -0.868
        11           n10bf         1   UNL       n10        11    -0.55080       14.0070 ; qtot   -1.419
        12           c11bf         1   UNL       c11        12     0.67934       12.0110 ; qtot   -0.740
        13           o12bf         1   UNL       o12        13    -0.59298       15.9990 ; qtot   -1.333
        14           c13bf         1   UNL       c13        14    -0.08175       12.0110 ; qtot   -1.415
        15           c14bf         1   UNL       c14        15    -0.11939       12.0110 ; qtot   -1.534
        16           c15bf         1   UNL       c15        16    -0.12732       12.0110 ; qtot   -1.661
        17           c16bf         1   UNL       c16        17     0.00918       12.0110 ; qtot   -1.652
        18           c17bf         1   UNL       c17        18    -0.12732       12.0110 ; qtot   -1.780
        19           c18bf         1   UNL       c18        19    -0.11939       12.0110 ; qtot   -1.899
        20           c19bf         1   UNL       c19        20    -0.22601       12.0110 ; qtot   -2.125
        21           c20bf         1   UNL       c20        21    -0.11441       12.0110 ; qtot   -2.239
        22           n21bf         1   UNL       n21        22     0.08671       14.0070 ; qtot   -2.153
        23           n22bf         1   UNL       n22        23    -0.52298       14.0070 ; qtot   -2.676
        24           c23bf         1   UNL       c23        24     0.31766       12.0110 ; qtot   -2.358
        25           c24bf         1   UNL       c24        25     0.04276       12.0110 ; qtot   -2.315
        26           c25bf         1   UNL       c25        26     0.03858       12.0110 ; qtot   -2.277
        27           c26bf         1   UNL       c26        27    -0.13238       12.0110 ; qtot   -2.409
        28           c27bf         1   UNL       c27        28    -0.13238       12.0110 ; qtot   -2.541
        29           h28bf         1   UNL       h28        29     0.15267        1.0080 ; qtot   -2.389
        30           h29bf         1   UNL       h29        30     0.14424        1.0080 ; qtot   -2.244
        31           h30bf         1   UNL       h30        31     0.14654        1.0080 ; qtot   -2.098
        32           h31bf         1   UNL       h31        32     0.32635        1.0080 ; qtot   -1.772
        33           h32bf         1   UNL       h32        33     0.06335        1.0080 ; qtot   -1.708
        34           h33bf         1   UNL       h33        34     0.06335        1.0080 ; qtot   -1.645
        35           h34bf         1   UNL       h34        35     0.31447        1.0080 ; qtot   -1.330
        36           h35bf         1   UNL       h35        36     0.13610        1.0080 ; qtot   -1.194
        37           h36bf         1   UNL       h36        37     0.13384        1.0080 ; qtot   -1.060
        38           h37bf         1   UNL       h37        38     0.13384        1.0080 ; qtot   -0.927
        39           h38bf         1   UNL       h38        39     0.13610        1.0080 ; qtot   -0.790
        40           h39bf         1   UNL       h39        40     0.17330        1.0080 ; qtot   -0.617
        41           h40bf         1   UNL       h40        41     0.03867        1.0080 ; qtot   -0.579
        42           h41bf         1   UNL       h41        42     0.05820        1.0080 ; qtot   -0.520
        43           h42bf         1   UNL       h42        43     0.05820        1.0080 ; qtot   -0.462
        44           h43bf         1   UNL       h43        44     0.05820        1.0080 ; qtot   -0.404
        45           h44bf         1   UNL       h44        45     0.08608        1.0080 ; qtot   -0.318
        46           h45bf         1   UNL       h45        46     0.07946        1.0080 ; qtot   -0.238
        47           h46bf         1   UNL       h46        47     0.07946        1.0080 ; qtot   -0.159
        48           h47bf         1   UNL       h47        48     0.07946        1.0080 ; qtot   -0.079
        49           h48bf         1   UNL       h48        49     0.07946        1.0080 ; qtot    0.000

[ bonds ]
;       ai        aj funct               r               k
         1         2     1        0.139245   358760.277246    ;  uncertainty r = 0.000110, k = 5.527422
         1         4     1        0.142201   330745.251074    ;  uncertainty r = 0.000059, k = 5.289397
         1        12     1        0.149795   239271.861572    ;  uncertainty r = 0.000046, k = 6.642336
         2         6     1        0.140026   363888.843848    ;  uncertainty r = 0.000070, k = 8.638117
         2        29     1        0.108704   333123.164551    ;  uncertainty r = 0.000047, k = 1.945747
         3         4     1        0.138473   367854.016357    ;  uncertainty r = 0.000038, k = 5.968240
         3         5     1        0.140256   361253.950439    ;  uncertainty r = 0.000049, k = 6.439366
         3        30     1        0.108847   335419.103906    ;  uncertainty r = 0.000007, k = 1.624567
         4        31     1        0.108675   333149.723145    ;  uncertainty r = 0.000025, k = 2.031625
         5         6     1        0.141755   401797.354785    ;  uncertainty r = 0.000066, k = 8.070514
         5         9     1        0.137355   299898.542529    ;  uncertainty r = 0.000054, k = 10.387935
         6         7     1        0.144233   227707.713574    ;  uncertainty r = 0.000105, k = 7.161742
         7         8     1        0.132796   464085.122559    ;  uncertainty r = 0.000107, k = 7.952511
         7        10     1        0.150186   237414.777441    ;  uncertainty r = 0.000064, k = 4.415855
         8         9     1        0.136819   297875.211816    ;  uncertainty r = 0.000034, k = 11.449749
         9        32     1        0.101020   416476.391699    ;  uncertainty r = 0.000031, k = 2.687214
        10        14     1        0.151795   233478.870459    ;  uncertainty r = 0.000063, k = 3.628626
        10        33     1        0.109648   308979.130029    ;  uncertainty r = 0.000023, k = 1.425937
        10        34     1        0.109648   308979.130029    ;  uncertainty r = 0.000023, k = 1.425937
        11        12     1        0.137647   308574.188086    ;  uncertainty r = 0.000075, k = 31.947847
        11        26     1        0.143772   267339.060059    ;  uncertainty r = 0.000042, k = 13.848101
        11        35     1        0.101287   416863.942871    ;  uncertainty r = 0.000055, k = 4.423641
        12        13     1        0.123473   763202.050781    ;  uncertainty r = 0.000074, k = 8.995985
        14        15     1        0.139794   355474.059863    ;  uncertainty r = 0.000028, k = 2.352255
        14        19     1        0.139794   355474.059863    ;  uncertainty r = 0.000028, k = 2.352255
        15        16     1        0.139338   362972.291455    ;  uncertainty r = 0.000020, k = 2.159620
        15        36     1        0.108902   333492.329004    ;  uncertainty r = 0.000022, k = 1.112447
        16        17     1        0.140253   353391.993799    ;  uncertainty r = 0.000028, k = 3.610472
        16        37     1        0.108868   334958.771973    ;  uncertainty r = 0.000030, k = 0.809239
        17        18     1        0.140253   353391.993799    ;  uncertainty r = 0.000028, k = 3.610472
        17        20     1        0.146652   274345.727832    ;  uncertainty r = 0.000041, k = 6.994044
        18        19     1        0.139338   362972.291455    ;  uncertainty r = 0.000020, k = 2.159629
        18        38     1        0.108868   334958.771973    ;  uncertainty r = 0.000030, k = 0.809236
        19        39     1        0.108902   333492.303467    ;  uncertainty r = 0.000022, k = 1.112442
        20        21     1        0.139092   414208.236719    ;  uncertainty r = 0.000013, k = 2.977949
        20        24     1        0.142427   245231.890918    ;  uncertainty r = 0.000028, k = 7.933802
        21        22     1        0.136086   293168.518262    ;  uncertainty r = 0.000038, k = 2.183978
        21        40     1        0.108275   339142.108008    ;  uncertainty r = 0.000029, k = 1.978626
        22        23     1        0.135372   281833.846729    ;  uncertainty r = 0.000063, k = 7.581417
        22        25     1        0.145228   253114.072949    ;  uncertainty r = 0.000011, k = 4.991527
        23        24     1        0.133356   453692.795898    ;  uncertainty r = 0.000038, k = 2.837553
        24        41     1        0.108433   337731.157178    ;  uncertainty r = 0.000017, k = 2.346807
        25        42     1        0.109330   311409.292432    ;  uncertainty r = 0.000011, k = 1.149464
        25        43     1        0.109330   311409.292432    ;  uncertainty r = 0.000011, k = 1.149464
        25        44     1        0.109330   311409.292432    ;  uncertainty r = 0.000011, k = 1.149464
        26        27     1        0.151003   202489.383936    ;  uncertainty r = 0.000036, k = 3.538277
        26        28     1        0.151003   202489.383936    ;  uncertainty r = 0.000036, k = 3.538277
        26        45     1        0.108655   313178.886426    ;  uncertainty r = 0.000015, k = 5.917157
        27        28     1        0.151625   214929.250488    ;  uncertainty r = 0.000059, k = 4.683182
        27        46     1        0.108611   313490.924365    ;  uncertainty r = 0.000012, k = 2.890196
        27        47     1        0.108611   313490.924365    ;  uncertainty r = 0.000012, k = 2.890196
        28        48     1        0.108611   313490.924365    ;  uncertainty r = 0.000012, k = 2.890196
        28        49     1        0.108611   313490.924365    ;  uncertainty r = 0.000012, k = 2.890196

[ angles ]
;       ai        aj        ak funct           theta             cth
         1         2         6     1      119.739761      552.912638    ;  uncertainty theta = 0.004964, k = 0.156778
         1         2        29     1      119.283546      270.281701    ;  uncertainty theta = 0.003640, k = 0.079147
         1         4         3     1      124.391586      529.740584    ;  uncertainty theta = 0.003176, k = 0.078560
         1         4        31     1      118.087624      271.490915    ;  uncertainty theta = 0.004152, k = 0.020487
         1        12        11     1      115.491989      455.848543    ;  uncertainty theta = 0.004216, k = 0.134440
         1        12        13     1      124.401260      536.588679    ;  uncertainty theta = 0.004763, k = 0.055378
         2         1         4     1      123.843895      468.479708    ;  uncertainty theta = 0.001991, k = 0.127103
         2         1        12     1      118.532143      329.925599    ;  uncertainty theta = 0.002431, k = 0.365294
         2         6         5     1      118.315529      399.076389    ;  uncertainty theta = 0.004256, k = 0.212046
         2         6         7     1      130.918259      342.168313    ;  uncertainty theta = 0.005405, k = 0.250889
         3         4        31     1      118.744156      286.071200    ;  uncertainty theta = 0.002061, k = 0.046265
         3         5         6     1      120.150856      384.411480    ;  uncertainty theta = 0.004787, k = 0.117462
         3         5         9     1      130.191513      397.568263    ;  uncertainty theta = 0.003272, k = 0.102030
         4         1        12     1      118.411156      337.686901    ;  uncertainty theta = 0.002337, k = 0.278227
         4         3         5     1      116.911804      527.050441    ;  uncertainty theta = 0.003851, k = 0.091122
         4         3        30     1      121.341171      280.864535    ;  uncertainty theta = 0.001836, k = 0.021185
         5         3        30     1      122.764755      290.284408    ;  uncertainty theta = 0.001693, k = 0.104531
         5         6         7     1      103.984818      709.379784    ;  uncertainty theta = 0.004798, k = 0.148845
         5         9         8     1      108.842224      996.723721    ;  uncertainty theta = 0.004081, k = 0.105419
         5         9        32     1      115.986206      285.859753    ;  uncertainty theta = 0.007695, k = 0.071788
         6         2        29     1      121.159302      289.811780    ;  uncertainty theta = 0.003770, k = 0.085073
         6         5         9     1      105.282448      701.291224    ;  uncertainty theta = 0.002660, k = 0.063345
         6         7         8     1      112.650650      860.633082    ;  uncertainty theta = 0.001637, k = 0.087469
         6         7        10     1      127.240479      339.369063    ;  uncertainty theta = 0.004499, k = 0.133350
         7         8         9     1      109.338829      911.050678    ;  uncertainty theta = 0.003490, k = 0.133446
         7        10        14     1      111.408203      538.561740    ;  uncertainty theta = 0.002686, k = 0.063134
         7        10        33     1      107.195206      404.091717    ;  uncertainty theta = 0.002677, k = 0.094742
         7        10        34     1      107.195206      404.091717    ;  uncertainty theta = 0.002677, k = 0.094742
         8         7        10     1      121.565857      408.256054    ;  uncertainty theta = 0.004764, k = 0.110630
         8         9        32     1      108.270935      348.057521    ;  uncertainty theta = 0.007607, k = 0.026261
        10        14        15     1      121.045166      422.581127    ;  uncertainty theta = 0.002275, k = 0.038270
        10        14        19     1      121.045166      422.581127    ;  uncertainty theta = 0.002275, k = 0.038270
        11        12        13     1      122.829002      775.674950    ;  uncertainty theta = 0.004338, k = 0.124522
        11        26        27     1      113.650063      368.098279    ;  uncertainty theta = 0.006995, k = 0.231082
        11        26        28     1      113.650063      368.098279    ;  uncertainty theta = 0.006995, k = 0.231082
        11        26        45     1      116.133774      291.484333    ;  uncertainty theta = 0.009819, k = 0.295608
        12        11        26     1      116.361465      437.310229    ;  uncertainty theta = 0.007181, k = 0.200550
        12        11        35     1      116.091614      328.003772    ;  uncertainty theta = 0.003398, k = 0.096119
        14        10        33     1      107.837601      399.901237    ;  uncertainty theta = 0.002249, k = 0.057837
        14        10        34     1      107.837601      399.901237    ;  uncertainty theta = 0.002249, k = 0.057837
        14        15        16     1      121.318886      514.235568    ;  uncertainty theta = 0.001778, k = 0.059752
        14        15        36     1      119.166016      270.523857    ;  uncertainty theta = 0.002269, k = 0.008290
        14        19        18     1      121.318886      514.235568    ;  uncertainty theta = 0.001778, k = 0.059752
        14        19        39     1      119.166000      270.523857    ;  uncertainty theta = 0.002269, k = 0.008290
        15        14        19     1      118.819534      462.266433    ;  uncertainty theta = 0.001838, k = 0.080865
        15        16        17     1      121.217484      515.997661    ;  uncertainty theta = 0.001896, k = 0.077715
        15        16        37     1      119.997902      290.785989    ;  uncertainty theta = 0.002435, k = 0.029685
        16        15        36     1      119.867722      290.821262    ;  uncertainty theta = 0.002696, k = 0.045566
        16        17        18     1      118.904152      401.449329    ;  uncertainty theta = 0.000792, k = 0.077724
        16        17        20     1      121.709091      440.254499    ;  uncertainty theta = 0.000934, k = 0.108366
        17        16        37     1      119.095055      282.559209    ;  uncertainty theta = 0.001574, k = 0.076416
        17        18        19     1      121.217484      515.997661    ;  uncertainty theta = 0.001896, k = 0.077715
        17        18        38     1      119.095055      282.559113    ;  uncertainty theta = 0.001574, k = 0.076417
        17        20        21     1      127.697556      343.157780    ;  uncertainty theta = 0.004353, k = 0.177775
        17        20        24     1      126.731285      348.545089    ;  uncertainty theta = 0.003995, k = 0.207077
        18        17        20     1      121.709091      440.254499    ;  uncertainty theta = 0.000934, k = 0.108366
        18        19        39     1      119.867722      290.821262    ;  uncertainty theta = 0.002696, k = 0.045566
        19        18        38     1      119.997902      290.785989    ;  uncertainty theta = 0.002435, k = 0.029685
        20        21        22     1      107.786392      728.617782    ;  uncertainty theta = 0.002722, k = 0.171005
        20        21        40     1      129.337921      225.112173    ;  uncertainty theta = 0.003840, k = 0.127302
        20        24        23     1      112.792480      868.770035    ;  uncertainty theta = 0.004151, k = 0.098178
        20        24        41     1      126.058434      240.089592    ;  uncertainty theta = 0.003930, k = 0.061937
        21        20        24     1      104.376785      682.871562    ;  uncertainty theta = 0.005377, k = 0.161868
        21        22        23     1      109.875755      985.972854    ;  uncertainty theta = 0.001972, k = 0.104814
        21        22        25     1      122.678429      402.059506    ;  uncertainty theta = 0.001716, k = 0.122019
        22        21        40     1      118.090332      269.140033    ;  uncertainty theta = 0.002835, k = 0.151929
        22        23        24     1      106.284325      901.234404    ;  uncertainty theta = 0.001454, k = 0.058730
        22        25        42     1      108.689758      466.172430    ;  uncertainty theta = 0.001193, k = 0.023318
        22        25        43     1      108.689758      466.172430    ;  uncertainty theta = 0.001193, k = 0.023318
        22        25        44     1      108.689758      466.172430    ;  uncertainty theta = 0.001193, k = 0.023318
        23        22        25     1      116.723465      468.949431    ;  uncertainty theta = 0.002619, k = 0.085339
        23        24        41     1      118.687271      285.500605    ;  uncertainty theta = 0.004102, k = 0.050180
        26        11        35     1      112.590530      326.426888    ;  uncertainty theta = 0.003340, k = 0.200764
        26        27        28     1       59.951569      167.360000    ;  uncertainty theta = 0.028935, k = 0.000000
        26        27        46     1      108.449997      217.946284    ;  uncertainty theta = 0.003230, k = 0.156683
        26        27        47     1      108.449997      217.946284    ;  uncertainty theta = 0.003230, k = 0.156683
        26        28        27     1       59.951569      167.360000    ;  uncertainty theta = 0.028935, k = 0.000000
        26        28        48     1      108.449997      217.946284    ;  uncertainty theta = 0.003230, k = 0.156683
        26        28        49     1      108.449997      217.946284    ;  uncertainty theta = 0.003230, k = 0.156683
        27        26        28     1       58.265881      167.360000    ;  uncertainty theta = 0.016161, k = 0.000000
        27        26        45     1      109.268105      172.657641    ;  uncertainty theta = 0.010980, k = 0.185735
        27        28        48     1      109.732193      214.618464    ;  uncertainty theta = 0.002733, k = 0.116044
        27        28        49     1      109.732193      214.618464    ;  uncertainty theta = 0.002733, k = 0.116044
        28        26        45     1      109.268105      172.657641    ;  uncertainty theta = 0.010980, k = 0.185735
        28        27        46     1      109.732193      214.618464    ;  uncertainty theta = 0.002733, k = 0.116044
        28        27        47     1      109.732193      214.618464    ;  uncertainty theta = 0.002733, k = 0.116044
        33        10        34     1      104.257248      312.827994    ;  uncertainty theta = 0.003792, k = 0.040478
        42        25        43     1      107.724472      320.089279    ;  uncertainty theta = 0.001790, k = 0.014894
        42        25        44     1      107.724472      320.089279    ;  uncertainty theta = 0.001790, k = 0.014894
        43        25        44     1      107.724472      320.089279    ;  uncertainty theta = 0.001790, k = 0.014894
        46        27        47     1      114.467178      200.627751    ;  uncertainty theta = 0.003275, k = 0.081789
        48        28        49     1      114.467178      200.627799    ;  uncertainty theta = 0.003275, k = 0.081790

[ dihedrals ] ; propers for gromacs 4.5 or higher, use funct 9
;       ai        aj        ak        al funct           phase               k        pn
         1         2         6         5     9        0.000000        0.097017         1    ;  uncertainty k = 0.366844
         1         2         6         5     9      180.000000       13.058467         2    ;  uncertainty k = 0.161494
         1         2         6         5     9        0.000000       -1.377084         3    ;  uncertainty k = 0.387447
         1         2         6         5     9      180.000000        0.809666         4    ;  uncertainty k = 0.192973
         1         2         6         7     9        0.000000        0.326554         1    ;  uncertainty k = 0.223150
         1         2         6         7     9      180.000000        8.160228         2    ;  uncertainty k = 0.406680
         1         2         6         7     9        0.000000        0.681124         3    ;  uncertainty k = 0.253686
         1         2         6         7     9      180.000000        1.241659         4    ;  uncertainty k = 0.129136
         1         4         3         5     9        0.000000       -0.026039         1    ;  uncertainty k = 0.197427
         1         4         3         5     9      180.000000       16.598294         2    ;  uncertainty k = 0.229756
         1         4         3         5     9        0.000000       -0.168310         3    ;  uncertainty k = 0.468735
         1         4         3         5     9      180.000000        0.705594         4    ;  uncertainty k = 0.224539
         1         4         3        30     9        0.000000       -0.043680         1    ;  uncertainty k = 0.135985
         1         4         3        30     9      180.000000        9.769355         2    ;  uncertainty k = 0.667042
         1         4         3        30     9        0.000000        1.473982         3    ;  uncertainty k = 0.261516
         1         4         3        30     9      180.000000        1.822834         4    ;  uncertainty k = 0.315157
         1        12        11        26     9        0.000000        3.231492         1    ;  uncertainty k = 0.866935
         1        12        11        26     9      180.000000       12.921624         2    ;  uncertainty k = 0.412079
         1        12        11        26     9        0.000000        2.102693         3    ;  uncertainty k = 0.315519
         1        12        11        26     9      180.000000       -1.028295         4    ;  uncertainty k = 0.401374
         1        12        11        35     9        0.000000       -0.864751         1    ;  uncertainty k = 0.977825
         1        12        11        35     9      180.000000        7.736040         2    ;  uncertainty k = 0.700994
         1        12        11        35     9        0.000000        2.936337         3    ;  uncertainty k = 0.217751
         1        12        11        35     9      180.000000        0.117159         4    ;  uncertainty k = 0.505547
         2         1         4         3     9        0.000000       -0.038192         1    ;  uncertainty k = 0.238338
         2         1         4         3     9      180.000000        9.092816         2    ;  uncertainty k = 0.327237
         2         1         4         3     9        0.000000       -0.405136         3    ;  uncertainty k = 0.417942
         2         1         4         3     9      180.000000        1.129491         4    ;  uncertainty k = 0.240769
         2         1         4        31     9        0.000000        0.146575         1    ;  uncertainty k = 0.440959
         2         1         4        31     9      180.000000        6.471013         2    ;  uncertainty k = 0.423469
         2         1         4        31     9        0.000000        1.194998         3    ;  uncertainty k = 0.227594
         2         1         4        31     9      180.000000        1.550637         4    ;  uncertainty k = 0.229700
         2         1        12        11     9        0.000000       -0.463737         1    ;  uncertainty k = 0.081043
         2         1        12        11     9      180.000000        3.176188         2    ;  uncertainty k = 0.342764
         2         1        12        11     9        0.000000        0.256386         3    ;  uncertainty k = 0.197151
         2         1        12        11     9      180.000000       -0.184615         4    ;  uncertainty k = 0.078151
         2         1        12        13     9        0.000000       -0.112418         1    ;  uncertainty k = 0.520177
         2         1        12        13     9      180.000000        4.019908         2    ;  uncertainty k = 0.374200
         2         1        12        13     9        0.000000        0.388830         3    ;  uncertainty k = 0.278446
         2         1        12        13     9      180.000000       -0.051132         4    ;  uncertainty k = 0.127184
         2         6         5         3     9        0.000000       -0.393134         1    ;  uncertainty k = 0.421279
         2         6         5         3     9      180.000000        7.261196         2    ;  uncertainty k = 0.641401
         2         6         5         3     9        0.000000        0.262509         3    ;  uncertainty k = 0.220639
         2         6         5         3     9      180.000000        1.034053         4    ;  uncertainty k = 0.354004
         2         6         5         9     9        0.000000        0.073028         1    ;  uncertainty k = 0.663594
         2         6         5         9     9      180.000000        8.169307         2    ;  uncertainty k = 0.337071
         2         6         5         9     9        0.000000       -0.074991         3    ;  uncertainty k = 0.478752
         2         6         5         9     9      180.000000        1.259474         4    ;  uncertainty k = 0.351715
         2         6         7         8     9        0.000000        0.913256         1    ;  uncertainty k = 0.387787
         2         6         7         8     9      180.000000        6.207082         2    ;  uncertainty k = 0.280304
         2         6         7         8     9        0.000000        0.264842         3    ;  uncertainty k = 0.692979
         2         6         7         8     9      180.000000        0.847975         4    ;  uncertainty k = 0.108625
         2         6         7        10     9        0.000000       -0.688531         1    ;  uncertainty k = 1.023723
         2         6         7        10     9      180.000000        3.898353         2    ;  uncertainty k = 0.778019
         2         6         7        10     9        0.000000        1.364340         3    ;  uncertainty k = 0.287000
         2         6         7        10     9      180.000000        0.103505         4    ;  uncertainty k = 0.196368
         3         4         1        12     9        0.000000        0.073054         1    ;  uncertainty k = 0.358842
         3         4         1        12     9      180.000000        8.041875         2    ;  uncertainty k = 0.875452
         3         4         1        12     9        0.000000        1.489333         3    ;  uncertainty k = 0.235775
         3         4         1        12     9      180.000000        1.778866         4    ;  uncertainty k = 0.256914
         3         5         6         7     9        0.000000        0.039529         1    ;  uncertainty k = 0.454624
         3         5         6         7     9      180.000000        6.752464         2    ;  uncertainty k = 0.299383
         3         5         6         7     9        0.000000        0.184566         3    ;  uncertainty k = 0.443123
         3         5         6         7     9      180.000000        1.333062         4    ;  uncertainty k = 0.333350
         3         5         9         8     9        0.000000        0.851830         1    ;  uncertainty k = 1.080926
         3         5         9         8     9      180.000000        6.976261         2    ;  uncertainty k = 0.620103
         3         5         9         8     9        0.000000        0.547844         3    ;  uncertainty k = 0.692413
         3         5         9         8     9      180.000000        0.355562         4    ;  uncertainty k = 0.199816
         3         5         9        32     9        0.000000        1.678012         1    ;  uncertainty k = 1.047142
         3         5         9        32     9      180.000000        1.771471         2    ;  uncertainty k = 0.514806
         3         5         9        32     9        0.000000        1.346547         3    ;  uncertainty k = 0.533570
         3         5         9        32     9      180.000000        0.077494         4    ;  uncertainty k = 0.144083
         4         1         2         6     9        0.000000        0.038694         1    ;  uncertainty k = 0.442116
         4         1         2         6     9      180.000000       12.683805         2    ;  uncertainty k = 0.505642
         4         1         2         6     9        0.000000       -0.023358         3    ;  uncertainty k = 0.330739
         4         1         2         6     9      180.000000        1.098064         4    ;  uncertainty k = 0.395926
         4         1         2        29     9        0.000000        0.277193         1    ;  uncertainty k = 0.230314
         4         1         2        29     9      180.000000        8.070676         2    ;  uncertainty k = 0.370991
         4         1         2        29     9        0.000000        1.337627         3    ;  uncertainty k = 0.261066
         4         1         2        29     9      180.000000        1.712204         4    ;  uncertainty k = 0.290508
         4         1        12        11     9        0.000000        0.148690         1    ;  uncertainty k = 0.936011
         4         1        12        11     9      180.000000        3.350637         2    ;  uncertainty k = 0.231708
         4         1        12        11     9        0.000000        0.214157         3    ;  uncertainty k = 0.194838
         4         1        12        11     9      180.000000       -0.172427         4    ;  uncertainty k = 0.068084
         4         1        12        13     9        0.000000       -1.054104         1    ;  uncertainty k = 0.331106
         4         1        12        13     9      180.000000        3.793099         2    ;  uncertainty k = 0.276155
         4         1        12        13     9        0.000000        0.384443         3    ;  uncertainty k = 0.226546
         4         1        12        13     9      180.000000       -0.039438         4    ;  uncertainty k = 0.113904
         4         3         5         6     9        0.000000       -0.023447         1    ;  uncertainty k = 0.340074
         4         3         5         6     9      180.000000       12.153703         2    ;  uncertainty k = 0.165954
         4         3         5         6     9        0.000000       -1.429576         3    ;  uncertainty k = 0.452811
         4         3         5         6     9      180.000000        0.802701         4    ;  uncertainty k = 0.242751
         4         3         5         9     9        0.000000        0.100391         1    ;  uncertainty k = 0.320988
         4         3         5         9     9      180.000000       10.102985         2    ;  uncertainty k = 0.696095
         4         3         5         9     9        0.000000        0.790590         3    ;  uncertainty k = 0.242088
         4         3         5         9     9      180.000000        1.175775         4    ;  uncertainty k = 0.259223
         5         3         4        31     9        0.000000       -0.023228         1    ;  uncertainty k = 0.222529
         5         3         4        31     9      180.000000       11.592273         2    ;  uncertainty k = 0.362063
         5         3         4        31     9        0.000000        1.450647         3    ;  uncertainty k = 0.236801
         5         3         4        31     9      180.000000        1.561341         4    ;  uncertainty k = 0.274951
         5         6         2        29     9        0.000000        0.000752         1    ;  uncertainty k = 0.462813
         5         6         2        29     9      180.000000        7.621840         2    ;  uncertainty k = 1.069067
         5         6         2        29     9        0.000000        1.280172         3    ;  uncertainty k = 0.281990
         5         6         2        29     9      180.000000        1.178517         4    ;  uncertainty k = 0.365958
         5         6         7         8     9        0.000000        0.519186         1    ;  uncertainty k = 0.586004
         5         6         7         8     9      180.000000       13.286019         2    ;  uncertainty k = 1.213128
         5         6         7         8     9        0.000000      -10.885433         3    ;  uncertainty k = 2.076862
         5         6         7         8     9      180.000000        2.087554         4    ;  uncertainty k = 0.616114
         5         6         7        10     9        0.000000        1.381005         1    ;  uncertainty k = 1.086959
         5         6         7        10     9      180.000000        8.393320         2    ;  uncertainty k = 0.564868
         5         6         7        10     9        0.000000        1.846460         3    ;  uncertainty k = 0.829549
         5         6         7        10     9      180.000000        0.288672         4    ;  uncertainty k = 0.324028
         5         9         8         7     9        0.000000       -0.732794         1    ;  uncertainty k = 0.954835
         5         9         8         7     9      180.000000       16.926646         2    ;  uncertainty k = 0.598355
         5         9         8         7     9        0.000000       -4.757043         3    ;  uncertainty k = 1.054235
         5         9         8         7     9      180.000000        1.043401         4    ;  uncertainty k = 0.539952
         6         2         1        12     9        0.000000       -0.055652         1    ;  uncertainty k = 0.335670
         6         2         1        12     9      180.000000       11.795854         2    ;  uncertainty k = 0.534467
         6         2         1        12     9        0.000000        1.538754         3    ;  uncertainty k = 0.138113
         6         2         1        12     9      180.000000        1.685016         4    ;  uncertainty k = 0.288313
         6         5         3        30     9        0.000000       -0.082808         1    ;  uncertainty k = 0.407511
         6         5         3        30     9      180.000000        6.515957         2    ;  uncertainty k = 1.128197
         6         5         3        30     9        0.000000        1.284129         3    ;  uncertainty k = 0.182900
         6         5         3        30     9      180.000000        1.092300         4    ;  uncertainty k = 0.490060
         6         5         9         8     9        0.000000        0.199563         1    ;  uncertainty k = 0.535624
         6         5         9         8     9      180.000000       17.318015         2    ;  uncertainty k = 1.037583
         6         5         9         8     9        0.000000       -8.693972         3    ;  uncertainty k = 1.678250
         6         5         9         8     9      180.000000        0.786245         4    ;  uncertainty k = 0.551361
         6         5         9        32     9        0.000000        4.181896         1    ;  uncertainty k = 2.136596
         6         5         9        32     9      180.000000        6.077364         2    ;  uncertainty k = 1.359048
         6         5         9        32     9        0.000000        1.446964         3    ;  uncertainty k = 0.313495
         6         5         9        32     9      180.000000       -0.008295         4    ;  uncertainty k = 0.147352
         6         7         8         9     9        0.000000       -0.386726         1    ;  uncertainty k = 0.588577
         6         7         8         9     9      180.000000       24.987016         2    ;  uncertainty k = 0.243297
         6         7         8         9     9        0.000000       -4.381029         3    ;  uncertainty k = 0.979814
         6         7         8         9     9      180.000000        1.986215         4    ;  uncertainty k = 0.353830
         6         7        10        14     9        0.000000       -0.267681         1    ;  uncertainty k = 0.593909
         6         7        10        14     9      180.000000        0.982479         2    ;  uncertainty k = 0.476022
         6         7        10        14     9        0.000000        0.994773         3    ;  uncertainty k = 0.176077
         6         7        10        14     9      180.000000        0.177497         4    ;  uncertainty k = 0.111607
         6         7        10        33     9        0.000000       -1.168958         1    ;  uncertainty k = 0.284668
         6         7        10        33     9      180.000000        1.771679         2    ;  uncertainty k = 0.490767
         6         7        10        33     9        0.000000        0.837385         3    ;  uncertainty k = 0.169037
         6         7        10        33     9      180.000000        0.104354         4    ;  uncertainty k = 0.068589
         6         7        10        34     9        0.000000       -1.168958         1    ;  uncertainty k = 0.284668
         6         7        10        34     9      180.000000        1.771679         2    ;  uncertainty k = 0.490767
         6         7        10        34     9        0.000000        0.837385         3    ;  uncertainty k = 0.169037
         6         7        10        34     9      180.000000        0.104354         4    ;  uncertainty k = 0.068589
         7         6         2        29     9        0.000000       -0.047940         1    ;  uncertainty k = 0.316988
         7         6         2        29     9      180.000000        5.567798         2    ;  uncertainty k = 0.829659
         7         6         2        29     9        0.000000        1.148160         3    ;  uncertainty k = 0.242783
         7         6         2        29     9      180.000000        0.675969         4    ;  uncertainty k = 0.307224
         7         6         5         9     9        0.000000       -0.360016         1    ;  uncertainty k = 0.340589
         7         6         5         9     9      180.000000       12.173777         2    ;  uncertainty k = 0.701359
         7         6         5         9     9        0.000000       -3.649526         3    ;  uncertainty k = 1.604158
         7         6         5         9     9      180.000000        1.631141         4    ;  uncertainty k = 0.584088
         7         8         9        32     9        0.000000        4.144135         1    ;  uncertainty k = 2.338578
         7         8         9        32     9      180.000000       12.929218         2    ;  uncertainty k = 0.107569
         7         8         9        32     9        0.000000        1.684855         3    ;  uncertainty k = 1.042986
         7         8         9        32     9      180.000000       -0.435064         4    ;  uncertainty k = 0.243227
         7        10        14        15     9        0.000000        0.615450         1    ;  uncertainty k = 0.167630
         7        10        14        15     9      180.000000        1.853983         2    ;  uncertainty k = 0.188927
         7        10        14        15     9        0.000000        0.526773         3    ;  uncertainty k = 0.173391
         7        10        14        15     9      180.000000        0.244261         4    ;  uncertainty k = 0.069919
         7        10        14        19     9        0.000000        0.615450         1    ;  uncertainty k = 0.167630
         7        10        14        19     9      180.000000        1.853983         2    ;  uncertainty k = 0.188927
         7        10        14        19     9        0.000000        0.526773         3    ;  uncertainty k = 0.173391
         7        10        14        19     9      180.000000        0.244261         4    ;  uncertainty k = 0.069919
         8         7        10        14     9        0.000000        1.031421         1    ;  uncertainty k = 0.400690
         8         7        10        14     9      180.000000        1.557547         2    ;  uncertainty k = 0.289374
         8         7        10        14     9        0.000000        0.020179         3    ;  uncertainty k = 0.160875
         8         7        10        14     9      180.000000        0.136006         4    ;  uncertainty k = 0.098308
         8         7        10        33     9        0.000000        1.780982         1    ;  uncertainty k = 0.113031
         8         7        10        33     9      180.000000        2.205549         2    ;  uncertainty k = 0.265227
         8         7        10        33     9        0.000000        0.158854         3    ;  uncertainty k = 0.096052
         8         7        10        33     9      180.000000        0.111225         4    ;  uncertainty k = 0.047919
         8         7        10        34     9        0.000000        1.780982         1    ;  uncertainty k = 0.113031
         8         7        10        34     9      180.000000        2.205549         2    ;  uncertainty k = 0.265227
         8         7        10        34     9        0.000000        0.158854         3    ;  uncertainty k = 0.096052
         8         7        10        34     9      180.000000        0.111225         4    ;  uncertainty k = 0.047919
         9         5         3        30     9        0.000000        0.448575         1    ;  uncertainty k = 0.396446
         9         5         3        30     9      180.000000        5.638355         2    ;  uncertainty k = 0.858183
         9         5         3        30     9        0.000000        1.145651         3    ;  uncertainty k = 0.127058
         9         5         3        30     9      180.000000        0.744521         4    ;  uncertainty k = 0.319502
         9         8         7        10     9        0.000000       -0.553410         1    ;  uncertainty k = 0.837657
         9         8         7        10     9      180.000000       25.077413         2    ;  uncertainty k = 0.175016
         9         8         7        10     9        0.000000        2.419201         3    ;  uncertainty k = 0.621653
         9         8         7        10     9      180.000000        1.110046         4    ;  uncertainty k = 0.279838
        10        14        15        16     9        0.000000        0.169204         1    ;  uncertainty k = 0.242807
        10        14        15        16     9      180.000000        8.593729         2    ;  uncertainty k = 0.401443
        10        14        15        16     9        0.000000        1.459163         3    ;  uncertainty k = 0.363057
        10        14        15        16     9      180.000000        1.890470         4    ;  uncertainty k = 0.111180
        10        14        15        36     9        0.000000       -0.145242         1    ;  uncertainty k = 0.181744
        10        14        15        36     9      180.000000        7.615666         2    ;  uncertainty k = 0.278473
        10        14        15        36     9        0.000000        0.580734         3    ;  uncertainty k = 0.342497
        10        14        15        36     9      180.000000        0.989521         4    ;  uncertainty k = 0.234579
        10        14        19        18     9        0.000000        0.169204         1    ;  uncertainty k = 0.242807
        10        14        19        18     9      180.000000        8.593729         2    ;  uncertainty k = 0.401443
        10        14        19        18     9        0.000000        1.459163         3    ;  uncertainty k = 0.363057
        10        14        19        18     9      180.000000        1.890470         4    ;  uncertainty k = 0.111180
        10        14        19        39     9        0.000000       -0.145243         1    ;  uncertainty k = 0.181743
        10        14        19        39     9      180.000000        7.615666         2    ;  uncertainty k = 0.278472
        10        14        19        39     9        0.000000        0.580734         3    ;  uncertainty k = 0.342497
        10        14        19        39     9      180.000000        0.989521         4    ;  uncertainty k = 0.234579
        11        26        27        28     9        0.000000       73.573418         1    ;  uncertainty k = 0.286749
        11        26        27        28     9      180.000000       -2.493300         2    ;  uncertainty k = 5.561944
        11        26        27        28     9        0.000000      -13.237804         3    ;  uncertainty k = 2.487536
        11        26        27        28     9      180.000000       10.612830         4    ;  uncertainty k = 0.684960
        11        26        27        46     9        0.000000       -1.505076         1    ;  uncertainty k = 3.804073
        11        26        27        46     9      180.000000       -2.823735         2    ;  uncertainty k = 1.664475
        11        26        27        46     9        0.000000        0.781944         3    ;  uncertainty k = 0.624651
        11        26        27        46     9      180.000000       -0.780847         4    ;  uncertainty k = 0.325439
        11        26        27        47     9        0.000000       -1.505076         1    ;  uncertainty k = 3.804073
        11        26        27        47     9      180.000000       -2.823735         2    ;  uncertainty k = 1.664475
        11        26        27        47     9        0.000000        0.781944         3    ;  uncertainty k = 0.624651
        11        26        27        47     9      180.000000       -0.780847         4    ;  uncertainty k = 0.325439
        11        26        28        27     9        0.000000       73.573418         1    ;  uncertainty k = 0.286749
        11        26        28        27     9      180.000000       -2.493300         2    ;  uncertainty k = 5.561944
        11        26        28        27     9        0.000000      -13.237804         3    ;  uncertainty k = 2.487536
        11        26        28        27     9      180.000000       10.612830         4    ;  uncertainty k = 0.684960
        11        26        28        48     9        0.000000       -1.505076         1    ;  uncertainty k = 3.804073
        11        26        28        48     9      180.000000       -2.823735         2    ;  uncertainty k = 1.664475
        11        26        28        48     9        0.000000        0.781944         3    ;  uncertainty k = 0.624651
        11        26        28        48     9      180.000000       -0.780847         4    ;  uncertainty k = 0.325439
        11        26        28        49     9        0.000000       -1.505076         1    ;  uncertainty k = 3.804073
        11        26        28        49     9      180.000000       -2.823735         2    ;  uncertainty k = 1.664475
        11        26        28        49     9        0.000000        0.781944         3    ;  uncertainty k = 0.624651
        11        26        28        49     9      180.000000       -0.780847         4    ;  uncertainty k = 0.325439
        12         1         2        29     9        0.000000       -0.139399         1    ;  uncertainty k = 0.373984
        12         1         2        29     9      180.000000        8.523947         2    ;  uncertainty k = 0.480469
        12         1         2        29     9        0.000000        1.155021         3    ;  uncertainty k = 0.198069
        12         1         2        29     9      180.000000        1.217614         4    ;  uncertainty k = 0.230698
        12         1         4        31     9        0.000000       -0.061701         1    ;  uncertainty k = 0.397044
        12         1         4        31     9      180.000000        7.686465         2    ;  uncertainty k = 0.450149
        12         1         4        31     9        0.000000        0.916326         3    ;  uncertainty k = 0.210234
        12         1         4        31     9      180.000000        0.964666         4    ;  uncertainty k = 0.247218
        12        11        26        27     9        0.000000       -0.253192         1    ;  uncertainty k = 0.495333
        12        11        26        27     9      180.000000        0.268648         2    ;  uncertainty k = 0.518030
        12        11        26        27     9        0.000000        0.325171         3    ;  uncertainty k = 0.118389
        12        11        26        27     9      180.000000        0.454863         4    ;  uncertainty k = 0.107551
        12        11        26        28     9        0.000000       -0.253192         1    ;  uncertainty k = 0.495333
        12        11        26        28     9      180.000000        0.268648         2    ;  uncertainty k = 0.518030
        12        11        26        28     9        0.000000        0.325171         3    ;  uncertainty k = 0.118389
        12        11        26        28     9      180.000000        0.454863         4    ;  uncertainty k = 0.107551
        12        11        26        45     9        0.000000        2.250032         1    ;  uncertainty k = 0.791238
        12        11        26        45     9      180.000000        0.366180         2    ;  uncertainty k = 0.531127
        12        11        26        45     9        0.000000        0.723056         3    ;  uncertainty k = 0.137197
        12        11        26        45     9      180.000000        0.341651         4    ;  uncertainty k = 0.086185
        13        12        11        26     9        0.000000        2.550964         1    ;  uncertainty k = 0.785732
        13        12        11        26     9      180.000000       10.349247         2    ;  uncertainty k = 0.254782
        13        12        11        26     9        0.000000        1.010660         3    ;  uncertainty k = 0.484781
        13        12        11        26     9      180.000000       -0.077734         4    ;  uncertainty k = 0.236353
        13        12        11        35     9        0.000000        3.246026         1    ;  uncertainty k = 1.027323
        13        12        11        35     9      180.000000       13.895525         2    ;  uncertainty k = 0.174826
        13        12        11        35     9        0.000000        1.448395         3    ;  uncertainty k = 0.133245
        13        12        11        35     9      180.000000       -0.632211         4    ;  uncertainty k = 0.255915
        14        15        16        17     9        0.000000       -0.087057         1    ;  uncertainty k = 0.154901
        14        15        16        17     9      180.000000       13.600436         2    ;  uncertainty k = 0.230971
        14        15        16        17     9        0.000000       -0.751784         3    ;  uncertainty k = 0.436421
        14        15        16        17     9      180.000000        0.777514         4    ;  uncertainty k = 0.245178
        14        15        16        37     9        0.000000        0.010829         1    ;  uncertainty k = 0.163132
        14        15        16        37     9      180.000000        7.805433         2    ;  uncertainty k = 0.422071
        14        15        16        37     9        0.000000        1.391790         3    ;  uncertainty k = 0.234314
        14        15        16        37     9      180.000000        1.880931         4    ;  uncertainty k = 0.189420
        14        19        18        17     9        0.000000       -0.087057         1    ;  uncertainty k = 0.154901
        14        19        18        17     9      180.000000       13.600436         2    ;  uncertainty k = 0.230971
        14        19        18        17     9        0.000000       -0.751784         3    ;  uncertainty k = 0.436421
        14        19        18        17     9      180.000000        0.777514         4    ;  uncertainty k = 0.245178
        14        19        18        38     9        0.000000        0.010827         1    ;  uncertainty k = 0.163132
        14        19        18        38     9      180.000000        7.805433         2    ;  uncertainty k = 0.422073
        14        19        18        38     9        0.000000        1.391790         3    ;  uncertainty k = 0.234314
        14        19        18        38     9      180.000000        1.880931         4    ;  uncertainty k = 0.189420
        15        14        10        33     9        0.000000       -0.300138         1    ;  uncertainty k = 0.153189
        15        14        10        33     9      180.000000        1.928373         2    ;  uncertainty k = 0.130920
        15        14        10        33     9        0.000000        0.360376         3    ;  uncertainty k = 0.118491
        15        14        10        33     9      180.000000        0.117080         4    ;  uncertainty k = 0.032968
        15        14        10        34     9        0.000000       -0.300138         1    ;  uncertainty k = 0.153189
        15        14        10        34     9      180.000000        1.928373         2    ;  uncertainty k = 0.130920
        15        14        10        34     9        0.000000        0.360376         3    ;  uncertainty k = 0.118491
        15        14        10        34     9      180.000000        0.117080         4    ;  uncertainty k = 0.032968
        15        14        19        18     9        0.000000       -0.141019         1    ;  uncertainty k = 0.190132
        15        14        19        18     9      180.000000       11.565169         2    ;  uncertainty k = 0.450751
        15        14        19        18     9        0.000000       -0.482803         3    ;  uncertainty k = 0.323947
        15        14        19        18     9      180.000000        0.820385         4    ;  uncertainty k = 0.428180
        15        14        19        39     9        0.000000        0.161510         1    ;  uncertainty k = 0.189284
        15        14        19        39     9      180.000000        7.143526         2    ;  uncertainty k = 0.548274
        15        14        19        39     9        0.000000        1.383620         3    ;  uncertainty k = 0.306740
        15        14        19        39     9      180.000000        1.646182         4    ;  uncertainty k = 0.144811
        15        16        17        18     9        0.000000        0.099530         1    ;  uncertainty k = 0.198850
        15        16        17        18     9      180.000000       10.864272         2    ;  uncertainty k = 0.250101
        15        16        17        18     9        0.000000       -0.460426         3    ;  uncertainty k = 0.291547
        15        16        17        18     9      180.000000        0.910602         4    ;  uncertainty k = 0.279798
        15        16        17        20     9        0.000000       -0.069350         1    ;  uncertainty k = 0.292775
        15        16        17        20     9      180.000000        8.942093         2    ;  uncertainty k = 0.563576
        15        16        17        20     9        0.000000        1.225126         3    ;  uncertainty k = 0.296630
        15        16        17        20     9      180.000000        1.608135         4    ;  uncertainty k = 0.239057
        16        15        14        19     9        0.000000       -0.141019         1    ;  uncertainty k = 0.190132
        16        15        14        19     9      180.000000       11.565169         2    ;  uncertainty k = 0.450751
        16        15        14        19     9        0.000000       -0.482803         3    ;  uncertainty k = 0.323947
        16        15        14        19     9      180.000000        0.820385         4    ;  uncertainty k = 0.428180
        16        17        18        19     9        0.000000        0.099530         1    ;  uncertainty k = 0.198850
        16        17        18        19     9      180.000000       10.864272         2    ;  uncertainty k = 0.250101
        16        17        18        19     9        0.000000       -0.460426         3    ;  uncertainty k = 0.291547
        16        17        18        19     9      180.000000        0.910602         4    ;  uncertainty k = 0.279798
        16        17        18        38     9        0.000000        0.071629         1    ;  uncertainty k = 0.210521
        16        17        18        38     9      180.000000        6.731318         2    ;  uncertainty k = 0.652358
        16        17        18        38     9        0.000000        1.402558         3    ;  uncertainty k = 0.275742
        16        17        18        38     9      180.000000        1.629461         4    ;  uncertainty k = 0.263941
        16        17        20        21     9        0.000000        0.364742         1    ;  uncertainty k = 0.617618
        16        17        20        21     9      180.000000        2.957626         2    ;  uncertainty k = 0.176252
        16        17        20        21     9        0.000000        0.337574         3    ;  uncertainty k = 0.277333
        16        17        20        21     9      180.000000       -0.075996         4    ;  uncertainty k = 0.052358
        16        17        20        24     9        0.000000        0.212085         1    ;  uncertainty k = 0.583246
        16        17        20        24     9      180.000000        2.756721         2    ;  uncertainty k = 0.102989
        16        17        20        24     9        0.000000        0.399155         3    ;  uncertainty k = 0.207054
        16        17        20        24     9      180.000000       -0.145894         4    ;  uncertainty k = 0.054997
        17        16        15        36     9        0.000000        0.051679         1    ;  uncertainty k = 0.047053
        17        16        15        36     9      180.000000        8.110356         2    ;  uncertainty k = 0.308213
        17        16        15        36     9        0.000000        1.348836         3    ;  uncertainty k = 0.262064
        17        16        15        36     9      180.000000        1.847919         4    ;  uncertainty k = 0.146536
        17        18        19        39     9        0.000000        0.051679         1    ;  uncertainty k = 0.047053
        17        18        19        39     9      180.000000        8.110356         2    ;  uncertainty k = 0.308214
        17        18        19        39     9        0.000000        1.348837         3    ;  uncertainty k = 0.262065
        17        18        19        39     9      180.000000        1.847919         4    ;  uncertainty k = 0.146536
        17        20        21        22     9        0.000000        0.730829         1    ;  uncertainty k = 0.745969
        17        20        21        22     9      180.000000       14.124868         2    ;  uncertainty k = 0.381349
        17        20        21        22     9        0.000000        1.366411         3    ;  uncertainty k = 0.224812
        17        20        21        22     9      180.000000        0.828718         4    ;  uncertainty k = 0.243932
        17        20        21        40     9        0.000000        0.487086         1    ;  uncertainty k = 0.482656
        17        20        21        40     9      180.000000        6.408018         2    ;  uncertainty k = 0.855931
        17        20        21        40     9        0.000000        1.305884         3    ;  uncertainty k = 0.462346
        17        20        21        40     9      180.000000        0.400447         4    ;  uncertainty k = 0.122561
        17        20        24        23     9        0.000000        0.856900         1    ;  uncertainty k = 1.194888
        17        20        24        23     9      180.000000       12.441670         2    ;  uncertainty k = 0.564932
        17        20        24        23     9        0.000000        1.830358         3    ;  uncertainty k = 0.514365
        17        20        24        23     9      180.000000        0.550073         4    ;  uncertainty k = 0.201764
        17        20        24        41     9        0.000000        0.304653         1    ;  uncertainty k = 0.808439
        17        20        24        41     9      180.000000        5.213596         2    ;  uncertainty k = 0.592555
        17        20        24        41     9        0.000000        1.354869         3    ;  uncertainty k = 0.262334
        17        20        24        41     9      180.000000        0.295532         4    ;  uncertainty k = 0.033191
        18        17        16        37     9        0.000000        0.071629         1    ;  uncertainty k = 0.210521
        18        17        16        37     9      180.000000        6.731320         2    ;  uncertainty k = 0.652358
        18        17        16        37     9        0.000000        1.402558         3    ;  uncertainty k = 0.275743
        18        17        16        37     9      180.000000        1.629461         4    ;  uncertainty k = 0.263941
        18        17        20        21     9        0.000000        0.364742         1    ;  uncertainty k = 0.617618
        18        17        20        21     9      180.000000        2.957626         2    ;  uncertainty k = 0.176252
        18        17        20        21     9        0.000000        0.337574         3    ;  uncertainty k = 0.277333
        18        17        20        21     9      180.000000       -0.075996         4    ;  uncertainty k = 0.052358
        18        17        20        24     9        0.000000        0.212085         1    ;  uncertainty k = 0.583246
        18        17        20        24     9      180.000000        2.756721         2    ;  uncertainty k = 0.102989
        18        17        20        24     9        0.000000        0.399155         3    ;  uncertainty k = 0.207054
        18        17        20        24     9      180.000000       -0.145894         4    ;  uncertainty k = 0.054997
        19        14        10        33     9        0.000000       -0.300138         1    ;  uncertainty k = 0.153189
        19        14        10        33     9      180.000000        1.928373         2    ;  uncertainty k = 0.130920
        19        14        10        33     9        0.000000        0.360376         3    ;  uncertainty k = 0.118491
        19        14        10        33     9      180.000000        0.117080         4    ;  uncertainty k = 0.032968
        19        14        10        34     9        0.000000       -0.300138         1    ;  uncertainty k = 0.153189
        19        14        10        34     9      180.000000        1.928373         2    ;  uncertainty k = 0.130920
        19        14        10        34     9        0.000000        0.360376         3    ;  uncertainty k = 0.118491
        19        14        10        34     9      180.000000        0.117080         4    ;  uncertainty k = 0.032968
        19        14        15        36     9        0.000000        0.161510         1    ;  uncertainty k = 0.189285
        19        14        15        36     9      180.000000        7.143530         2    ;  uncertainty k = 0.548274
        19        14        15        36     9        0.000000        1.383620         3    ;  uncertainty k = 0.306740
        19        14        15        36     9      180.000000        1.646182         4    ;  uncertainty k = 0.144812
        19        18        17        20     9        0.000000       -0.069350         1    ;  uncertainty k = 0.292775
        19        18        17        20     9      180.000000        8.942093         2    ;  uncertainty k = 0.563576
        19        18        17        20     9        0.000000        1.225126         3    ;  uncertainty k = 0.296630
        19        18        17        20     9      180.000000        1.608135         4    ;  uncertainty k = 0.239057
        20        17        16        37     9        0.000000       -0.274120         1    ;  uncertainty k = 0.256075
        20        17        16        37     9      180.000000        6.927144         2    ;  uncertainty k = 0.360004
        20        17        16        37     9        0.000000        0.845886         3    ;  uncertainty k = 0.114326
        20        17        16        37     9      180.000000        1.148769         4    ;  uncertainty k = 0.209269
        20        17        18        38     9        0.000000       -0.274120         1    ;  uncertainty k = 0.256076
        20        17        18        38     9      180.000000        6.927145         2    ;  uncertainty k = 0.360005
        20        17        18        38     9        0.000000        0.845887         3    ;  uncertainty k = 0.114326
        20        17        18        38     9      180.000000        1.148769         4    ;  uncertainty k = 0.209269
        20        21        22        23     9        0.000000       -0.316526         1    ;  uncertainty k = 1.047711
        20        21        22        23     9      180.000000       17.284046         2    ;  uncertainty k = 0.688330
        20        21        22        23     9        0.000000       -9.057288         3    ;  uncertainty k = 0.901701
        20        21        22        23     9      180.000000        1.215837         4    ;  uncertainty k = 0.532722
        20        21        22        25     9        0.000000        1.392889         1    ;  uncertainty k = 1.290774
        20        21        22        25     9      180.000000        9.638848         2    ;  uncertainty k = 0.368010
        20        21        22        25     9        0.000000        1.944195         3    ;  uncertainty k = 0.374373
        20        21        22        25     9      180.000000       -0.106447         4    ;  uncertainty k = 0.068874
        20        24        23        22     9        0.000000       -0.058010         1    ;  uncertainty k = 0.625462
        20        24        23        22     9      180.000000       24.452638         2    ;  uncertainty k = 0.460560
        20        24        23        22     9        0.000000       -7.646340         3    ;  uncertainty k = 0.486543
        20        24        23        22     9      180.000000        2.227719         4    ;  uncertainty k = 0.719303
        21        20        24        23     9        0.000000       -0.355455         1    ;  uncertainty k = 0.508595
        21        20        24        23     9      180.000000       15.046675         2    ;  uncertainty k = 1.070272
        21        20        24        23     9        0.000000       -9.005960         3    ;  uncertainty k = 0.840801
        21        20        24        23     9      180.000000        1.826438         4    ;  uncertainty k = 0.522282
        21        20        24        41     9        0.000000       -0.031464         1    ;  uncertainty k = 0.354506
        21        20        24        41     9      180.000000        8.072054         2    ;  uncertainty k = 0.597935
        21        20        24        41     9        0.000000        1.249978         3    ;  uncertainty k = 0.335798
        21        20        24        41     9      180.000000        0.512738         4    ;  uncertainty k = 0.162738
        21        22        23        24     9        0.000000       -0.225287         1    ;  uncertainty k = 0.828367
        21        22        23        24     9      180.000000       16.689018         2    ;  uncertainty k = 0.422253
        21        22        23        24     9        0.000000       -7.488213         3    ;  uncertainty k = 1.300321
        21        22        23        24     9      180.000000        1.602126         4    ;  uncertainty k = 0.425607
        21        22        25        42     9        0.000000       -0.009533         1    ;  uncertainty k = 0.351891
        21        22        25        42     9      180.000000       -1.118668         2    ;  uncertainty k = 0.175719
        21        22        25        42     9        0.000000        0.788902         3    ;  uncertainty k = 0.017444
        21        22        25        42     9      180.000000        0.208637         4    ;  uncertainty k = 0.050244
        21        22        25        43     9        0.000000       -0.009533         1    ;  uncertainty k = 0.351891
        21        22        25        43     9      180.000000       -1.118668         2    ;  uncertainty k = 0.175719
        21        22        25        43     9        0.000000        0.788902         3    ;  uncertainty k = 0.017444
        21        22        25        43     9      180.000000        0.208637         4    ;  uncertainty k = 0.050244
        21        22        25        44     9        0.000000       -0.009533         1    ;  uncertainty k = 0.351891
        21        22        25        44     9      180.000000       -1.118668         2    ;  uncertainty k = 0.175719
        21        22        25        44     9        0.000000        0.788902         3    ;  uncertainty k = 0.017444
        21        22        25        44     9      180.000000        0.208637         4    ;  uncertainty k = 0.050244
        22        21        20        24     9        0.000000        0.138355         1    ;  uncertainty k = 0.250165
        22        21        20        24     9      180.000000       18.966874         2    ;  uncertainty k = 0.230930
        22        21        20        24     9        0.000000       -9.822058         3    ;  uncertainty k = 0.542344
        22        21        20        24     9      180.000000        1.616629         4    ;  uncertainty k = 0.658377
        22        23        24        41     9        0.000000        0.455448         1    ;  uncertainty k = 0.742365
        22        23        24        41     9      180.000000       22.168886         2    ;  uncertainty k = 0.393002
        22        23        24        41     9        0.000000        1.308522         3    ;  uncertainty k = 0.565188
        22        23        24        41     9      180.000000        1.249378         4    ;  uncertainty k = 0.583038
        23        22        21        40     9        0.000000        0.954942         1    ;  uncertainty k = 0.636273
        23        22        21        40     9      180.000000       11.894603         2    ;  uncertainty k = 0.460933
        23        22        21        40     9        0.000000        1.730548         3    ;  uncertainty k = 0.518861
        23        22        21        40     9      180.000000        0.048447         4    ;  uncertainty k = 0.167333
        23        22        25        42     9        0.000000        1.398760         1    ;  uncertainty k = 0.579544
        23        22        25        42     9      180.000000       -1.134020         2    ;  uncertainty k = 0.131941
        23        22        25        42     9        0.000000        0.742560         3    ;  uncertainty k = 0.044341
        23        22        25        42     9      180.000000        0.251257         4    ;  uncertainty k = 0.037756
        23        22        25        43     9        0.000000        1.398760         1    ;  uncertainty k = 0.579544
        23        22        25        43     9      180.000000       -1.134020         2    ;  uncertainty k = 0.131941
        23        22        25        43     9        0.000000        0.742560         3    ;  uncertainty k = 0.044341
        23        22        25        43     9      180.000000        0.251257         4    ;  uncertainty k = 0.037756
        23        22        25        44     9        0.000000        1.398760         1    ;  uncertainty k = 0.579544
        23        22        25        44     9      180.000000       -1.134020         2    ;  uncertainty k = 0.131941
        23        22        25        44     9        0.000000        0.742560         3    ;  uncertainty k = 0.044341
        23        22        25        44     9      180.000000        0.251257         4    ;  uncertainty k = 0.037756
        24        20        21        40     9        0.000000        0.015435         1    ;  uncertainty k = 0.258046
        24        20        21        40     9      180.000000       10.338561         2    ;  uncertainty k = 0.277931
        24        20        21        40     9        0.000000        1.639009         3    ;  uncertainty k = 0.357902
        24        20        21        40     9      180.000000        0.594000         4    ;  uncertainty k = 0.198130
        24        23        22        25     9        0.000000        0.933315         1    ;  uncertainty k = 1.275516
        24        23        22        25     9      180.000000       13.272692         2    ;  uncertainty k = 0.326665
        24        23        22        25     9        0.000000        1.823279         3    ;  uncertainty k = 0.443014
        24        23        22        25     9      180.000000       -0.164134         4    ;  uncertainty k = 0.298893
        25        22        21        40     9        0.000000       -0.476540         1    ;  uncertainty k = 0.254767
        25        22        21        40     9      180.000000        3.142291         2    ;  uncertainty k = 0.652804
        25        22        21        40     9        0.000000        1.097292         3    ;  uncertainty k = 0.480723
        25        22        21        40     9      180.000000        0.022420         4    ;  uncertainty k = 0.193415
        26        27        28        48     9        0.000000       42.548703         1    ;  uncertainty k = 0.455179
        26        27        28        48     9      180.000000       -4.193808         2    ;  uncertainty k = 0.910377
        26        27        28        48     9        0.000000       -9.789365         3    ;  uncertainty k = 0.934934
        26        27        28        48     9      180.000000        4.489273         4    ;  uncertainty k = 0.248654
        26        27        28        49     9        0.000000       42.548703         1    ;  uncertainty k = 0.455179
        26        27        28        49     9      180.000000       -4.193808         2    ;  uncertainty k = 0.910377
        26        27        28        49     9        0.000000       -9.789365         3    ;  uncertainty k = 0.934934
        26        27        28        49     9      180.000000        4.489273         4    ;  uncertainty k = 0.248654
        26        28        27        46     9        0.000000       42.548703         1    ;  uncertainty k = 0.455179
        26        28        27        46     9      180.000000       -4.193808         2    ;  uncertainty k = 0.910377
        26        28        27        46     9        0.000000       -9.789365         3    ;  uncertainty k = 0.934934
        26        28        27        46     9      180.000000        4.489273         4    ;  uncertainty k = 0.248654
        26        28        27        47     9        0.000000       42.548703         1    ;  uncertainty k = 0.455179
        26        28        27        47     9      180.000000       -4.193808         2    ;  uncertainty k = 0.910377
        26        28        27        47     9        0.000000       -9.789365         3    ;  uncertainty k = 0.934934
        26        28        27        47     9      180.000000        4.489273         4    ;  uncertainty k = 0.248654
        27        26        11        35     9        0.000000        1.038179         1    ;  uncertainty k = 0.379503
        27        26        11        35     9      180.000000       -1.167147         2    ;  uncertainty k = 0.336047
        27        26        11        35     9        0.000000        0.318592         3    ;  uncertainty k = 0.262234
        27        26        11        35     9      180.000000        0.236444         4    ;  uncertainty k = 0.047801
        27        26        28        48     9        0.000000       42.747569         1    ;  uncertainty k = 0.285700
        27        26        28        48     9      180.000000       -4.074289         2    ;  uncertainty k = 0.744029
        27        26        28        48     9        0.000000      -10.181881         3    ;  uncertainty k = 0.784529
        27        26        28        48     9      180.000000        4.929582         4    ;  uncertainty k = 0.315650
        27        26        28        49     9        0.000000       42.747569         1    ;  uncertainty k = 0.285700
        27        26        28        49     9      180.000000       -4.074289         2    ;  uncertainty k = 0.744029
        27        26        28        49     9        0.000000      -10.181881         3    ;  uncertainty k = 0.784529
        27        26        28        49     9      180.000000        4.929582         4    ;  uncertainty k = 0.315650
        27        28        26        45     9        0.000000       49.523446         1    ;  uncertainty k = 0.225809
        27        28        26        45     9      180.000000       -2.976546         2    ;  uncertainty k = 1.730138
        27        28        26        45     9        0.000000      -10.825466         3    ;  uncertainty k = 1.078002
        27        28        26        45     9      180.000000        6.212765         4    ;  uncertainty k = 0.460849
        28        26        11        35     9        0.000000        1.038179         1    ;  uncertainty k = 0.379503
        28        26        11        35     9      180.000000       -1.167147         2    ;  uncertainty k = 0.336047
        28        26        11        35     9        0.000000        0.318592         3    ;  uncertainty k = 0.262234
        28        26        11        35     9      180.000000        0.236444         4    ;  uncertainty k = 0.047801
        28        26        27        46     9        0.000000       42.747569         1    ;  uncertainty k = 0.285700
        28        26        27        46     9      180.000000       -4.074289         2    ;  uncertainty k = 0.744029
        28        26        27        46     9        0.000000      -10.181881         3    ;  uncertainty k = 0.784529
        28        26        27        46     9      180.000000        4.929582         4    ;  uncertainty k = 0.315650
        28        26        27        47     9        0.000000       42.747569         1    ;  uncertainty k = 0.285700
        28        26        27        47     9      180.000000       -4.074289         2    ;  uncertainty k = 0.744029
        28        26        27        47     9        0.000000      -10.181881         3    ;  uncertainty k = 0.784529
        28        26        27        47     9      180.000000        4.929582         4    ;  uncertainty k = 0.315650
        28        27        26        45     9        0.000000       49.523446         1    ;  uncertainty k = 0.225809
        28        27        26        45     9      180.000000       -2.976546         2    ;  uncertainty k = 1.730138
        28        27        26        45     9        0.000000      -10.825466         3    ;  uncertainty k = 1.078002
        28        27        26        45     9      180.000000        6.212765         4    ;  uncertainty k = 0.460849
        30         3         4        31     9        0.000000       -0.100801         1    ;  uncertainty k = 0.442927
        30         3         4        31     9      180.000000        8.068112         2    ;  uncertainty k = 0.279241
        30         3         4        31     9        0.000000       -0.174064         3    ;  uncertainty k = 0.175758
        30         3         4        31     9      180.000000        0.287454         4    ;  uncertainty k = 0.200681
        35        11        26        45     9        0.000000       -1.281635         1    ;  uncertainty k = 0.757441
        35        11        26        45     9      180.000000       -0.853092         2    ;  uncertainty k = 0.332435
        35        11        26        45     9        0.000000        0.324002         3    ;  uncertainty k = 0.179614
        35        11        26        45     9      180.000000        0.056007         4    ;  uncertainty k = 0.141008
        36        15        16        37     9        0.000000       -0.105048         1    ;  uncertainty k = 0.079024
        36        15        16        37     9      180.000000        7.802567         2    ;  uncertainty k = 0.370707
        36        15        16        37     9        0.000000       -0.520984         3    ;  uncertainty k = 0.249529
        36        15        16        37     9      180.000000        0.209880         4    ;  uncertainty k = 0.188642
        38        18        19        39     9        0.000000       -0.105047         1    ;  uncertainty k = 0.079025
        38        18        19        39     9      180.000000        7.802566         2    ;  uncertainty k = 0.370707
        38        18        19        39     9        0.000000       -0.520984         3    ;  uncertainty k = 0.249530
        38        18        19        39     9      180.000000        0.209880         4    ;  uncertainty k = 0.188643
        45        26        27        46     9        0.000000        0.197879         1    ;  uncertainty k = 1.869024
        45        26        27        46     9      180.000000       -1.545562         2    ;  uncertainty k = 1.037805
        45        26        27        46     9        0.000000        0.707662         3    ;  uncertainty k = 0.203088
        45        26        27        46     9      180.000000       -0.756828         4    ;  uncertainty k = 0.098410
        45        26        27        47     9        0.000000        0.197879         1    ;  uncertainty k = 1.869024
        45        26        27        47     9      180.000000       -1.545562         2    ;  uncertainty k = 1.037805
        45        26        27        47     9        0.000000        0.707662         3    ;  uncertainty k = 0.203088
        45        26        27        47     9      180.000000       -0.756828         4    ;  uncertainty k = 0.098410
        45        26        28        48     9        0.000000        0.197879         1    ;  uncertainty k = 1.869024
        45        26        28        48     9      180.000000       -1.545562         2    ;  uncertainty k = 1.037805
        45        26        28        48     9        0.000000        0.707662         3    ;  uncertainty k = 0.203088
        45        26        28        48     9      180.000000       -0.756828         4    ;  uncertainty k = 0.098410
        45        26        28        49     9        0.000000        0.197879         1    ;  uncertainty k = 1.869024
        45        26        28        49     9      180.000000       -1.545562         2    ;  uncertainty k = 1.037805
        45        26        28        49     9        0.000000        0.707662         3    ;  uncertainty k = 0.203088
        45        26        28        49     9      180.000000       -0.756828         4    ;  uncertainty k = 0.098410
        46        27        28        48     9        0.000000        0.188151         1    ;  uncertainty k = 0.986995
        46        27        28        48     9      180.000000       -1.793491         2    ;  uncertainty k = 1.182741
        46        27        28        48     9        0.000000        0.934339         3    ;  uncertainty k = 0.409281
        46        27        28        48     9      180.000000       -0.653463         4    ;  uncertainty k = 0.129930
        46        27        28        49     9        0.000000        0.188151         1    ;  uncertainty k = 0.986995
        46        27        28        49     9      180.000000       -1.793491         2    ;  uncertainty k = 1.182741
        46        27        28        49     9        0.000000        0.934339         3    ;  uncertainty k = 0.409281
        46        27        28        49     9      180.000000       -0.653463         4    ;  uncertainty k = 0.129930
        47        27        28        48     9        0.000000        0.188151         1    ;  uncertainty k = 0.986995
        47        27        28        48     9      180.000000       -1.793491         2    ;  uncertainty k = 1.182741
        47        27        28        48     9        0.000000        0.934339         3    ;  uncertainty k = 0.409281
        47        27        28        48     9      180.000000       -0.653463         4    ;  uncertainty k = 0.129930
        47        27        28        49     9        0.000000        0.188151         1    ;  uncertainty k = 0.986995
        47        27        28        49     9      180.000000       -1.793491         2    ;  uncertainty k = 1.182741
        47        27        28        49     9        0.000000        0.934339         3    ;  uncertainty k = 0.409281
        47        27        28        49     9      180.000000       -0.653463         4    ;  uncertainty k = 0.129930

[ dihedrals ] ; impropers
;       ai        aj        ak        al funct           phase               k        pn
         1         2         4        12     4      180.000000        6.363479         2    ;  uncertainty k = 0.118126
         1         4        12         2     4      180.000000        6.363479         2    ;  uncertainty k = 0.118126
         1        12         2         4     4      180.000000        6.363479         2    ;  uncertainty k = 0.118126
         2         1         6        29     4      180.000000        5.335252         2    ;  uncertainty k = 0.218873
         2         6        29         1     4      180.000000        5.335252         2    ;  uncertainty k = 0.218873
         2        29         1         6     4      180.000000        5.335252         2    ;  uncertainty k = 0.218873
         3         4         5        30     4      180.000000        2.317245         2    ;  uncertainty k = 0.301349
         3         5        30         4     4      180.000000        2.317245         2    ;  uncertainty k = 0.301349
         3        30         4         5     4      180.000000        2.317245         2    ;  uncertainty k = 0.301349
         4         1         3        31     4      180.000000        4.302887         2    ;  uncertainty k = 0.159397
         4         3        31         1     4      180.000000        4.302887         2    ;  uncertainty k = 0.159397
         4        31         1         3     4      180.000000        4.302887         2    ;  uncertainty k = 0.159397
         5         3         6         9     4      180.000000        1.603037         2    ;  uncertainty k = 0.899835
         5         6         9         3     4      180.000000        1.603037         2    ;  uncertainty k = 0.899835
         5         9         3         6     4      180.000000        1.603037         2    ;  uncertainty k = 0.899835
         7         6         8        10     4      180.000000        7.571252         2    ;  uncertainty k = 0.247147
         7         8        10         6     4      180.000000        7.571252         2    ;  uncertainty k = 0.247147
         7        10         6         8     4      180.000000        7.571252         2    ;  uncertainty k = 0.247147
        12         1        11        13     4      180.000000       51.978179         2    ;  uncertainty k = 0.020724
        12        11        13         1     4      180.000000       51.978179         2    ;  uncertainty k = 0.020724
        12        13         1        11     4      180.000000       51.978179         2    ;  uncertainty k = 0.020724
        14        10        15        19     4      180.000000       13.443226         2    ;  uncertainty k = 0.081656
        14        15        19        10     4      180.000000       13.443226         2    ;  uncertainty k = 0.081656
        14        19        10        15     4      180.000000       13.443226         2    ;  uncertainty k = 0.081656
        15        14        16        36     4      180.000000        4.038197         2    ;  uncertainty k = 0.126249
        15        16        36        14     4      180.000000        4.038197         2    ;  uncertainty k = 0.126249
        15        36        14        16     4      180.000000        4.038197         2    ;  uncertainty k = 0.126249
        16        15        17        37     4      180.000000        3.634538         2    ;  uncertainty k = 0.167362
        16        17        37        15     4      180.000000        3.634538         2    ;  uncertainty k = 0.167362
        16        37        15        17     4      180.000000        3.634538         2    ;  uncertainty k = 0.167362
        17        16        18        20     4      180.000000       14.868719         2    ;  uncertainty k = 0.081810
        17        18        20        16     4      180.000000       14.868719         2    ;  uncertainty k = 0.081810
        17        20        16        18     4      180.000000       14.868719         2    ;  uncertainty k = 0.081810
        18        17        19        38     4      180.000000        3.634538         2    ;  uncertainty k = 0.167362
        18        19        38        17     4      180.000000        3.634538         2    ;  uncertainty k = 0.167362
        18        38        17        19     4      180.000000        3.634538         2    ;  uncertainty k = 0.167362
        19        14        18        39     4      180.000000        4.038198         2    ;  uncertainty k = 0.126249
        19        18        39        14     4      180.000000        4.038198         2    ;  uncertainty k = 0.126249
        19        39        14        18     4      180.000000        4.038198         2    ;  uncertainty k = 0.126249
        20        17        21        24     4      180.000000        2.273628         2    ;  uncertainty k = 0.479725
        20        21        24        17     4      180.000000        2.273628         2    ;  uncertainty k = 0.479725
        20        24        17        21     4      180.000000        2.273628         2    ;  uncertainty k = 0.479725
        21        20        22        40     4      180.000000        0.843031         2    ;  uncertainty k = 0.771057
        21        22        40        20     4      180.000000        0.843031         2    ;  uncertainty k = 0.771057
        21        40        20        22     4      180.000000        0.843031         2    ;  uncertainty k = 0.771057
        24        20        23        41     4      180.000000        0.319029         2    ;  uncertainty k = 0.442787
        24        23        41        20     4      180.000000        0.319029         2    ;  uncertainty k = 0.442787
        24        41        20        23     4      180.000000        0.319029         2    ;  uncertainty k = 0.442787

[ pairs ]
;       ai        aj funct
         1         5     1
         1         7     1
         1        26     1
         1        30     1
         1        35     1
         2         3     1
         2         8     1
         2         9     1
         2        10     1
         2        11     1
         2        13     1
         2        31     1
         3         7     1
         3         8     1
         3        12     1
         3        32     1
         4         6     1
         4         9     1
         4        11     1
         4        13     1
         4        29     1
         5        10     1
         5        29     1
         5        31     1
         6        12     1
         6        14     1
         6        30     1
         6        32     1
         6        33     1
         6        34     1
         7        15     1
         7        19     1
         7        29     1
         7        32     1
         8        14     1
         8        33     1
         8        34     1
         9        10     1
         9        30     1
        10        16     1
        10        18     1
        10        36     1
        10        39     1
        11        46     1
        11        47     1
        11        48     1
        11        49     1
        12        27     1
        12        28     1
        12        29     1
        12        31     1
        12        45     1
        13        26     1
        13        35     1
        14        17     1
        14        37     1
        14        38     1
        15        18     1
        15        20     1
        15        33     1
        15        34     1
        15        39     1
        16        19     1
        16        21     1
        16        24     1
        16        38     1
        17        22     1
        17        23     1
        17        36     1
        17        39     1
        17        40     1
        17        41     1
        18        21     1
        18        24     1
        18        37     1
        19        20     1
        19        33     1
        19        34     1
        19        36     1
        20        25     1
        20        37     1
        20        38     1
        21        41     1
        21        42     1
        21        43     1
        21        44     1
        22        41     1
        23        40     1
        23        42     1
        23        43     1
        23        44     1
        24        25     1
        24        40     1
        25        40     1
        27        35     1
        28        35     1
        30        31     1
        35        45     1
        36        37     1
        38        39     1
        45        46     1
        45        47     1
        45        48     1
        45        49     1
        46        48     1
        46        49     1
        47        48     1
        47        49     1
