; ITP file created by ByteFF-joint-25, 2026-02-17 09:06:52.342007

[ atomtypes ]
;name           bonded.type        at.num        mass        charge   ptype           sigma         epsilon
 c0bf                                   6      0.0000       0.00000       A     3.31557e-01     4.13208e-01    ;  uncertainty sigma = 0.000014, epsilon = 0.000725
 c1bf                                   6      0.0000       0.00000       A     3.31521e-01     4.13154e-01    ;  uncertainty sigma = 0.000007, epsilon = 0.000504
 c2bf                                   6      0.0000       0.00000       A     3.31518e-01     4.13309e-01    ;  uncertainty sigma = 0.000005, epsilon = 0.000825
 c3bf                                   6      0.0000       0.00000       A     3.31528e-01     4.13473e-01    ;  uncertainty sigma = 0.000007, epsilon = 0.000723
 c4bf                                   6      0.0000       0.00000       A     3.31513e-01     4.13127e-01    ;  uncertainty sigma = 0.000006, epsilon = 0.000908
 c5bf                                   6      0.0000       0.00000       A     3.31528e-01     4.13314e-01    ;  uncertainty sigma = 0.000008, epsilon = 0.000591
 c6bf                                   6      0.0000       0.00000       A     3.31510e-01     4.13718e-01    ;  uncertainty sigma = 0.000012, epsilon = 0.000573
 n7bf                                   7      0.0000       0.00000       A     3.38378e-01     3.93289e-01    ;  uncertainty sigma = 0.000011, epsilon = 0.000859
 n8bf                                   7      0.0000       0.00000       A     3.20594e-01     8.54239e-01    ;  uncertainty sigma = 0.000008, epsilon = 0.000871
 c9bf                                   6      0.0000       0.00000       A     3.39770e-01     4.50677e-01    ;  uncertainty sigma = 0.000014, epsilon = 0.000932
 n10bf                                  7      0.0000       0.00000       A     3.18159e-01     6.83348e-01    ;  uncertainty sigma = 0.000027, epsilon = 0.002280
 c11bf                                  6      0.0000       0.00000       A     3.31491e-01     4.13861e-01    ;  uncertainty sigma = 0.000017, epsilon = 0.000732
 o12bf                                  8      0.0000       0.00000       A     3.04826e-01     6.12797e-01    ;  uncertainty sigma = 0.000012, epsilon = 0.001105
 c13bf                                  6      0.0000       0.00000       A     3.31526e-01     4.13322e-01    ;  uncertainty sigma = 0.000007, epsilon = 0.000745
 c14bf                                  6      0.0000       0.00000       A     3.31523e-01     4.13371e-01    ;  uncertainty sigma = 0.000005, epsilon = 0.000423
 c15bf                                  6      0.0000       0.00000       A     3.31520e-01     4.13353e-01    ;  uncertainty sigma = 0.000004, epsilon = 0.000667
 c16bf                                  6      0.0000       0.00000       A     3.31533e-01     4.13284e-01    ;  uncertainty sigma = 0.000006, epsilon = 0.001098
 c17bf                                  6      0.0000       0.00000       A     3.31520e-01     4.13353e-01    ;  uncertainty sigma = 0.000004, epsilon = 0.000667
 c18bf                                  6      0.0000       0.00000       A     3.31523e-01     4.13371e-01    ;  uncertainty sigma = 0.000005, epsilon = 0.000423
 c19bf                                  6      0.0000       0.00000       A     3.31535e-01     4.13223e-01    ;  uncertainty sigma = 0.000005, epsilon = 0.000899
 c20bf                                  6      0.0000       0.00000       A     3.31521e-01     4.13333e-01    ;  uncertainty sigma = 0.000008, epsilon = 0.000598
 n21bf                                  7      0.0000       0.00000       A     3.20584e-01     8.54185e-01    ;  uncertainty sigma = 0.000011, epsilon = 0.001160
 n22bf                                  7      0.0000       0.00000       A     3.38434e-01     3.93690e-01    ;  uncertainty sigma = 0.000004, epsilon = 0.000785
 c23bf                                  6      0.0000       0.00000       A     3.31536e-01     4.13003e-01    ;  uncertainty sigma = 0.000006, epsilon = 0.000684
 c24bf                                  6      0.0000       0.00000       A     3.39777e-01     4.50912e-01    ;  uncertainty sigma = 0.000003, epsilon = 0.000595
 c25bf                                  6      0.0000       0.00000       A     3.39780e-01     4.51827e-01    ;  uncertainty sigma = 0.000032, epsilon = 0.000997
 c26bf                                  6      0.0000       0.00000       A     3.39813e-01     4.51990e-01    ;  uncertainty sigma = 0.000030, epsilon = 0.003258
 c27bf                                  6      0.0000       0.00000       A     3.39780e-01     4.51827e-01    ;  uncertainty sigma = 0.000032, epsilon = 0.000997
 f28bf                                  9      0.0000       0.00000       A     3.03422e-01     3.48302e-01    ;  uncertainty sigma = 0.000035, epsilon = 0.000717
 f29bf                                  9      0.0000       0.00000       A     3.03422e-01     3.48302e-01    ;  uncertainty sigma = 0.000035, epsilon = 0.000717
 h30bf                                  1      0.0000       0.00000       A     2.62578e-01     6.71601e-02    ;  uncertainty sigma = 0.000011, epsilon = 0.000803
 h31bf                                  1      0.0000       0.00000       A     2.62571e-01     6.70414e-02    ;  uncertainty sigma = 0.000009, epsilon = 0.000485
 h32bf                                  1      0.0000       0.00000       A     2.62555e-01     6.72036e-02    ;  uncertainty sigma = 0.000009, epsilon = 0.000652
 h33bf                                  1      0.0000       0.00000       A     1.10648e-01     4.14022e-02    ;  uncertainty sigma = 0.000065, epsilon = 0.000771
 h34bf                                  1      0.0000       0.00000       A     2.60075e-01     8.67590e-02    ;  uncertainty sigma = 0.000029, epsilon = 0.000876
 h35bf                                  1      0.0000       0.00000       A     2.60075e-01     8.67590e-02    ;  uncertainty sigma = 0.000029, epsilon = 0.000876
 h36bf                                  1      0.0000       0.00000       A     2.62562e-01     6.71169e-02    ;  uncertainty sigma = 0.000007, epsilon = 0.000513
 h37bf                                  1      0.0000       0.00000       A     2.62566e-01     6.70543e-02    ;  uncertainty sigma = 0.000011, epsilon = 0.000444
 h38bf                                  1      0.0000       0.00000       A     2.62566e-01     6.70543e-02    ;  uncertainty sigma = 0.000011, epsilon = 0.000444
 h39bf                                  1      0.0000       0.00000       A     2.62562e-01     6.71171e-02    ;  uncertainty sigma = 0.000007, epsilon = 0.000513
 h40bf                                  1      0.0000       0.00000       A     2.53668e-01     6.70573e-02    ;  uncertainty sigma = 0.000029, epsilon = 0.000503
 h41bf                                  1      0.0000       0.00000       A     2.53681e-01     6.72123e-02    ;  uncertainty sigma = 0.000016, epsilon = 0.000497
 h42bf                                  1      0.0000       0.00000       A     2.42209e-01     8.68411e-02    ;  uncertainty sigma = 0.000019, epsilon = 0.000599
 h43bf                                  1      0.0000       0.00000       A     2.42209e-01     8.68411e-02    ;  uncertainty sigma = 0.000019, epsilon = 0.000599
 h44bf                                  1      0.0000       0.00000       A     2.42209e-01     8.68411e-02    ;  uncertainty sigma = 0.000019, epsilon = 0.000599
 h45bf                                  1      0.0000       0.00000       A     2.42163e-01     8.65399e-02    ;  uncertainty sigma = 0.000031, epsilon = 0.001132
 h46bf                                  1      0.0000       0.00000       A     2.42163e-01     8.65399e-02    ;  uncertainty sigma = 0.000031, epsilon = 0.001132
 h47bf                                  1      0.0000       0.00000       A     2.42163e-01     8.65399e-02    ;  uncertainty sigma = 0.000031, epsilon = 0.001132
 h48bf                                  1      0.0000       0.00000       A     2.42163e-01     8.65400e-02    ;  uncertainty sigma = 0.000031, epsilon = 0.001132

[ moleculetype ]
;name             nrexcl
 MOL                   3

[ atoms ]
;       nr            type      resi   res      atom      cgnr      charge          mass ; qtot
         1            c0bf         1   UNL        c0         1    -0.19325       12.0110 ; qtot   -0.193
         2            c1bf         1   UNL        c1         2     0.00104       12.0110 ; qtot   -0.192
         3            c2bf         1   UNL        c2         3    -0.16589       12.0110 ; qtot   -0.358
         4            c3bf         1   UNL        c3         4    -0.05531       12.0110 ; qtot   -0.413
         5            c4bf         1   UNL        c4         5     0.00012       12.0110 ; qtot   -0.413
         6            c5bf         1   UNL        c5         6    -0.23784       12.0110 ; qtot   -0.651
         7            c6bf         1   UNL        c6         7     0.37208       12.0110 ; qtot   -0.279
         8            n7bf         1   UNL        n7         8    -0.50863       14.0070 ; qtot   -0.788
         9            n8bf         1   UNL        n8         9    -0.03606       14.0070 ; qtot   -0.824
        10            c9bf         1   UNL        c9        10    -0.04574       12.0110 ; qtot   -0.869
        11           n10bf         1   UNL       n10        11    -0.45848       14.0070 ; qtot   -1.328
        12           c11bf         1   UNL       c11        12     0.68035       12.0110 ; qtot   -0.648
        13           o12bf         1   UNL       o12        13    -0.57931       15.9990 ; qtot   -1.227
        14           c13bf         1   UNL       c13        14    -0.08175       12.0110 ; qtot   -1.309
        15           c14bf         1   UNL       c14        15    -0.11939       12.0110 ; qtot   -1.428
        16           c15bf         1   UNL       c15        16    -0.12732       12.0110 ; qtot   -1.555
        17           c16bf         1   UNL       c16        17     0.00918       12.0110 ; qtot   -1.546
        18           c17bf         1   UNL       c17        18    -0.12732       12.0110 ; qtot   -1.674
        19           c18bf         1   UNL       c18        19    -0.11939       12.0110 ; qtot   -1.793
        20           c19bf         1   UNL       c19        20    -0.22601       12.0110 ; qtot   -2.019
        21           c20bf         1   UNL       c20        21    -0.11441       12.0110 ; qtot   -2.133
        22           n21bf         1   UNL       n21        22     0.08671       14.0070 ; qtot   -2.047
        23           n22bf         1   UNL       n22        23    -0.52298       14.0070 ; qtot   -2.570
        24           c23bf         1   UNL       c23        24     0.31766       12.0110 ; qtot   -2.252
        25           c24bf         1   UNL       c24        25     0.04276       12.0110 ; qtot   -2.209
        26           c25bf         1   UNL       c25        26     0.03771       12.0110 ; qtot   -2.171
        27           c26bf         1   UNL       c26        27     0.38360       12.0110 ; qtot   -1.788
        28           c27bf         1   UNL       c27        28     0.03771       12.0110 ; qtot   -1.750
        29           f28bf         1   UNL       f28        29    -0.21720       18.9980 ; qtot   -1.967
        30           f29bf         1   UNL       f29        30    -0.21720       18.9980 ; qtot   -2.185
        31           h30bf         1   UNL       h30        31     0.15476        1.0080 ; qtot   -2.030
        32           h31bf         1   UNL       h31        32     0.14369        1.0080 ; qtot   -1.886
        33           h32bf         1   UNL       h32        33     0.14819        1.0080 ; qtot   -1.738
        34           h33bf         1   UNL       h33        34     0.32635        1.0080 ; qtot   -1.412
        35           h34bf         1   UNL       h34        35     0.06335        1.0080 ; qtot   -1.348
        36           h35bf         1   UNL       h35        36     0.06335        1.0080 ; qtot   -1.285
        37           h36bf         1   UNL       h36        37     0.13610        1.0080 ; qtot   -1.149
        38           h37bf         1   UNL       h37        38     0.13384        1.0080 ; qtot   -1.015
        39           h38bf         1   UNL       h38        39     0.13384        1.0080 ; qtot   -0.881
        40           h39bf         1   UNL       h39        40     0.13610        1.0080 ; qtot   -0.745
        41           h40bf         1   UNL       h40        41     0.17330        1.0080 ; qtot   -0.572
        42           h41bf         1   UNL       h41        42     0.03867        1.0080 ; qtot   -0.533
        43           h42bf         1   UNL       h42        43     0.05820        1.0080 ; qtot   -0.475
        44           h43bf         1   UNL       h43        44     0.05820        1.0080 ; qtot   -0.417
        45           h44bf         1   UNL       h44        45     0.05820        1.0080 ; qtot   -0.358
        46           h45bf         1   UNL       h45        46     0.08961        1.0080 ; qtot   -0.269
        47           h46bf         1   UNL       h46        47     0.08961        1.0080 ; qtot   -0.179
        48           h47bf         1   UNL       h47        48     0.08961        1.0080 ; qtot   -0.090
        49           h48bf         1   UNL       h48        49     0.08959        1.0080 ; qtot    0.000

[ bonds ]
;       ai        aj funct               r               k
         1         2     1        0.139301   357890.610986    ;  uncertainty r = 0.000133, k = 5.519643
         1         4     1        0.142213   330938.822363    ;  uncertainty r = 0.000133, k = 4.579559
         1        12     1        0.149150   251246.084473    ;  uncertainty r = 0.000078, k = 7.369484
         2         6     1        0.139999   363006.485645    ;  uncertainty r = 0.000069, k = 6.271874
         2        31     1        0.108653   332478.301465    ;  uncertainty r = 0.000034, k = 2.064899
         3         4     1        0.138457   368323.567188    ;  uncertainty r = 0.000033, k = 4.272000
         3         5     1        0.140241   361457.762109    ;  uncertainty r = 0.000056, k = 6.051144
         3        32     1        0.108853   335453.757764    ;  uncertainty r = 0.000006, k = 1.637827
         4        33     1        0.108622   332072.108203    ;  uncertainty r = 0.000013, k = 2.491243
         5         6     1        0.141748   402033.164453    ;  uncertainty r = 0.000053, k = 8.102804
         5         9     1        0.137355   299898.542529    ;  uncertainty r = 0.000054, k = 10.387935
         6         7     1        0.144233   227887.673584    ;  uncertainty r = 0.000102, k = 7.047359
         7         8     1        0.132796   464085.122559    ;  uncertainty r = 0.000107, k = 7.952511
         7        10     1        0.150186   237414.777441    ;  uncertainty r = 0.000064, k = 4.415855
         8         9     1        0.136819   297875.211816    ;  uncertainty r = 0.000034, k = 11.449749
         9        34     1        0.101020   416476.391699    ;  uncertainty r = 0.000031, k = 2.687214
        10        14     1        0.151795   233478.870459    ;  uncertainty r = 0.000063, k = 3.628626
        10        35     1        0.109648   308979.130029    ;  uncertainty r = 0.000023, k = 1.425937
        10        36     1        0.109648   308979.130029    ;  uncertainty r = 0.000023, k = 1.425937
        11        12     1        0.137956   294864.590918    ;  uncertainty r = 0.000144, k = 17.398189
        11        26     1        0.148061   262652.030078    ;  uncertainty r = 0.000100, k = 16.029324
        11        28     1        0.148061   262652.030078    ;  uncertainty r = 0.000100, k = 16.029324
        12        13     1        0.123536   749506.958691    ;  uncertainty r = 0.000066, k = 6.679896
        14        15     1        0.139794   355474.059863    ;  uncertainty r = 0.000028, k = 2.352255
        14        19     1        0.139794   355474.059863    ;  uncertainty r = 0.000028, k = 2.352255
        15        16     1        0.139338   362972.291455    ;  uncertainty r = 0.000020, k = 2.159620
        15        37     1        0.108902   333492.329004    ;  uncertainty r = 0.000022, k = 1.112447
        16        17     1        0.140253   353391.993799    ;  uncertainty r = 0.000028, k = 3.610472
        16        38     1        0.108868   334958.771973    ;  uncertainty r = 0.000030, k = 0.809236
        17        18     1        0.140253   353391.993799    ;  uncertainty r = 0.000028, k = 3.610472
        17        20     1        0.146652   274345.727832    ;  uncertainty r = 0.000041, k = 6.994044
        18        19     1        0.139338   362972.291455    ;  uncertainty r = 0.000020, k = 2.159629
        18        39     1        0.108868   334958.771973    ;  uncertainty r = 0.000030, k = 0.809236
        19        40     1        0.108902   333492.303467    ;  uncertainty r = 0.000022, k = 1.112442
        20        21     1        0.139092   414208.236719    ;  uncertainty r = 0.000013, k = 2.977949
        20        24     1        0.142427   245231.890918    ;  uncertainty r = 0.000028, k = 7.933802
        21        22     1        0.136086   293168.518262    ;  uncertainty r = 0.000038, k = 2.183978
        21        41     1        0.108275   339142.108008    ;  uncertainty r = 0.000029, k = 1.978626
        22        23     1        0.135372   281833.846729    ;  uncertainty r = 0.000063, k = 7.581417
        22        25     1        0.145228   253114.072949    ;  uncertainty r = 0.000011, k = 4.991527
        23        24     1        0.133356   453692.795898    ;  uncertainty r = 0.000038, k = 2.837553
        24        42     1        0.108433   337731.157178    ;  uncertainty r = 0.000017, k = 2.346807
        25        43     1        0.109330   311409.292432    ;  uncertainty r = 0.000011, k = 1.149464
        25        44     1        0.109330   311409.292432    ;  uncertainty r = 0.000011, k = 1.149464
        25        45     1        0.109330   311409.292432    ;  uncertainty r = 0.000011, k = 1.149464
        26        27     1        0.154217   204988.113477    ;  uncertainty r = 0.000107, k = 13.513567
        26        46     1        0.109341   308361.080908    ;  uncertainty r = 0.000046, k = 5.328469
        26        47     1        0.109341   308361.080908    ;  uncertainty r = 0.000046, k = 5.328469
        27        28     1        0.154217   204988.113477    ;  uncertainty r = 0.000107, k = 13.513567
        27        29     1        0.136548   303829.776221    ;  uncertainty r = 0.000092, k = 9.140085
        27        30     1        0.136548   303829.776221    ;  uncertainty r = 0.000092, k = 9.140085
        28        48     1        0.109341   308361.080908    ;  uncertainty r = 0.000046, k = 5.328469
        28        49     1        0.109341   308361.106445    ;  uncertainty r = 0.000046, k = 5.328471

[ angles ]
;       ai        aj        ak funct           theta             cth
         1         2         6     1      119.564957      551.541423    ;  uncertainty theta = 0.004821, k = 0.090256
         1         2        31     1      119.553467      272.072938    ;  uncertainty theta = 0.004662, k = 0.063488
         1         4         3     1      124.211426      526.787728    ;  uncertainty theta = 0.003695, k = 0.053717
         1         4        33     1      118.384506      272.564272    ;  uncertainty theta = 0.002351, k = 0.061922
         1        12        11     1      113.325363      427.179339    ;  uncertainty theta = 0.006558, k = 0.135344
         1        12        13     1      125.774940      517.204672    ;  uncertainty theta = 0.002909, k = 0.286202
         2         1         4     1      123.880905      470.789986    ;  uncertainty theta = 0.004285, k = 0.063919
         2         1        12     1      118.253403      335.904124    ;  uncertainty theta = 0.002377, k = 0.347270
         2         6         5     1      118.245811      402.437359    ;  uncertainty theta = 0.004081, k = 0.223322
         2         6         7     1      130.981277      340.492568    ;  uncertainty theta = 0.005268, k = 0.241915
         3         4        33     1      118.879723      285.284083    ;  uncertainty theta = 0.002141, k = 0.043676
         3         5         6     1      120.131310      384.007068    ;  uncertainty theta = 0.004965, k = 0.118436
         3         5         9     1      130.198334      397.392312    ;  uncertainty theta = 0.003255, k = 0.093308
         4         1        12     1      118.178246      352.309642    ;  uncertainty theta = 0.003205, k = 0.272890
         4         3         5     1      116.828529      524.627799    ;  uncertainty theta = 0.003336, k = 0.072829
         4         3        32     1      121.386131      281.712462    ;  uncertainty theta = 0.001348, k = 0.030188
         5         3        32     1      122.777321      290.478490    ;  uncertainty theta = 0.001564, k = 0.109602
         5         6         7     1      103.997475      708.366854    ;  uncertainty theta = 0.004933, k = 0.139446
         5         9         8     1      108.842224      996.723721    ;  uncertainty theta = 0.004081, k = 0.105419
         5         9        34     1      115.986206      285.859753    ;  uncertainty theta = 0.007695, k = 0.071788
         6         2        31     1      121.169113      288.657343    ;  uncertainty theta = 0.003728, k = 0.079639
         6         5         9     1      105.274963      700.907018    ;  uncertainty theta = 0.002661, k = 0.052176
         6         7         8     1      112.636581      860.789050    ;  uncertainty theta = 0.001609, k = 0.089711
         6         7        10     1      127.230728      340.288047    ;  uncertainty theta = 0.004541, k = 0.138384
         7         8         9     1      109.338829      911.050678    ;  uncertainty theta = 0.003490, k = 0.133446
         7        10        14     1      111.408203      538.561740    ;  uncertainty theta = 0.002686, k = 0.063134
         7        10        35     1      107.195206      404.091717    ;  uncertainty theta = 0.002677, k = 0.094742
         7        10        36     1      107.195206      404.091717    ;  uncertainty theta = 0.002677, k = 0.094742
         8         7        10     1      121.565857      408.256054    ;  uncertainty theta = 0.004764, k = 0.110630
         8         9        34     1      108.270935      348.057521    ;  uncertainty theta = 0.007607, k = 0.026261
        10        14        15     1      121.045166      422.581127    ;  uncertainty theta = 0.002275, k = 0.038270
        10        14        19     1      121.045166      422.581127    ;  uncertainty theta = 0.002275, k = 0.038270
        11        12        13     1      124.471535      726.981619    ;  uncertainty theta = 0.004810, k = 0.152243
        11        26        27     1       88.486877      964.493016    ;  uncertainty theta = 0.004991, k = 0.093542
        11        26        46     1      113.143288      429.000263    ;  uncertainty theta = 0.000981, k = 0.044521
        11        26        47     1      113.143288      429.000263    ;  uncertainty theta = 0.000981, k = 0.044521
        11        28        27     1       88.486877      964.493016    ;  uncertainty theta = 0.004991, k = 0.093542
        11        28        48     1      113.143288      429.000263    ;  uncertainty theta = 0.000981, k = 0.044521
        11        28        49     1      113.143288      429.000263    ;  uncertainty theta = 0.000981, k = 0.044521
        12        11        26     1      117.308640      413.774240    ;  uncertainty theta = 0.002638, k = 0.153403
        12        11        28     1      117.308640      413.774240    ;  uncertainty theta = 0.002638, k = 0.153403
        14        10        35     1      107.837601      399.901237    ;  uncertainty theta = 0.002249, k = 0.057837
        14        10        36     1      107.837601      399.901237    ;  uncertainty theta = 0.002249, k = 0.057837
        14        15        16     1      121.318886      514.235568    ;  uncertainty theta = 0.001778, k = 0.059752
        14        15        37     1      119.166016      270.523857    ;  uncertainty theta = 0.002269, k = 0.008290
        14        19        18     1      121.318886      514.235568    ;  uncertainty theta = 0.001778, k = 0.059752
        14        19        40     1      119.166000      270.523857    ;  uncertainty theta = 0.002269, k = 0.008290
        15        14        19     1      118.819534      462.266433    ;  uncertainty theta = 0.001838, k = 0.080865
        15        16        17     1      121.217484      515.997661    ;  uncertainty theta = 0.001896, k = 0.077715
        15        16        38     1      119.997902      290.785989    ;  uncertainty theta = 0.002435, k = 0.029685
        16        15        37     1      119.867722      290.821262    ;  uncertainty theta = 0.002696, k = 0.045566
        16        17        18     1      118.904152      401.449329    ;  uncertainty theta = 0.000792, k = 0.077724
        16        17        20     1      121.709091      440.254499    ;  uncertainty theta = 0.000934, k = 0.108366
        17        16        38     1      119.095055      282.559113    ;  uncertainty theta = 0.001574, k = 0.076417
        17        18        19     1      121.217484      515.997661    ;  uncertainty theta = 0.001896, k = 0.077715
        17        18        39     1      119.095055      282.559113    ;  uncertainty theta = 0.001574, k = 0.076417
        17        20        21     1      127.697556      343.157780    ;  uncertainty theta = 0.004353, k = 0.177775
        17        20        24     1      126.731285      348.545089    ;  uncertainty theta = 0.003995, k = 0.207077
        18        17        20     1      121.709091      440.254499    ;  uncertainty theta = 0.000934, k = 0.108366
        18        19        40     1      119.867722      290.821262    ;  uncertainty theta = 0.002696, k = 0.045566
        19        18        39     1      119.997902      290.785989    ;  uncertainty theta = 0.002435, k = 0.029685
        20        21        22     1      107.786392      728.617782    ;  uncertainty theta = 0.002722, k = 0.171005
        20        21        41     1      129.337921      225.112173    ;  uncertainty theta = 0.003840, k = 0.127302
        20        24        23     1      112.792480      868.770035    ;  uncertainty theta = 0.004151, k = 0.098178
        20        24        42     1      126.058434      240.089592    ;  uncertainty theta = 0.003930, k = 0.061937
        21        20        24     1      104.376770      682.871498    ;  uncertainty theta = 0.005377, k = 0.161868
        21        22        23     1      109.875771      985.972854    ;  uncertainty theta = 0.001972, k = 0.104814
        21        22        25     1      122.678429      402.059506    ;  uncertainty theta = 0.001716, k = 0.122019
        22        21        41     1      118.090332      269.140033    ;  uncertainty theta = 0.002835, k = 0.151929
        22        23        24     1      106.284325      901.234404    ;  uncertainty theta = 0.001454, k = 0.058730
        22        25        43     1      108.689758      466.172430    ;  uncertainty theta = 0.001193, k = 0.023318
        22        25        44     1      108.689758      466.172430    ;  uncertainty theta = 0.001193, k = 0.023318
        22        25        45     1      108.689758      466.172430    ;  uncertainty theta = 0.001193, k = 0.023318
        23        22        25     1      116.723465      468.949431    ;  uncertainty theta = 0.002619, k = 0.085339
        23        24        42     1      118.687271      285.500605    ;  uncertainty theta = 0.004102, k = 0.050180
        26        11        28     1       93.272873      645.282980    ;  uncertainty theta = 0.003699, k = 0.289643
        26        27        28     1       91.292671      725.452521    ;  uncertainty theta = 0.004224, k = 0.316311
        26        27        29     1      115.890427      631.617051    ;  uncertainty theta = 0.001764, k = 0.161605
        26        27        30     1      115.890427      631.617051    ;  uncertainty theta = 0.001764, k = 0.161605
        27        26        46     1      112.927048      396.037919    ;  uncertainty theta = 0.002164, k = 0.127712
        27        26        47     1      112.927048      396.037919    ;  uncertainty theta = 0.002164, k = 0.127712
        27        28        48     1      112.927048      396.037919    ;  uncertainty theta = 0.002164, k = 0.127712
        27        28        49     1      112.927048      396.037919    ;  uncertainty theta = 0.002164, k = 0.127712
        28        27        29     1      115.890427      631.617051    ;  uncertainty theta = 0.001764, k = 0.161605
        28        27        30     1      115.890427      631.617051    ;  uncertainty theta = 0.001764, k = 0.161605
        29        27        30     1      109.677574      679.147038    ;  uncertainty theta = 0.004481, k = 0.170211
        35        10        36     1      104.257248      312.827994    ;  uncertainty theta = 0.003792, k = 0.040478
        43        25        44     1      107.724472      320.089279    ;  uncertainty theta = 0.001790, k = 0.014894
        43        25        45     1      107.724472      320.089279    ;  uncertainty theta = 0.001790, k = 0.014894
        44        25        45     1      107.724472      320.089279    ;  uncertainty theta = 0.001790, k = 0.014894
        46        26        47     1      110.218407      263.023336    ;  uncertainty theta = 0.004397, k = 0.194683
        48        28        49     1      110.218407      263.023336    ;  uncertainty theta = 0.004397, k = 0.194683

[ dihedrals ] ; propers for gromacs 4.5 or higher, use funct 9
;       ai        aj        ak        al funct           phase               k        pn
         1         2         6         5     9        0.000000        0.116932         1    ;  uncertainty k = 0.484447
         1         2         6         5     9      180.000000       13.046328         2    ;  uncertainty k = 0.159586
         1         2         6         5     9        0.000000       -1.349567         3    ;  uncertainty k = 0.369336
         1         2         6         5     9      180.000000        0.865644         4    ;  uncertainty k = 0.175929
         1         2         6         7     9        0.000000        0.341346         1    ;  uncertainty k = 0.237064
         1         2         6         7     9      180.000000        8.209952         2    ;  uncertainty k = 0.289970
         1         2         6         7     9        0.000000        0.645982         3    ;  uncertainty k = 0.355298
         1         2         6         7     9      180.000000        1.239355         4    ;  uncertainty k = 0.158563
         1         4         3         5     9        0.000000       -0.020454         1    ;  uncertainty k = 0.177017
         1         4         3         5     9      180.000000       16.502772         2    ;  uncertainty k = 0.231440
         1         4         3         5     9        0.000000       -0.101360         3    ;  uncertainty k = 0.365680
         1         4         3         5     9      180.000000        0.752355         4    ;  uncertainty k = 0.234473
         1         4         3        32     9        0.000000       -0.047361         1    ;  uncertainty k = 0.066808
         1         4         3        32     9      180.000000        9.549123         2    ;  uncertainty k = 0.565388
         1         4         3        32     9        0.000000        1.450961         3    ;  uncertainty k = 0.242868
         1         4         3        32     9      180.000000        1.876285         4    ;  uncertainty k = 0.305576
         1        12        11        26     9        0.000000       -1.619136         1    ;  uncertainty k = 0.684120
         1        12        11        26     9      180.000000       15.823058         2    ;  uncertainty k = 0.417708
         1        12        11        26     9        0.000000        3.080853         3    ;  uncertainty k = 0.492599
         1        12        11        26     9      180.000000       -1.754810         4    ;  uncertainty k = 0.293340
         1        12        11        28     9        0.000000       -1.619136         1    ;  uncertainty k = 0.684120
         1        12        11        28     9      180.000000       15.823058         2    ;  uncertainty k = 0.417708
         1        12        11        28     9        0.000000        3.080853         3    ;  uncertainty k = 0.492599
         1        12        11        28     9      180.000000       -1.754810         4    ;  uncertainty k = 0.293340
         2         1         4         3     9        0.000000       -0.087027         1    ;  uncertainty k = 0.244244
         2         1         4         3     9      180.000000        8.932201         2    ;  uncertainty k = 0.444806
         2         1         4         3     9        0.000000       -0.376796         3    ;  uncertainty k = 0.438770
         2         1         4         3     9      180.000000        1.180701         4    ;  uncertainty k = 0.230095
         2         1         4        33     9        0.000000        0.058934         1    ;  uncertainty k = 0.404572
         2         1         4        33     9      180.000000        6.384827         2    ;  uncertainty k = 0.394567
         2         1         4        33     9        0.000000        1.118532         3    ;  uncertainty k = 0.273859
         2         1         4        33     9      180.000000        1.564999         4    ;  uncertainty k = 0.192276
         2         1        12        11     9        0.000000        0.506590         1    ;  uncertainty k = 0.379457
         2         1        12        11     9      180.000000        5.215683         2    ;  uncertainty k = 0.244136
         2         1        12        11     9        0.000000       -0.179977         3    ;  uncertainty k = 0.217458
         2         1        12        11     9      180.000000        0.341780         4    ;  uncertainty k = 0.179630
         2         1        12        13     9        0.000000       -0.431611         1    ;  uncertainty k = 0.282813
         2         1        12        13     9      180.000000        4.679321         2    ;  uncertainty k = 0.471266
         2         1        12        13     9        0.000000        0.413384         3    ;  uncertainty k = 0.123338
         2         1        12        13     9      180.000000        0.151499         4    ;  uncertainty k = 0.065921
         2         6         5         3     9        0.000000       -0.347795         1    ;  uncertainty k = 0.459188
         2         6         5         3     9      180.000000        7.247115         2    ;  uncertainty k = 0.616365
         2         6         5         3     9        0.000000        0.278281         3    ;  uncertainty k = 0.222996
         2         6         5         3     9      180.000000        1.014047         4    ;  uncertainty k = 0.366022
         2         6         5         9     9        0.000000        0.049121         1    ;  uncertainty k = 0.663419
         2         6         5         9     9      180.000000        8.201425         2    ;  uncertainty k = 0.308668
         2         6         5         9     9        0.000000       -0.120608         3    ;  uncertainty k = 0.476881
         2         6         5         9     9      180.000000        1.250492         4    ;  uncertainty k = 0.349358
         2         6         7         8     9        0.000000        0.830779         1    ;  uncertainty k = 0.378648
         2         6         7         8     9      180.000000        6.183051         2    ;  uncertainty k = 0.299797
         2         6         7         8     9        0.000000        0.243532         3    ;  uncertainty k = 0.707858
         2         6         7         8     9      180.000000        0.835233         4    ;  uncertainty k = 0.132173
         2         6         7        10     9        0.000000       -0.778465         1    ;  uncertainty k = 0.915679
         2         6         7        10     9      180.000000        3.861025         2    ;  uncertainty k = 0.704439
         2         6         7        10     9        0.000000        1.333496         3    ;  uncertainty k = 0.287976
         2         6         7        10     9      180.000000        0.103354         4    ;  uncertainty k = 0.184109
         3         4         1        12     9        0.000000        0.094004         1    ;  uncertainty k = 0.678191
         3         4         1        12     9      180.000000        8.032576         2    ;  uncertainty k = 0.829974
         3         4         1        12     9        0.000000        1.477025         3    ;  uncertainty k = 0.299865
         3         4         1        12     9      180.000000        1.824559         4    ;  uncertainty k = 0.235817
         3         5         6         7     9        0.000000        0.058880         1    ;  uncertainty k = 0.446063
         3         5         6         7     9      180.000000        6.768434         2    ;  uncertainty k = 0.305619
         3         5         6         7     9        0.000000        0.196432         3    ;  uncertainty k = 0.447492
         3         5         6         7     9      180.000000        1.330189         4    ;  uncertainty k = 0.329294
         3         5         9         8     9        0.000000        0.886281         1    ;  uncertainty k = 1.098076
         3         5         9         8     9      180.000000        6.930610         2    ;  uncertainty k = 0.573674
         3         5         9         8     9        0.000000        0.566873         3    ;  uncertainty k = 0.666430
         3         5         9         8     9      180.000000        0.350329         4    ;  uncertainty k = 0.198999
         3         5         9        34     9        0.000000        1.684208         1    ;  uncertainty k = 1.042794
         3         5         9        34     9      180.000000        1.768290         2    ;  uncertainty k = 0.539277
         3         5         9        34     9        0.000000        1.346138         3    ;  uncertainty k = 0.538056
         3         5         9        34     9      180.000000        0.078390         4    ;  uncertainty k = 0.146327
         4         1         2         6     9        0.000000       -0.092129         1    ;  uncertainty k = 0.399687
         4         1         2         6     9      180.000000       12.582475         2    ;  uncertainty k = 0.494475
         4         1         2         6     9        0.000000       -0.013003         3    ;  uncertainty k = 0.347162
         4         1         2         6     9      180.000000        1.093350         4    ;  uncertainty k = 0.392823
         4         1         2        31     9        0.000000        0.180958         1    ;  uncertainty k = 0.269740
         4         1         2        31     9      180.000000        7.910055         2    ;  uncertainty k = 0.331255
         4         1         2        31     9        0.000000        1.319702         3    ;  uncertainty k = 0.279138
         4         1         2        31     9      180.000000        1.726706         4    ;  uncertainty k = 0.227206
         4         1        12        11     9        0.000000        0.693129         1    ;  uncertainty k = 0.534811
         4         1        12        11     9      180.000000        5.315292         2    ;  uncertainty k = 0.183970
         4         1        12        11     9        0.000000       -0.097946         3    ;  uncertainty k = 0.145893
         4         1        12        11     9      180.000000        0.371618         4    ;  uncertainty k = 0.150356
         4         1        12        13     9        0.000000       -1.151691         1    ;  uncertainty k = 0.318287
         4         1        12        13     9      180.000000        4.504672         2    ;  uncertainty k = 0.301834
         4         1        12        13     9        0.000000        0.395847         3    ;  uncertainty k = 0.040676
         4         1        12        13     9      180.000000        0.209185         4    ;  uncertainty k = 0.103130
         4         3         5         6     9        0.000000       -0.039528         1    ;  uncertainty k = 0.360110
         4         3         5         6     9      180.000000       12.223980         2    ;  uncertainty k = 0.147041
         4         3         5         6     9        0.000000       -1.476317         3    ;  uncertainty k = 0.458977
         4         3         5         6     9      180.000000        0.785169         4    ;  uncertainty k = 0.232026
         4         3         5         9     9        0.000000        0.095817         1    ;  uncertainty k = 0.323260
         4         3         5         9     9      180.000000       10.198279         2    ;  uncertainty k = 0.669072
         4         3         5         9     9        0.000000        0.761172         3    ;  uncertainty k = 0.248656
         4         3         5         9     9      180.000000        1.155106         4    ;  uncertainty k = 0.267037
         5         3         4        33     9        0.000000        0.020201         1    ;  uncertainty k = 0.239621
         5         3         4        33     9      180.000000       11.515177         2    ;  uncertainty k = 0.362719
         5         3         4        33     9        0.000000        1.442206         3    ;  uncertainty k = 0.229612
         5         3         4        33     9      180.000000        1.572988         4    ;  uncertainty k = 0.273801
         5         6         2        31     9        0.000000        0.021049         1    ;  uncertainty k = 0.437381
         5         6         2        31     9      180.000000        7.589677         2    ;  uncertainty k = 1.077056
         5         6         2        31     9        0.000000        1.291232         3    ;  uncertainty k = 0.293903
         5         6         2        31     9      180.000000        1.184903         4    ;  uncertainty k = 0.376675
         5         6         7         8     9        0.000000        0.525944         1    ;  uncertainty k = 0.591927
         5         6         7         8     9      180.000000       13.229671         2    ;  uncertainty k = 1.229437
         5         6         7         8     9        0.000000      -10.877757         3    ;  uncertainty k = 2.054407
         5         6         7         8     9      180.000000        2.100681         4    ;  uncertainty k = 0.616186
         5         6         7        10     9        0.000000        1.393578         1    ;  uncertainty k = 1.088627
         5         6         7        10     9      180.000000        8.396238         2    ;  uncertainty k = 0.572504
         5         6         7        10     9        0.000000        1.838105         3    ;  uncertainty k = 0.826673
         5         6         7        10     9      180.000000        0.290141         4    ;  uncertainty k = 0.320047
         5         9         8         7     9        0.000000       -0.732794         1    ;  uncertainty k = 0.954835
         5         9         8         7     9      180.000000       16.926646         2    ;  uncertainty k = 0.598355
         5         9         8         7     9        0.000000       -4.757043         3    ;  uncertainty k = 1.054235
         5         9         8         7     9      180.000000        1.043401         4    ;  uncertainty k = 0.539952
         6         2         1        12     9        0.000000       -0.045946         1    ;  uncertainty k = 0.171390
         6         2         1        12     9      180.000000       11.347854         2    ;  uncertainty k = 0.727092
         6         2         1        12     9        0.000000        1.515278         3    ;  uncertainty k = 0.189457
         6         2         1        12     9      180.000000        1.770484         4    ;  uncertainty k = 0.369606
         6         5         3        32     9        0.000000       -0.079207         1    ;  uncertainty k = 0.437025
         6         5         3        32     9      180.000000        6.554820         2    ;  uncertainty k = 1.135387
         6         5         3        32     9        0.000000        1.285894         3    ;  uncertainty k = 0.177534
         6         5         3        32     9      180.000000        1.089324         4    ;  uncertainty k = 0.499245
         6         5         9         8     9        0.000000        0.192211         1    ;  uncertainty k = 0.525280
         6         5         9         8     9      180.000000       17.333367         2    ;  uncertainty k = 1.037914
         6         5         9         8     9        0.000000       -8.667724         3    ;  uncertainty k = 1.697254
         6         5         9         8     9      180.000000        0.783056         4    ;  uncertainty k = 0.547660
         6         5         9        34     9        0.000000        4.174647         1    ;  uncertainty k = 2.132802
         6         5         9        34     9      180.000000        6.078060         2    ;  uncertainty k = 1.352423
         6         5         9        34     9        0.000000        1.445084         3    ;  uncertainty k = 0.311994
         6         5         9        34     9      180.000000       -0.003343         4    ;  uncertainty k = 0.142183
         6         7         8         9     9        0.000000       -0.384077         1    ;  uncertainty k = 0.612494
         6         7         8         9     9      180.000000       24.987910         2    ;  uncertainty k = 0.250393
         6         7         8         9     9        0.000000       -4.376030         3    ;  uncertainty k = 0.964074
         6         7         8         9     9      180.000000        1.985539         4    ;  uncertainty k = 0.350310
         6         7        10        14     9        0.000000       -0.270868         1    ;  uncertainty k = 0.586362
         6         7        10        14     9      180.000000        0.989554         2    ;  uncertainty k = 0.495121
         6         7        10        14     9        0.000000        1.001712         3    ;  uncertainty k = 0.172352
         6         7        10        14     9      180.000000        0.179187         4    ;  uncertainty k = 0.108689
         6         7        10        35     9        0.000000       -1.169246         1    ;  uncertainty k = 0.297043
         6         7        10        35     9      180.000000        1.773909         2    ;  uncertainty k = 0.487473
         6         7        10        35     9        0.000000        0.839104         3    ;  uncertainty k = 0.168925
         6         7        10        35     9      180.000000        0.104842         4    ;  uncertainty k = 0.071913
         6         7        10        36     9        0.000000       -1.169246         1    ;  uncertainty k = 0.297043
         6         7        10        36     9      180.000000        1.773909         2    ;  uncertainty k = 0.487473
         6         7        10        36     9        0.000000        0.839104         3    ;  uncertainty k = 0.168925
         6         7        10        36     9      180.000000        0.104842         4    ;  uncertainty k = 0.071913
         7         6         2        31     9        0.000000       -0.076463         1    ;  uncertainty k = 0.370691
         7         6         2        31     9      180.000000        5.533255         2    ;  uncertainty k = 0.786513
         7         6         2        31     9        0.000000        1.148367         3    ;  uncertainty k = 0.216978
         7         6         2        31     9      180.000000        0.667482         4    ;  uncertainty k = 0.310843
         7         6         5         9     9        0.000000       -0.349634         1    ;  uncertainty k = 0.333408
         7         6         5         9     9      180.000000       12.193924         2    ;  uncertainty k = 0.680976
         7         6         5         9     9        0.000000       -3.636549         3    ;  uncertainty k = 1.603824
         7         6         5         9     9      180.000000        1.625262         4    ;  uncertainty k = 0.578722
         7         8         9        34     9        0.000000        4.144135         1    ;  uncertainty k = 2.338578
         7         8         9        34     9      180.000000       12.929218         2    ;  uncertainty k = 0.107569
         7         8         9        34     9        0.000000        1.684855         3    ;  uncertainty k = 1.042986
         7         8         9        34     9      180.000000       -0.435064         4    ;  uncertainty k = 0.243227
         7        10        14        15     9        0.000000        0.615450         1    ;  uncertainty k = 0.167630
         7        10        14        15     9      180.000000        1.853983         2    ;  uncertainty k = 0.188927
         7        10        14        15     9        0.000000        0.526773         3    ;  uncertainty k = 0.173391
         7        10        14        15     9      180.000000        0.244261         4    ;  uncertainty k = 0.069919
         7        10        14        19     9        0.000000        0.615450         1    ;  uncertainty k = 0.167630
         7        10        14        19     9      180.000000        1.853983         2    ;  uncertainty k = 0.188927
         7        10        14        19     9        0.000000        0.526773         3    ;  uncertainty k = 0.173391
         7        10        14        19     9      180.000000        0.244261         4    ;  uncertainty k = 0.069919
         8         7        10        14     9        0.000000        1.031421         1    ;  uncertainty k = 0.400690
         8         7        10        14     9      180.000000        1.557547         2    ;  uncertainty k = 0.289374
         8         7        10        14     9        0.000000        0.020179         3    ;  uncertainty k = 0.160875
         8         7        10        14     9      180.000000        0.136006         4    ;  uncertainty k = 0.098308
         8         7        10        35     9        0.000000        1.780982         1    ;  uncertainty k = 0.113031
         8         7        10        35     9      180.000000        2.205549         2    ;  uncertainty k = 0.265227
         8         7        10        35     9        0.000000        0.158854         3    ;  uncertainty k = 0.096052
         8         7        10        35     9      180.000000        0.111225         4    ;  uncertainty k = 0.047919
         8         7        10        36     9        0.000000        1.780982         1    ;  uncertainty k = 0.113031
         8         7        10        36     9      180.000000        2.205549         2    ;  uncertainty k = 0.265227
         8         7        10        36     9        0.000000        0.158854         3    ;  uncertainty k = 0.096052
         8         7        10        36     9      180.000000        0.111225         4    ;  uncertainty k = 0.047919
         9         5         3        32     9        0.000000        0.450750         1    ;  uncertainty k = 0.405862
         9         5         3        32     9      180.000000        5.635644         2    ;  uncertainty k = 0.842858
         9         5         3        32     9        0.000000        1.140302         3    ;  uncertainty k = 0.128611
         9         5         3        32     9      180.000000        0.743210         4    ;  uncertainty k = 0.331366
         9         8         7        10     9        0.000000       -0.553410         1    ;  uncertainty k = 0.837657
         9         8         7        10     9      180.000000       25.077413         2    ;  uncertainty k = 0.175016
         9         8         7        10     9        0.000000        2.419201         3    ;  uncertainty k = 0.621653
         9         8         7        10     9      180.000000        1.110046         4    ;  uncertainty k = 0.279838
        10        14        15        16     9        0.000000        0.169204         1    ;  uncertainty k = 0.242807
        10        14        15        16     9      180.000000        8.593729         2    ;  uncertainty k = 0.401443
        10        14        15        16     9        0.000000        1.459163         3    ;  uncertainty k = 0.363057
        10        14        15        16     9      180.000000        1.890470         4    ;  uncertainty k = 0.111180
        10        14        15        37     9        0.000000       -0.145242         1    ;  uncertainty k = 0.181744
        10        14        15        37     9      180.000000        7.615666         2    ;  uncertainty k = 0.278473
        10        14        15        37     9        0.000000        0.580734         3    ;  uncertainty k = 0.342497
        10        14        15        37     9      180.000000        0.989521         4    ;  uncertainty k = 0.234579
        10        14        19        18     9        0.000000        0.169204         1    ;  uncertainty k = 0.242807
        10        14        19        18     9      180.000000        8.593729         2    ;  uncertainty k = 0.401443
        10        14        19        18     9        0.000000        1.459163         3    ;  uncertainty k = 0.363057
        10        14        19        18     9      180.000000        1.890470         4    ;  uncertainty k = 0.111180
        10        14        19        40     9        0.000000       -0.145243         1    ;  uncertainty k = 0.181743
        10        14        19        40     9      180.000000        7.615666         2    ;  uncertainty k = 0.278472
        10        14        19        40     9        0.000000        0.580734         3    ;  uncertainty k = 0.342497
        10        14        19        40     9      180.000000        0.989521         4    ;  uncertainty k = 0.234579
        11        26        27        28     9        0.000000        5.241578         1    ;  uncertainty k = 1.524606
        11        26        27        28     9      180.000000       17.460228         2    ;  uncertainty k = 1.033805
        11        26        27        28     9        0.000000       -1.479060         3    ;  uncertainty k = 0.875891
        11        26        27        28     9      180.000000        3.378291         4    ;  uncertainty k = 0.653539
        11        26        27        29     9        0.000000        3.533154         1    ;  uncertainty k = 1.770063
        11        26        27        29     9      180.000000        5.665057         2    ;  uncertainty k = 0.897956
        11        26        27        29     9        0.000000        1.865824         3    ;  uncertainty k = 0.795204
        11        26        27        29     9      180.000000        1.197537         4    ;  uncertainty k = 0.779077
        11        26        27        30     9        0.000000        3.533154         1    ;  uncertainty k = 1.770063
        11        26        27        30     9      180.000000        5.665057         2    ;  uncertainty k = 0.897956
        11        26        27        30     9        0.000000        1.865824         3    ;  uncertainty k = 0.795204
        11        26        27        30     9      180.000000        1.197537         4    ;  uncertainty k = 0.779077
        11        28        27        26     9        0.000000        5.241578         1    ;  uncertainty k = 1.524606
        11        28        27        26     9      180.000000       17.460228         2    ;  uncertainty k = 1.033805
        11        28        27        26     9        0.000000       -1.479060         3    ;  uncertainty k = 0.875891
        11        28        27        26     9      180.000000        3.378291         4    ;  uncertainty k = 0.653539
        11        28        27        29     9        0.000000        3.533154         1    ;  uncertainty k = 1.770063
        11        28        27        29     9      180.000000        5.665057         2    ;  uncertainty k = 0.897956
        11        28        27        29     9        0.000000        1.865824         3    ;  uncertainty k = 0.795204
        11        28        27        29     9      180.000000        1.197537         4    ;  uncertainty k = 0.779077
        11        28        27        30     9        0.000000        3.533154         1    ;  uncertainty k = 1.770063
        11        28        27        30     9      180.000000        5.665057         2    ;  uncertainty k = 0.897956
        11        28        27        30     9        0.000000        1.865824         3    ;  uncertainty k = 0.795204
        11        28        27        30     9      180.000000        1.197537         4    ;  uncertainty k = 0.779077
        12         1         2        31     9        0.000000       -0.130269         1    ;  uncertainty k = 0.358801
        12         1         2        31     9      180.000000        8.376133         2    ;  uncertainty k = 0.347115
        12         1         2        31     9        0.000000        1.067848         3    ;  uncertainty k = 0.243051
        12         1         2        31     9      180.000000        1.223996         4    ;  uncertainty k = 0.249490
        12         1         4        33     9        0.000000       -0.091693         1    ;  uncertainty k = 0.220595
        12         1         4        33     9      180.000000        7.569081         2    ;  uncertainty k = 0.324130
        12         1         4        33     9        0.000000        0.944070         3    ;  uncertainty k = 0.355802
        12         1         4        33     9      180.000000        1.033240         4    ;  uncertainty k = 0.328063
        12        11        26        27     9        0.000000        1.544918         1    ;  uncertainty k = 1.555413
        12        11        26        27     9      180.000000        2.051851         2    ;  uncertainty k = 0.771437
        12        11        26        27     9        0.000000        0.627693         3    ;  uncertainty k = 0.273802
        12        11        26        27     9      180.000000       -0.237881         4    ;  uncertainty k = 0.170771
        12        11        26        46     9        0.000000        0.545928         1    ;  uncertainty k = 0.447378
        12        11        26        46     9      180.000000        0.509530         2    ;  uncertainty k = 0.309342
        12        11        26        46     9        0.000000       -0.090879         3    ;  uncertainty k = 0.069657
        12        11        26        46     9      180.000000        0.298820         4    ;  uncertainty k = 0.187014
        12        11        26        47     9        0.000000        0.545928         1    ;  uncertainty k = 0.447378
        12        11        26        47     9      180.000000        0.509530         2    ;  uncertainty k = 0.309342
        12        11        26        47     9        0.000000       -0.090879         3    ;  uncertainty k = 0.069657
        12        11        26        47     9      180.000000        0.298820         4    ;  uncertainty k = 0.187014
        12        11        28        27     9        0.000000        1.544918         1    ;  uncertainty k = 1.555413
        12        11        28        27     9      180.000000        2.051851         2    ;  uncertainty k = 0.771437
        12        11        28        27     9        0.000000        0.627693         3    ;  uncertainty k = 0.273802
        12        11        28        27     9      180.000000       -0.237881         4    ;  uncertainty k = 0.170771
        12        11        28        48     9        0.000000        0.545928         1    ;  uncertainty k = 0.447378
        12        11        28        48     9      180.000000        0.509530         2    ;  uncertainty k = 0.309342
        12        11        28        48     9        0.000000       -0.090879         3    ;  uncertainty k = 0.069657
        12        11        28        48     9      180.000000        0.298820         4    ;  uncertainty k = 0.187014
        12        11        28        49     9        0.000000        0.545928         1    ;  uncertainty k = 0.447378
        12        11        28        49     9      180.000000        0.509530         2    ;  uncertainty k = 0.309342
        12        11        28        49     9        0.000000       -0.090879         3    ;  uncertainty k = 0.069657
        12        11        28        49     9      180.000000        0.298820         4    ;  uncertainty k = 0.187014
        13        12        11        26     9        0.000000        6.776632         1    ;  uncertainty k = 0.667804
        13        12        11        26     9      180.000000       16.554122         2    ;  uncertainty k = 0.360347
        13        12        11        26     9        0.000000        0.409503         3    ;  uncertainty k = 0.433132
        13        12        11        26     9      180.000000       -0.133768         4    ;  uncertainty k = 0.371062
        13        12        11        28     9        0.000000        6.776632         1    ;  uncertainty k = 0.667804
        13        12        11        28     9      180.000000       16.554122         2    ;  uncertainty k = 0.360347
        13        12        11        28     9        0.000000        0.409503         3    ;  uncertainty k = 0.433132
        13        12        11        28     9      180.000000       -0.133768         4    ;  uncertainty k = 0.371062
        14        15        16        17     9        0.000000       -0.087057         1    ;  uncertainty k = 0.154901
        14        15        16        17     9      180.000000       13.600436         2    ;  uncertainty k = 0.230971
        14        15        16        17     9        0.000000       -0.751784         3    ;  uncertainty k = 0.436421
        14        15        16        17     9      180.000000        0.777514         4    ;  uncertainty k = 0.245178
        14        15        16        38     9        0.000000        0.010827         1    ;  uncertainty k = 0.163132
        14        15        16        38     9      180.000000        7.805433         2    ;  uncertainty k = 0.422073
        14        15        16        38     9        0.000000        1.391790         3    ;  uncertainty k = 0.234314
        14        15        16        38     9      180.000000        1.880931         4    ;  uncertainty k = 0.189420
        14        19        18        17     9        0.000000       -0.087057         1    ;  uncertainty k = 0.154901
        14        19        18        17     9      180.000000       13.600436         2    ;  uncertainty k = 0.230971
        14        19        18        17     9        0.000000       -0.751784         3    ;  uncertainty k = 0.436421
        14        19        18        17     9      180.000000        0.777514         4    ;  uncertainty k = 0.245178
        14        19        18        39     9        0.000000        0.010827         1    ;  uncertainty k = 0.163132
        14        19        18        39     9      180.000000        7.805433         2    ;  uncertainty k = 0.422073
        14        19        18        39     9        0.000000        1.391790         3    ;  uncertainty k = 0.234314
        14        19        18        39     9      180.000000        1.880931         4    ;  uncertainty k = 0.189420
        15        14        10        35     9        0.000000       -0.300138         1    ;  uncertainty k = 0.153189
        15        14        10        35     9      180.000000        1.928373         2    ;  uncertainty k = 0.130920
        15        14        10        35     9        0.000000        0.360376         3    ;  uncertainty k = 0.118491
        15        14        10        35     9      180.000000        0.117080         4    ;  uncertainty k = 0.032968
        15        14        10        36     9        0.000000       -0.300138         1    ;  uncertainty k = 0.153189
        15        14        10        36     9      180.000000        1.928373         2    ;  uncertainty k = 0.130920
        15        14        10        36     9        0.000000        0.360376         3    ;  uncertainty k = 0.118491
        15        14        10        36     9      180.000000        0.117080         4    ;  uncertainty k = 0.032968
        15        14        19        18     9        0.000000       -0.141019         1    ;  uncertainty k = 0.190132
        15        14        19        18     9      180.000000       11.565169         2    ;  uncertainty k = 0.450751
        15        14        19        18     9        0.000000       -0.482803         3    ;  uncertainty k = 0.323947
        15        14        19        18     9      180.000000        0.820385         4    ;  uncertainty k = 0.428180
        15        14        19        40     9        0.000000        0.161510         1    ;  uncertainty k = 0.189284
        15        14        19        40     9      180.000000        7.143526         2    ;  uncertainty k = 0.548274
        15        14        19        40     9        0.000000        1.383620         3    ;  uncertainty k = 0.306740
        15        14        19        40     9      180.000000        1.646182         4    ;  uncertainty k = 0.144811
        15        16        17        18     9        0.000000        0.099530         1    ;  uncertainty k = 0.198850
        15        16        17        18     9      180.000000       10.864272         2    ;  uncertainty k = 0.250101
        15        16        17        18     9        0.000000       -0.460426         3    ;  uncertainty k = 0.291547
        15        16        17        18     9      180.000000        0.910602         4    ;  uncertainty k = 0.279798
        15        16        17        20     9        0.000000       -0.069350         1    ;  uncertainty k = 0.292775
        15        16        17        20     9      180.000000        8.942093         2    ;  uncertainty k = 0.563576
        15        16        17        20     9        0.000000        1.225126         3    ;  uncertainty k = 0.296630
        15        16        17        20     9      180.000000        1.608135         4    ;  uncertainty k = 0.239057
        16        15        14        19     9        0.000000       -0.141019         1    ;  uncertainty k = 0.190132
        16        15        14        19     9      180.000000       11.565169         2    ;  uncertainty k = 0.450751
        16        15        14        19     9        0.000000       -0.482803         3    ;  uncertainty k = 0.323947
        16        15        14        19     9      180.000000        0.820385         4    ;  uncertainty k = 0.428180
        16        17        18        19     9        0.000000        0.099530         1    ;  uncertainty k = 0.198850
        16        17        18        19     9      180.000000       10.864272         2    ;  uncertainty k = 0.250101
        16        17        18        19     9        0.000000       -0.460426         3    ;  uncertainty k = 0.291547
        16        17        18        19     9      180.000000        0.910602         4    ;  uncertainty k = 0.279798
        16        17        18        39     9        0.000000        0.071629         1    ;  uncertainty k = 0.210521
        16        17        18        39     9      180.000000        6.731318         2    ;  uncertainty k = 0.652358
        16        17        18        39     9        0.000000        1.402558         3    ;  uncertainty k = 0.275742
        16        17        18        39     9      180.000000        1.629461         4    ;  uncertainty k = 0.263941
        16        17        20        21     9        0.000000        0.364742         1    ;  uncertainty k = 0.617618
        16        17        20        21     9      180.000000        2.957626         2    ;  uncertainty k = 0.176252
        16        17        20        21     9        0.000000        0.337574         3    ;  uncertainty k = 0.277333
        16        17        20        21     9      180.000000       -0.075996         4    ;  uncertainty k = 0.052358
        16        17        20        24     9        0.000000        0.212085         1    ;  uncertainty k = 0.583246
        16        17        20        24     9      180.000000        2.756721         2    ;  uncertainty k = 0.102989
        16        17        20        24     9        0.000000        0.399155         3    ;  uncertainty k = 0.207054
        16        17        20        24     9      180.000000       -0.145894         4    ;  uncertainty k = 0.054997
        17        16        15        37     9        0.000000        0.051679         1    ;  uncertainty k = 0.047053
        17        16        15        37     9      180.000000        8.110356         2    ;  uncertainty k = 0.308213
        17        16        15        37     9        0.000000        1.348836         3    ;  uncertainty k = 0.262064
        17        16        15        37     9      180.000000        1.847919         4    ;  uncertainty k = 0.146536
        17        18        19        40     9        0.000000        0.051679         1    ;  uncertainty k = 0.047053
        17        18        19        40     9      180.000000        8.110356         2    ;  uncertainty k = 0.308214
        17        18        19        40     9        0.000000        1.348837         3    ;  uncertainty k = 0.262065
        17        18        19        40     9      180.000000        1.847919         4    ;  uncertainty k = 0.146536
        17        20        21        22     9        0.000000        0.730829         1    ;  uncertainty k = 0.745969
        17        20        21        22     9      180.000000       14.124868         2    ;  uncertainty k = 0.381349
        17        20        21        22     9        0.000000        1.366411         3    ;  uncertainty k = 0.224812
        17        20        21        22     9      180.000000        0.828718         4    ;  uncertainty k = 0.243932
        17        20        21        41     9        0.000000        0.487086         1    ;  uncertainty k = 0.482656
        17        20        21        41     9      180.000000        6.408018         2    ;  uncertainty k = 0.855931
        17        20        21        41     9        0.000000        1.305884         3    ;  uncertainty k = 0.462346
        17        20        21        41     9      180.000000        0.400447         4    ;  uncertainty k = 0.122561
        17        20        24        23     9        0.000000        0.856900         1    ;  uncertainty k = 1.194888
        17        20        24        23     9      180.000000       12.441670         2    ;  uncertainty k = 0.564932
        17        20        24        23     9        0.000000        1.830358         3    ;  uncertainty k = 0.514365
        17        20        24        23     9      180.000000        0.550073         4    ;  uncertainty k = 0.201764
        17        20        24        42     9        0.000000        0.304653         1    ;  uncertainty k = 0.808439
        17        20        24        42     9      180.000000        5.213596         2    ;  uncertainty k = 0.592555
        17        20        24        42     9        0.000000        1.354869         3    ;  uncertainty k = 0.262334
        17        20        24        42     9      180.000000        0.295532         4    ;  uncertainty k = 0.033191
        18        17        16        38     9        0.000000        0.071629         1    ;  uncertainty k = 0.210521
        18        17        16        38     9      180.000000        6.731318         2    ;  uncertainty k = 0.652358
        18        17        16        38     9        0.000000        1.402558         3    ;  uncertainty k = 0.275742
        18        17        16        38     9      180.000000        1.629461         4    ;  uncertainty k = 0.263941
        18        17        20        21     9        0.000000        0.364742         1    ;  uncertainty k = 0.617618
        18        17        20        21     9      180.000000        2.957626         2    ;  uncertainty k = 0.176252
        18        17        20        21     9        0.000000        0.337574         3    ;  uncertainty k = 0.277333
        18        17        20        21     9      180.000000       -0.075996         4    ;  uncertainty k = 0.052358
        18        17        20        24     9        0.000000        0.212085         1    ;  uncertainty k = 0.583246
        18        17        20        24     9      180.000000        2.756721         2    ;  uncertainty k = 0.102989
        18        17        20        24     9        0.000000        0.399155         3    ;  uncertainty k = 0.207054
        18        17        20        24     9      180.000000       -0.145894         4    ;  uncertainty k = 0.054997
        19        14        10        35     9        0.000000       -0.300138         1    ;  uncertainty k = 0.153189
        19        14        10        35     9      180.000000        1.928373         2    ;  uncertainty k = 0.130920
        19        14        10        35     9        0.000000        0.360376         3    ;  uncertainty k = 0.118491
        19        14        10        35     9      180.000000        0.117080         4    ;  uncertainty k = 0.032968
        19        14        10        36     9        0.000000       -0.300138         1    ;  uncertainty k = 0.153189
        19        14        10        36     9      180.000000        1.928373         2    ;  uncertainty k = 0.130920
        19        14        10        36     9        0.000000        0.360376         3    ;  uncertainty k = 0.118491
        19        14        10        36     9      180.000000        0.117080         4    ;  uncertainty k = 0.032968
        19        14        15        37     9        0.000000        0.161510         1    ;  uncertainty k = 0.189285
        19        14        15        37     9      180.000000        7.143530         2    ;  uncertainty k = 0.548274
        19        14        15        37     9        0.000000        1.383620         3    ;  uncertainty k = 0.306740
        19        14        15        37     9      180.000000        1.646182         4    ;  uncertainty k = 0.144812
        19        18        17        20     9        0.000000       -0.069350         1    ;  uncertainty k = 0.292775
        19        18        17        20     9      180.000000        8.942093         2    ;  uncertainty k = 0.563576
        19        18        17        20     9        0.000000        1.225126         3    ;  uncertainty k = 0.296630
        19        18        17        20     9      180.000000        1.608135         4    ;  uncertainty k = 0.239057
        20        17        16        38     9        0.000000       -0.274120         1    ;  uncertainty k = 0.256076
        20        17        16        38     9      180.000000        6.927145         2    ;  uncertainty k = 0.360005
        20        17        16        38     9        0.000000        0.845887         3    ;  uncertainty k = 0.114326
        20        17        16        38     9      180.000000        1.148769         4    ;  uncertainty k = 0.209269
        20        17        18        39     9        0.000000       -0.274120         1    ;  uncertainty k = 0.256076
        20        17        18        39     9      180.000000        6.927145         2    ;  uncertainty k = 0.360005
        20        17        18        39     9        0.000000        0.845887         3    ;  uncertainty k = 0.114326
        20        17        18        39     9      180.000000        1.148769         4    ;  uncertainty k = 0.209269
        20        21        22        23     9        0.000000       -0.316526         1    ;  uncertainty k = 1.047711
        20        21        22        23     9      180.000000       17.284046         2    ;  uncertainty k = 0.688330
        20        21        22        23     9        0.000000       -9.057288         3    ;  uncertainty k = 0.901701
        20        21        22        23     9      180.000000        1.215837         4    ;  uncertainty k = 0.532722
        20        21        22        25     9        0.000000        1.392889         1    ;  uncertainty k = 1.290774
        20        21        22        25     9      180.000000        9.638848         2    ;  uncertainty k = 0.368010
        20        21        22        25     9        0.000000        1.944195         3    ;  uncertainty k = 0.374373
        20        21        22        25     9      180.000000       -0.106447         4    ;  uncertainty k = 0.068874
        20        24        23        22     9        0.000000       -0.058010         1    ;  uncertainty k = 0.625462
        20        24        23        22     9      180.000000       24.452638         2    ;  uncertainty k = 0.460560
        20        24        23        22     9        0.000000       -7.646340         3    ;  uncertainty k = 0.486543
        20        24        23        22     9      180.000000        2.227719         4    ;  uncertainty k = 0.719303
        21        20        24        23     9        0.000000       -0.355455         1    ;  uncertainty k = 0.508595
        21        20        24        23     9      180.000000       15.046675         2    ;  uncertainty k = 1.070272
        21        20        24        23     9        0.000000       -9.005960         3    ;  uncertainty k = 0.840801
        21        20        24        23     9      180.000000        1.826438         4    ;  uncertainty k = 0.522282
        21        20        24        42     9        0.000000       -0.031464         1    ;  uncertainty k = 0.354506
        21        20        24        42     9      180.000000        8.072054         2    ;  uncertainty k = 0.597935
        21        20        24        42     9        0.000000        1.249978         3    ;  uncertainty k = 0.335798
        21        20        24        42     9      180.000000        0.512738         4    ;  uncertainty k = 0.162738
        21        22        23        24     9        0.000000       -0.225287         1    ;  uncertainty k = 0.828367
        21        22        23        24     9      180.000000       16.689018         2    ;  uncertainty k = 0.422253
        21        22        23        24     9        0.000000       -7.488213         3    ;  uncertainty k = 1.300321
        21        22        23        24     9      180.000000        1.602126         4    ;  uncertainty k = 0.425607
        21        22        25        43     9        0.000000       -0.009533         1    ;  uncertainty k = 0.351891
        21        22        25        43     9      180.000000       -1.118668         2    ;  uncertainty k = 0.175719
        21        22        25        43     9        0.000000        0.788902         3    ;  uncertainty k = 0.017444
        21        22        25        43     9      180.000000        0.208637         4    ;  uncertainty k = 0.050244
        21        22        25        44     9        0.000000       -0.009533         1    ;  uncertainty k = 0.351891
        21        22        25        44     9      180.000000       -1.118668         2    ;  uncertainty k = 0.175719
        21        22        25        44     9        0.000000        0.788902         3    ;  uncertainty k = 0.017444
        21        22        25        44     9      180.000000        0.208637         4    ;  uncertainty k = 0.050244
        21        22        25        45     9        0.000000       -0.009533         1    ;  uncertainty k = 0.351891
        21        22        25        45     9      180.000000       -1.118668         2    ;  uncertainty k = 0.175719
        21        22        25        45     9        0.000000        0.788902         3    ;  uncertainty k = 0.017444
        21        22        25        45     9      180.000000        0.208637         4    ;  uncertainty k = 0.050244
        22        21        20        24     9        0.000000        0.138355         1    ;  uncertainty k = 0.250165
        22        21        20        24     9      180.000000       18.966874         2    ;  uncertainty k = 0.230930
        22        21        20        24     9        0.000000       -9.822058         3    ;  uncertainty k = 0.542344
        22        21        20        24     9      180.000000        1.616629         4    ;  uncertainty k = 0.658377
        22        23        24        42     9        0.000000        0.455448         1    ;  uncertainty k = 0.742365
        22        23        24        42     9      180.000000       22.168886         2    ;  uncertainty k = 0.393002
        22        23        24        42     9        0.000000        1.308522         3    ;  uncertainty k = 0.565188
        22        23        24        42     9      180.000000        1.249378         4    ;  uncertainty k = 0.583038
        23        22        21        41     9        0.000000        0.954942         1    ;  uncertainty k = 0.636273
        23        22        21        41     9      180.000000       11.894603         2    ;  uncertainty k = 0.460933
        23        22        21        41     9        0.000000        1.730548         3    ;  uncertainty k = 0.518861
        23        22        21        41     9      180.000000        0.048447         4    ;  uncertainty k = 0.167333
        23        22        25        43     9        0.000000        1.398760         1    ;  uncertainty k = 0.579544
        23        22        25        43     9      180.000000       -1.134020         2    ;  uncertainty k = 0.131941
        23        22        25        43     9        0.000000        0.742560         3    ;  uncertainty k = 0.044341
        23        22        25        43     9      180.000000        0.251257         4    ;  uncertainty k = 0.037756
        23        22        25        44     9        0.000000        1.398760         1    ;  uncertainty k = 0.579544
        23        22        25        44     9      180.000000       -1.134020         2    ;  uncertainty k = 0.131941
        23        22        25        44     9        0.000000        0.742560         3    ;  uncertainty k = 0.044341
        23        22        25        44     9      180.000000        0.251257         4    ;  uncertainty k = 0.037756
        23        22        25        45     9        0.000000        1.398760         1    ;  uncertainty k = 0.579544
        23        22        25        45     9      180.000000       -1.134020         2    ;  uncertainty k = 0.131941
        23        22        25        45     9        0.000000        0.742560         3    ;  uncertainty k = 0.044341
        23        22        25        45     9      180.000000        0.251257         4    ;  uncertainty k = 0.037756
        24        20        21        41     9        0.000000        0.015435         1    ;  uncertainty k = 0.258046
        24        20        21        41     9      180.000000       10.338561         2    ;  uncertainty k = 0.277931
        24        20        21        41     9        0.000000        1.639009         3    ;  uncertainty k = 0.357902
        24        20        21        41     9      180.000000        0.594000         4    ;  uncertainty k = 0.198130
        24        23        22        25     9        0.000000        0.933315         1    ;  uncertainty k = 1.275516
        24        23        22        25     9      180.000000       13.272692         2    ;  uncertainty k = 0.326665
        24        23        22        25     9        0.000000        1.823279         3    ;  uncertainty k = 0.443014
        24        23        22        25     9      180.000000       -0.164134         4    ;  uncertainty k = 0.298893
        25        22        21        41     9        0.000000       -0.476540         1    ;  uncertainty k = 0.254767
        25        22        21        41     9      180.000000        3.142291         2    ;  uncertainty k = 0.652804
        25        22        21        41     9        0.000000        1.097292         3    ;  uncertainty k = 0.480723
        25        22        21        41     9      180.000000        0.022420         4    ;  uncertainty k = 0.193415
        26        11        28        27     9        0.000000        2.776248         1    ;  uncertainty k = 2.098834
        26        11        28        27     9      180.000000       16.648139         2    ;  uncertainty k = 0.580864
        26        11        28        27     9        0.000000       -0.807170         3    ;  uncertainty k = 0.355134
        26        11        28        27     9      180.000000        0.400596         4    ;  uncertainty k = 0.479404
        26        11        28        48     9        0.000000        0.163794         1    ;  uncertainty k = 1.171873
        26        11        28        48     9      180.000000        3.537477         2    ;  uncertainty k = 0.950880
        26        11        28        48     9        0.000000        0.771507         3    ;  uncertainty k = 0.199414
        26        11        28        48     9      180.000000        0.361632         4    ;  uncertainty k = 0.347630
        26        11        28        49     9        0.000000        0.163794         1    ;  uncertainty k = 1.171873
        26        11        28        49     9      180.000000        3.537477         2    ;  uncertainty k = 0.950880
        26        11        28        49     9        0.000000        0.771507         3    ;  uncertainty k = 0.199414
        26        11        28        49     9      180.000000        0.361632         4    ;  uncertainty k = 0.347630
        26        27        28        48     9        0.000000        1.021775         1    ;  uncertainty k = 0.553360
        26        27        28        48     9      180.000000       -0.013950         2    ;  uncertainty k = 1.290188
        26        27        28        48     9        0.000000       -0.248399         3    ;  uncertainty k = 0.397144
        26        27        28        48     9      180.000000        0.059268         4    ;  uncertainty k = 0.121918
        26        27        28        49     9        0.000000        1.021775         1    ;  uncertainty k = 0.553360
        26        27        28        49     9      180.000000       -0.013950         2    ;  uncertainty k = 1.290188
        26        27        28        49     9        0.000000       -0.248399         3    ;  uncertainty k = 0.397144
        26        27        28        49     9      180.000000        0.059268         4    ;  uncertainty k = 0.121918
        27        26        11        28     9        0.000000        2.776248         1    ;  uncertainty k = 2.098834
        27        26        11        28     9      180.000000       16.648139         2    ;  uncertainty k = 0.580864
        27        26        11        28     9        0.000000       -0.807170         3    ;  uncertainty k = 0.355134
        27        26        11        28     9      180.000000        0.400596         4    ;  uncertainty k = 0.479404
        28        11        26        46     9        0.000000        0.163794         1    ;  uncertainty k = 1.171873
        28        11        26        46     9      180.000000        3.537477         2    ;  uncertainty k = 0.950880
        28        11        26        46     9        0.000000        0.771507         3    ;  uncertainty k = 0.199414
        28        11        26        46     9      180.000000        0.361632         4    ;  uncertainty k = 0.347630
        28        11        26        47     9        0.000000        0.163794         1    ;  uncertainty k = 1.171873
        28        11        26        47     9      180.000000        3.537477         2    ;  uncertainty k = 0.950880
        28        11        26        47     9        0.000000        0.771507         3    ;  uncertainty k = 0.199414
        28        11        26        47     9      180.000000        0.361632         4    ;  uncertainty k = 0.347630
        28        27        26        46     9        0.000000        1.021775         1    ;  uncertainty k = 0.553360
        28        27        26        46     9      180.000000       -0.013950         2    ;  uncertainty k = 1.290188
        28        27        26        46     9        0.000000       -0.248399         3    ;  uncertainty k = 0.397144
        28        27        26        46     9      180.000000        0.059268         4    ;  uncertainty k = 0.121918
        28        27        26        47     9        0.000000        1.021775         1    ;  uncertainty k = 0.553360
        28        27        26        47     9      180.000000       -0.013950         2    ;  uncertainty k = 1.290188
        28        27        26        47     9        0.000000       -0.248399         3    ;  uncertainty k = 0.397144
        28        27        26        47     9      180.000000        0.059268         4    ;  uncertainty k = 0.121918
        29        27        26        46     9        0.000000       -0.325865         1    ;  uncertainty k = 0.620498
        29        27        26        46     9      180.000000       -1.863212         2    ;  uncertainty k = 0.340005
        29        27        26        46     9        0.000000        1.622537         3    ;  uncertainty k = 0.232869
        29        27        26        46     9      180.000000        0.252271         4    ;  uncertainty k = 0.366429
        29        27        26        47     9        0.000000       -0.325865         1    ;  uncertainty k = 0.620498
        29        27        26        47     9      180.000000       -1.863212         2    ;  uncertainty k = 0.340005
        29        27        26        47     9        0.000000        1.622537         3    ;  uncertainty k = 0.232869
        29        27        26        47     9      180.000000        0.252271         4    ;  uncertainty k = 0.366429
        29        27        28        48     9        0.000000       -0.325865         1    ;  uncertainty k = 0.620498
        29        27        28        48     9      180.000000       -1.863212         2    ;  uncertainty k = 0.340005
        29        27        28        48     9        0.000000        1.622537         3    ;  uncertainty k = 0.232869
        29        27        28        48     9      180.000000        0.252271         4    ;  uncertainty k = 0.366429
        29        27        28        49     9        0.000000       -0.325865         1    ;  uncertainty k = 0.620498
        29        27        28        49     9      180.000000       -1.863212         2    ;  uncertainty k = 0.340005
        29        27        28        49     9        0.000000        1.622537         3    ;  uncertainty k = 0.232869
        29        27        28        49     9      180.000000        0.252271         4    ;  uncertainty k = 0.366429
        30        27        26        46     9        0.000000       -0.325865         1    ;  uncertainty k = 0.620498
        30        27        26        46     9      180.000000       -1.863212         2    ;  uncertainty k = 0.340005
        30        27        26        46     9        0.000000        1.622537         3    ;  uncertainty k = 0.232869
        30        27        26        46     9      180.000000        0.252271         4    ;  uncertainty k = 0.366429
        30        27        26        47     9        0.000000       -0.325865         1    ;  uncertainty k = 0.620498
        30        27        26        47     9      180.000000       -1.863212         2    ;  uncertainty k = 0.340005
        30        27        26        47     9        0.000000        1.622537         3    ;  uncertainty k = 0.232869
        30        27        26        47     9      180.000000        0.252271         4    ;  uncertainty k = 0.366429
        30        27        28        48     9        0.000000       -0.325865         1    ;  uncertainty k = 0.620498
        30        27        28        48     9      180.000000       -1.863212         2    ;  uncertainty k = 0.340005
        30        27        28        48     9        0.000000        1.622537         3    ;  uncertainty k = 0.232869
        30        27        28        48     9      180.000000        0.252271         4    ;  uncertainty k = 0.366429
        30        27        28        49     9        0.000000       -0.325865         1    ;  uncertainty k = 0.620498
        30        27        28        49     9      180.000000       -1.863212         2    ;  uncertainty k = 0.340005
        30        27        28        49     9        0.000000        1.622537         3    ;  uncertainty k = 0.232869
        30        27        28        49     9      180.000000        0.252271         4    ;  uncertainty k = 0.366429
        32         3         4        33     9        0.000000       -0.081442         1    ;  uncertainty k = 0.386729
        32         3         4        33     9      180.000000        8.097681         2    ;  uncertainty k = 0.276144
        32         3         4        33     9        0.000000       -0.195856         3    ;  uncertainty k = 0.217352
        32         3         4        33     9      180.000000        0.261942         4    ;  uncertainty k = 0.191928
        37        15        16        38     9        0.000000       -0.105046         1    ;  uncertainty k = 0.079026
        37        15        16        38     9      180.000000        7.802566         2    ;  uncertainty k = 0.370707
        37        15        16        38     9        0.000000       -0.520984         3    ;  uncertainty k = 0.249529
        37        15        16        38     9      180.000000        0.209880         4    ;  uncertainty k = 0.188642
        39        18        19        40     9        0.000000       -0.105047         1    ;  uncertainty k = 0.079025
        39        18        19        40     9      180.000000        7.802566         2    ;  uncertainty k = 0.370707
        39        18        19        40     9        0.000000       -0.520984         3    ;  uncertainty k = 0.249530
        39        18        19        40     9      180.000000        0.209880         4    ;  uncertainty k = 0.188643

[ dihedrals ] ; impropers
;       ai        aj        ak        al funct           phase               k        pn
         1         2         4        12     4      180.000000        7.614484         2    ;  uncertainty k = 0.148894
         1         4        12         2     4      180.000000        7.614484         2    ;  uncertainty k = 0.148894
         1        12         2         4     4      180.000000        7.614484         2    ;  uncertainty k = 0.148894
         2         1         6        31     4      180.000000        5.378357         2    ;  uncertainty k = 0.157971
         2         6        31         1     4      180.000000        5.378357         2    ;  uncertainty k = 0.157971
         2        31         1         6     4      180.000000        5.378357         2    ;  uncertainty k = 0.157971
         3         4         5        32     4      180.000000        2.445477         2    ;  uncertainty k = 0.283211
         3         5        32         4     4      180.000000        2.445477         2    ;  uncertainty k = 0.283211
         3        32         4         5     4      180.000000        2.445477         2    ;  uncertainty k = 0.283211
         4         1         3        33     4      180.000000        4.597041         2    ;  uncertainty k = 0.122749
         4         3        33         1     4      180.000000        4.597041         2    ;  uncertainty k = 0.122749
         4        33         1         3     4      180.000000        4.597041         2    ;  uncertainty k = 0.122749
         5         3         6         9     4      180.000000        1.644327         2    ;  uncertainty k = 0.907158
         5         6         9         3     4      180.000000        1.644327         2    ;  uncertainty k = 0.907158
         5         9         3         6     4      180.000000        1.644327         2    ;  uncertainty k = 0.907158
         7         6         8        10     4      180.000000        7.637669         2    ;  uncertainty k = 0.246617
         7         8        10         6     4      180.000000        7.637669         2    ;  uncertainty k = 0.246617
         7        10         6         8     4      180.000000        7.637669         2    ;  uncertainty k = 0.246617
        12         1        11        13     4      180.000000       50.655793         2    ;  uncertainty k = 0.061467
        12        11        13         1     4      180.000000       50.655793         2    ;  uncertainty k = 0.061467
        12        13         1        11     4      180.000000       50.655793         2    ;  uncertainty k = 0.061467
        14        10        15        19     4      180.000000       13.443226         2    ;  uncertainty k = 0.081656
        14        15        19        10     4      180.000000       13.443226         2    ;  uncertainty k = 0.081656
        14        19        10        15     4      180.000000       13.443226         2    ;  uncertainty k = 0.081656
        15        14        16        37     4      180.000000        4.038197         2    ;  uncertainty k = 0.126249
        15        16        37        14     4      180.000000        4.038197         2    ;  uncertainty k = 0.126249
        15        37        14        16     4      180.000000        4.038197         2    ;  uncertainty k = 0.126249
        16        15        17        38     4      180.000000        3.634538         2    ;  uncertainty k = 0.167362
        16        17        38        15     4      180.000000        3.634538         2    ;  uncertainty k = 0.167362
        16        38        15        17     4      180.000000        3.634538         2    ;  uncertainty k = 0.167362
        17        16        18        20     4      180.000000       14.868719         2    ;  uncertainty k = 0.081810
        17        18        20        16     4      180.000000       14.868719         2    ;  uncertainty k = 0.081810
        17        20        16        18     4      180.000000       14.868719         2    ;  uncertainty k = 0.081810
        18        17        19        39     4      180.000000        3.634538         2    ;  uncertainty k = 0.167362
        18        19        39        17     4      180.000000        3.634538         2    ;  uncertainty k = 0.167362
        18        39        17        19     4      180.000000        3.634538         2    ;  uncertainty k = 0.167362
        19        14        18        40     4      180.000000        4.038198         2    ;  uncertainty k = 0.126249
        19        18        40        14     4      180.000000        4.038198         2    ;  uncertainty k = 0.126249
        19        40        14        18     4      180.000000        4.038198         2    ;  uncertainty k = 0.126249
        20        17        21        24     4      180.000000        2.273628         2    ;  uncertainty k = 0.479725
        20        21        24        17     4      180.000000        2.273628         2    ;  uncertainty k = 0.479725
        20        24        17        21     4      180.000000        2.273628         2    ;  uncertainty k = 0.479725
        21        20        22        41     4      180.000000        0.843031         2    ;  uncertainty k = 0.771057
        21        22        41        20     4      180.000000        0.843031         2    ;  uncertainty k = 0.771057
        21        41        20        22     4      180.000000        0.843031         2    ;  uncertainty k = 0.771057
        24        20        23        42     4      180.000000        0.319029         2    ;  uncertainty k = 0.442787
        24        23        42        20     4      180.000000        0.319029         2    ;  uncertainty k = 0.442787
        24        42        20        23     4      180.000000        0.319029         2    ;  uncertainty k = 0.442787

[ pairs ]
;       ai        aj funct
         1         5     1
         1         7     1
         1        26     1
         1        28     1
         1        32     1
         2         3     1
         2         8     1
         2         9     1
         2        10     1
         2        11     1
         2        13     1
         2        33     1
         3         7     1
         3         8     1
         3        12     1
         3        34     1
         4         6     1
         4         9     1
         4        11     1
         4        13     1
         4        31     1
         5        10     1
         5        31     1
         5        33     1
         6        12     1
         6        14     1
         6        32     1
         6        34     1
         6        35     1
         6        36     1
         7        15     1
         7        19     1
         7        31     1
         7        34     1
         8        14     1
         8        35     1
         8        36     1
         9        10     1
         9        32     1
        10        16     1
        10        18     1
        10        37     1
        10        40     1
        11        29     1
        11        30     1
        12        27     1
        12        31     1
        12        33     1
        12        46     1
        12        47     1
        12        48     1
        12        49     1
        13        26     1
        13        28     1
        14        17     1
        14        38     1
        14        39     1
        15        18     1
        15        20     1
        15        35     1
        15        36     1
        15        40     1
        16        19     1
        16        21     1
        16        24     1
        16        39     1
        17        22     1
        17        23     1
        17        37     1
        17        40     1
        17        41     1
        17        42     1
        18        21     1
        18        24     1
        18        38     1
        19        20     1
        19        35     1
        19        36     1
        19        37     1
        20        25     1
        20        38     1
        20        39     1
        21        42     1
        21        43     1
        21        44     1
        21        45     1
        22        42     1
        23        41     1
        23        43     1
        23        44     1
        23        45     1
        24        25     1
        24        41     1
        25        41     1
        26        48     1
        26        49     1
        28        46     1
        28        47     1
        29        46     1
        29        47     1
        29        48     1
        29        49     1
        30        46     1
        30        47     1
        30        48     1
        30        49     1
        32        33     1
        37        38     1
        39        40     1
