; ITP file created by ByteFF-joint-25, 2026-02-17 09:06:28.656452

[ atomtypes ]
;name           bonded.type        at.num        mass        charge   ptype           sigma         epsilon
 c0bf                                   6      0.0000       0.00000       A     3.31557e-01     4.13208e-01    ;  uncertainty sigma = 0.000014, epsilon = 0.000725
 c1bf                                   6      0.0000       0.00000       A     3.31521e-01     4.13154e-01    ;  uncertainty sigma = 0.000007, epsilon = 0.000504
 c2bf                                   6      0.0000       0.00000       A     3.31518e-01     4.13309e-01    ;  uncertainty sigma = 0.000005, epsilon = 0.000825
 c3bf                                   6      0.0000       0.00000       A     3.31528e-01     4.13473e-01    ;  uncertainty sigma = 0.000007, epsilon = 0.000723
 c4bf                                   6      0.0000       0.00000       A     3.31513e-01     4.13127e-01    ;  uncertainty sigma = 0.000006, epsilon = 0.000908
 c5bf                                   6      0.0000       0.00000       A     3.31528e-01     4.13314e-01    ;  uncertainty sigma = 0.000008, epsilon = 0.000591
 c6bf                                   6      0.0000       0.00000       A     3.31510e-01     4.13718e-01    ;  uncertainty sigma = 0.000012, epsilon = 0.000573
 n7bf                                   7      0.0000       0.00000       A     3.38378e-01     3.93289e-01    ;  uncertainty sigma = 0.000011, epsilon = 0.000859
 n8bf                                   7      0.0000       0.00000       A     3.20594e-01     8.54239e-01    ;  uncertainty sigma = 0.000008, epsilon = 0.000871
 c9bf                                   6      0.0000       0.00000       A     3.39770e-01     4.50677e-01    ;  uncertainty sigma = 0.000014, epsilon = 0.000932
 n10bf                                  7      0.0000       0.00000       A     3.18102e-01     6.84209e-01    ;  uncertainty sigma = 0.000023, epsilon = 0.001253
 c11bf                                  6      0.0000       0.00000       A     3.31495e-01     4.13901e-01    ;  uncertainty sigma = 0.000015, epsilon = 0.000784
 o12bf                                  8      0.0000       0.00000       A     3.04826e-01     6.12797e-01    ;  uncertainty sigma = 0.000012, epsilon = 0.001105
 c13bf                                  6      0.0000       0.00000       A     3.31526e-01     4.13322e-01    ;  uncertainty sigma = 0.000007, epsilon = 0.000745
 c14bf                                  6      0.0000       0.00000       A     3.31523e-01     4.13371e-01    ;  uncertainty sigma = 0.000005, epsilon = 0.000423
 c15bf                                  6      0.0000       0.00000       A     3.31520e-01     4.13353e-01    ;  uncertainty sigma = 0.000004, epsilon = 0.000667
 c16bf                                  6      0.0000       0.00000       A     3.31533e-01     4.13284e-01    ;  uncertainty sigma = 0.000006, epsilon = 0.001098
 c17bf                                  6      0.0000       0.00000       A     3.31520e-01     4.13353e-01    ;  uncertainty sigma = 0.000004, epsilon = 0.000667
 c18bf                                  6      0.0000       0.00000       A     3.31523e-01     4.13371e-01    ;  uncertainty sigma = 0.000005, epsilon = 0.000423
 c19bf                                  6      0.0000       0.00000       A     3.31535e-01     4.13223e-01    ;  uncertainty sigma = 0.000005, epsilon = 0.000899
 c20bf                                  6      0.0000       0.00000       A     3.31521e-01     4.13333e-01    ;  uncertainty sigma = 0.000008, epsilon = 0.000598
 n21bf                                  7      0.0000       0.00000       A     3.20584e-01     8.54185e-01    ;  uncertainty sigma = 0.000011, epsilon = 0.001160
 n22bf                                  7      0.0000       0.00000       A     3.38434e-01     3.93690e-01    ;  uncertainty sigma = 0.000004, epsilon = 0.000785
 c23bf                                  6      0.0000       0.00000       A     3.31536e-01     4.13003e-01    ;  uncertainty sigma = 0.000006, epsilon = 0.000684
 c24bf                                  6      0.0000       0.00000       A     3.39777e-01     4.50912e-01    ;  uncertainty sigma = 0.000003, epsilon = 0.000595
 c25bf                                  6      0.0000       0.00000       A     3.39771e-01     4.51125e-01    ;  uncertainty sigma = 0.000011, epsilon = 0.001189
 c26bf                                  6      0.0000       0.00000       A     3.39828e-01     4.51153e-01    ;  uncertainty sigma = 0.000018, epsilon = 0.000756
 c27bf                                  6      0.0000       0.00000       A     3.39771e-01     4.51125e-01    ;  uncertainty sigma = 0.000011, epsilon = 0.001189
 o28bf                                  8      0.0000       0.00000       A     3.15635e-01     3.06749e-01    ;  uncertainty sigma = 0.000034, epsilon = 0.003255
 c29bf                                  6      0.0000       0.00000       A     3.39807e-01     4.50939e-01    ;  uncertainty sigma = 0.000007, epsilon = 0.000681
 h30bf                                  1      0.0000       0.00000       A     2.62578e-01     6.71601e-02    ;  uncertainty sigma = 0.000011, epsilon = 0.000803
 h31bf                                  1      0.0000       0.00000       A     2.62571e-01     6.70414e-02    ;  uncertainty sigma = 0.000009, epsilon = 0.000485
 h32bf                                  1      0.0000       0.00000       A     2.62555e-01     6.72036e-02    ;  uncertainty sigma = 0.000009, epsilon = 0.000652
 h33bf                                  1      0.0000       0.00000       A     1.10648e-01     4.14022e-02    ;  uncertainty sigma = 0.000065, epsilon = 0.000771
 h34bf                                  1      0.0000       0.00000       A     2.60075e-01     8.67590e-02    ;  uncertainty sigma = 0.000029, epsilon = 0.000876
 h35bf                                  1      0.0000       0.00000       A     2.60075e-01     8.67590e-02    ;  uncertainty sigma = 0.000029, epsilon = 0.000876
 h36bf                                  1      0.0000       0.00000       A     2.62562e-01     6.71169e-02    ;  uncertainty sigma = 0.000007, epsilon = 0.000513
 h37bf                                  1      0.0000       0.00000       A     2.62566e-01     6.70543e-02    ;  uncertainty sigma = 0.000011, epsilon = 0.000444
 h38bf                                  1      0.0000       0.00000       A     2.62566e-01     6.70543e-02    ;  uncertainty sigma = 0.000011, epsilon = 0.000444
 h39bf                                  1      0.0000       0.00000       A     2.62562e-01     6.71169e-02    ;  uncertainty sigma = 0.000007, epsilon = 0.000513
 h40bf                                  1      0.0000       0.00000       A     2.53668e-01     6.70573e-02    ;  uncertainty sigma = 0.000029, epsilon = 0.000503
 h41bf                                  1      0.0000       0.00000       A     2.53681e-01     6.72123e-02    ;  uncertainty sigma = 0.000016, epsilon = 0.000497
 h42bf                                  1      0.0000       0.00000       A     2.42209e-01     8.68411e-02    ;  uncertainty sigma = 0.000019, epsilon = 0.000599
 h43bf                                  1      0.0000       0.00000       A     2.42209e-01     8.68411e-02    ;  uncertainty sigma = 0.000019, epsilon = 0.000599
 h44bf                                  1      0.0000       0.00000       A     2.42209e-01     8.68411e-02    ;  uncertainty sigma = 0.000019, epsilon = 0.000599
 h45bf                                  1      0.0000       0.00000       A     2.42189e-01     8.63959e-02    ;  uncertainty sigma = 0.000027, epsilon = 0.000861
 h46bf                                  1      0.0000       0.00000       A     2.42189e-01     8.63959e-02    ;  uncertainty sigma = 0.000027, epsilon = 0.000861
 h47bf                                  1      0.0000       0.00000       A     2.42126e-01     8.63315e-02    ;  uncertainty sigma = 0.000045, epsilon = 0.001386
 h48bf                                  1      0.0000       0.00000       A     2.42189e-01     8.63959e-02    ;  uncertainty sigma = 0.000027, epsilon = 0.000861
 h49bf                                  1      0.0000       0.00000       A     2.42189e-01     8.63959e-02    ;  uncertainty sigma = 0.000027, epsilon = 0.000861
 h50bf                                  1      0.0000       0.00000       A     2.42179e-01     8.68347e-02    ;  uncertainty sigma = 0.000010, epsilon = 0.000523
 h51bf                                  1      0.0000       0.00000       A     2.42179e-01     8.68347e-02    ;  uncertainty sigma = 0.000010, epsilon = 0.000523
 h52bf                                  1      0.0000       0.00000       A     2.42179e-01     8.68349e-02    ;  uncertainty sigma = 0.000010, epsilon = 0.000523

[ moleculetype ]
;name             nrexcl
 MOL                   3

[ atoms ]
;       nr            type      resi   res      atom      cgnr      charge          mass ; qtot
         1            c0bf         1   UNL        c0         1    -0.19096       12.0110 ; qtot   -0.191
         2            c1bf         1   UNL        c1         2     0.00104       12.0110 ; qtot   -0.190
         3            c2bf         1   UNL        c2         3    -0.16589       12.0110 ; qtot   -0.356
         4            c3bf         1   UNL        c3         4    -0.05531       12.0110 ; qtot   -0.411
         5            c4bf         1   UNL        c4         5     0.00012       12.0110 ; qtot   -0.411
         6            c5bf         1   UNL        c5         6    -0.23784       12.0110 ; qtot   -0.649
         7            c6bf         1   UNL        c6         7     0.37208       12.0110 ; qtot   -0.277
         8            n7bf         1   UNL        n7         8    -0.50863       14.0070 ; qtot   -0.785
         9            n8bf         1   UNL        n8         9    -0.03606       14.0070 ; qtot   -0.821
        10            c9bf         1   UNL        c9        10    -0.04574       12.0110 ; qtot   -0.867
        11           n10bf         1   UNL       n10        11    -0.46482       14.0070 ; qtot   -1.332
        12           c11bf         1   UNL       c11        12     0.67759       12.0110 ; qtot   -0.654
        13           o12bf         1   UNL       o12        13    -0.58814       15.9990 ; qtot   -1.243
        14           c13bf         1   UNL       c13        14    -0.08175       12.0110 ; qtot   -1.324
        15           c14bf         1   UNL       c14        15    -0.11939       12.0110 ; qtot   -1.444
        16           c15bf         1   UNL       c15        16    -0.12732       12.0110 ; qtot   -1.571
        17           c16bf         1   UNL       c16        17     0.00918       12.0110 ; qtot   -1.562
        18           c17bf         1   UNL       c17        18    -0.12732       12.0110 ; qtot   -1.689
        19           c18bf         1   UNL       c18        19    -0.11939       12.0110 ; qtot   -1.809
        20           c19bf         1   UNL       c19        20    -0.22601       12.0110 ; qtot   -2.035
        21           c20bf         1   UNL       c20        21    -0.11441       12.0110 ; qtot   -2.149
        22           n21bf         1   UNL       n21        22     0.08671       14.0070 ; qtot   -2.062
        23           n22bf         1   UNL       n22        23    -0.52298       14.0070 ; qtot   -2.585
        24           c23bf         1   UNL       c23        24     0.31766       12.0110 ; qtot   -2.268
        25           c24bf         1   UNL       c24        25     0.04276       12.0110 ; qtot   -2.225
        26           c25bf         1   UNL       c25        26     0.06855       12.0110 ; qtot   -2.156
        27           c26bf         1   UNL       c26        27     0.10063       12.0110 ; qtot   -2.056
        28           c27bf         1   UNL       c27        28     0.06855       12.0110 ; qtot   -1.987
        29           o28bf         1   UNL       o28        29    -0.40043       15.9990 ; qtot   -2.388
        30           c29bf         1   UNL       c29        30     0.11703       12.0110 ; qtot   -2.270
        31           h30bf         1   UNL       h30        31     0.15476        1.0080 ; qtot   -2.116
        32           h31bf         1   UNL       h31        32     0.14369        1.0080 ; qtot   -1.972
        33           h32bf         1   UNL       h32        33     0.14819        1.0080 ; qtot   -1.824
        34           h33bf         1   UNL       h33        34     0.32635        1.0080 ; qtot   -1.497
        35           h34bf         1   UNL       h34        35     0.06335        1.0080 ; qtot   -1.434
        36           h35bf         1   UNL       h35        36     0.06335        1.0080 ; qtot   -1.371
        37           h36bf         1   UNL       h36        37     0.13610        1.0080 ; qtot   -1.235
        38           h37bf         1   UNL       h37        38     0.13384        1.0080 ; qtot   -1.101
        39           h38bf         1   UNL       h38        39     0.13384        1.0080 ; qtot   -0.967
        40           h39bf         1   UNL       h39        40     0.13610        1.0080 ; qtot   -0.831
        41           h40bf         1   UNL       h40        41     0.17330        1.0080 ; qtot   -0.658
        42           h41bf         1   UNL       h41        42     0.03867        1.0080 ; qtot   -0.619
        43           h42bf         1   UNL       h42        43     0.05820        1.0080 ; qtot   -0.561
        44           h43bf         1   UNL       h43        44     0.05820        1.0080 ; qtot   -0.503
        45           h44bf         1   UNL       h44        45     0.05820        1.0080 ; qtot   -0.444
        46           h45bf         1   UNL       h45        46     0.06938        1.0080 ; qtot   -0.375
        47           h46bf         1   UNL       h46        47     0.06938        1.0080 ; qtot   -0.306
        48           h47bf         1   UNL       h47        48     0.06482        1.0080 ; qtot   -0.241
        49           h48bf         1   UNL       h48        49     0.06938        1.0080 ; qtot   -0.171
        50           h49bf         1   UNL       h49        50     0.06938        1.0080 ; qtot   -0.102
        51           h50bf         1   UNL       h50        51     0.03400        1.0080 ; qtot   -0.068
        52           h51bf         1   UNL       h51        52     0.03400        1.0080 ; qtot   -0.034
        53           h52bf         1   UNL       h52        53     0.03401        1.0080 ; qtot    0.000

[ bonds ]
;       ai        aj funct               r               k
         1         2     1        0.139301   357890.610986    ;  uncertainty r = 0.000133, k = 5.519643
         1         4     1        0.142213   330938.822363    ;  uncertainty r = 0.000133, k = 4.579559
         1        12     1        0.149374   251531.921338    ;  uncertainty r = 0.000023, k = 6.261574
         2         6     1        0.139999   363006.485645    ;  uncertainty r = 0.000069, k = 6.271874
         2        31     1        0.108653   332478.301465    ;  uncertainty r = 0.000034, k = 2.064899
         3         4     1        0.138457   368323.567188    ;  uncertainty r = 0.000033, k = 4.272000
         3         5     1        0.140241   361457.762109    ;  uncertainty r = 0.000056, k = 6.051144
         3        32     1        0.108853   335453.757764    ;  uncertainty r = 0.000006, k = 1.637827
         4        33     1        0.108622   332072.108203    ;  uncertainty r = 0.000013, k = 2.491243
         5         6     1        0.141748   402033.164453    ;  uncertainty r = 0.000053, k = 8.102804
         5         9     1        0.137355   299898.542529    ;  uncertainty r = 0.000054, k = 10.387935
         6         7     1        0.144233   227887.673584    ;  uncertainty r = 0.000102, k = 7.047359
         7         8     1        0.132796   464085.122559    ;  uncertainty r = 0.000107, k = 7.952511
         7        10     1        0.150186   237414.777441    ;  uncertainty r = 0.000064, k = 4.415855
         8         9     1        0.136819   297875.211816    ;  uncertainty r = 0.000034, k = 11.449749
         9        34     1        0.101020   416476.391699    ;  uncertainty r = 0.000031, k = 2.687214
        10        14     1        0.151795   233478.870459    ;  uncertainty r = 0.000063, k = 3.628626
        10        35     1        0.109648   308979.130029    ;  uncertainty r = 0.000023, k = 1.425937
        10        36     1        0.109648   308979.130029    ;  uncertainty r = 0.000023, k = 1.425937
        11        12     1        0.137424   289698.025098    ;  uncertainty r = 0.000115, k = 19.224206
        11        26     1        0.147886   278652.254883    ;  uncertainty r = 0.000060, k = 3.981929
        11        28     1        0.147886   278652.229346    ;  uncertainty r = 0.000060, k = 3.981920
        12        13     1        0.123715   753163.157715    ;  uncertainty r = 0.000044, k = 8.106821
        14        15     1        0.139794   355474.059863    ;  uncertainty r = 0.000028, k = 2.352255
        14        19     1        0.139794   355474.059863    ;  uncertainty r = 0.000028, k = 2.352255
        15        16     1        0.139338   362972.291455    ;  uncertainty r = 0.000020, k = 2.159620
        15        37     1        0.108902   333492.329004    ;  uncertainty r = 0.000022, k = 1.112447
        16        17     1        0.140253   353391.993799    ;  uncertainty r = 0.000028, k = 3.610471
        16        38     1        0.108868   334958.771973    ;  uncertainty r = 0.000030, k = 0.809215
        17        18     1        0.140253   353391.993799    ;  uncertainty r = 0.000028, k = 3.610472
        17        20     1        0.146652   274345.727832    ;  uncertainty r = 0.000041, k = 6.994044
        18        19     1        0.139338   362972.291455    ;  uncertainty r = 0.000020, k = 2.159629
        18        39     1        0.108868   334958.771973    ;  uncertainty r = 0.000030, k = 0.809239
        19        40     1        0.108902   333492.303467    ;  uncertainty r = 0.000022, k = 1.112423
        20        21     1        0.139092   414208.236719    ;  uncertainty r = 0.000013, k = 2.977949
        20        24     1        0.142427   245231.890918    ;  uncertainty r = 0.000028, k = 7.933802
        21        22     1        0.136086   293168.518262    ;  uncertainty r = 0.000038, k = 2.183978
        21        41     1        0.108275   339142.108008    ;  uncertainty r = 0.000029, k = 1.978626
        22        23     1        0.135372   281833.846729    ;  uncertainty r = 0.000063, k = 7.581417
        22        25     1        0.145228   253114.072949    ;  uncertainty r = 0.000011, k = 4.991527
        23        24     1        0.133356   453692.795898    ;  uncertainty r = 0.000038, k = 2.837549
        24        42     1        0.108433   337731.157178    ;  uncertainty r = 0.000017, k = 2.346797
        25        43     1        0.109330   311409.266895    ;  uncertainty r = 0.000011, k = 1.149458
        25        44     1        0.109330   311409.292432    ;  uncertainty r = 0.000011, k = 1.149464
        25        45     1        0.109330   311409.292432    ;  uncertainty r = 0.000011, k = 1.149464
        26        27     1        0.155273   208063.522021    ;  uncertainty r = 0.000054, k = 10.590030
        26        46     1        0.109420   306325.747754    ;  uncertainty r = 0.000028, k = 2.718938
        26        47     1        0.109420   306325.747754    ;  uncertainty r = 0.000028, k = 2.718938
        27        28     1        0.155273   208063.534790    ;  uncertainty r = 0.000054, k = 10.590039
        27        29     1        0.140251   271458.961914    ;  uncertainty r = 0.000104, k = 16.122548
        27        48     1        0.109719   308422.191211    ;  uncertainty r = 0.000101, k = 3.782319
        28        49     1        0.109420   306325.747754    ;  uncertainty r = 0.000028, k = 2.718955
        28        50     1        0.109420   306325.747754    ;  uncertainty r = 0.000028, k = 2.718955
        29        30     1        0.142151   254341.922705    ;  uncertainty r = 0.000116, k = 8.267875
        30        51     1        0.109790   310921.942236    ;  uncertainty r = 0.000028, k = 1.142112
        30        52     1        0.109790   310921.942236    ;  uncertainty r = 0.000028, k = 1.142112
        30        53     1        0.109790   310921.942236    ;  uncertainty r = 0.000028, k = 1.142112

[ angles ]
;       ai        aj        ak funct           theta             cth
         1         2         6     1      119.564957      551.541423    ;  uncertainty theta = 0.004821, k = 0.090256
         1         2        31     1      119.553467      272.072938    ;  uncertainty theta = 0.004662, k = 0.063488
         1         4         3     1      124.211426      526.787728    ;  uncertainty theta = 0.003695, k = 0.053717
         1         4        33     1      118.384506      272.564272    ;  uncertainty theta = 0.002351, k = 0.061922
         1        12        11     1      113.259521      432.339750    ;  uncertainty theta = 0.004888, k = 0.181920
         1        12        13     1      125.552147      521.020619    ;  uncertainty theta = 0.003145, k = 0.224544
         2         1         4     1      123.880905      470.789986    ;  uncertainty theta = 0.004285, k = 0.063919
         2         1        12     1      118.612869      335.306109    ;  uncertainty theta = 0.001564, k = 0.327491
         2         6         5     1      118.245811      402.437359    ;  uncertainty theta = 0.004081, k = 0.223322
         2         6         7     1      130.981277      340.492568    ;  uncertainty theta = 0.005268, k = 0.241915
         3         4        33     1      118.879723      285.284083    ;  uncertainty theta = 0.002141, k = 0.043676
         3         5         6     1      120.131310      384.007068    ;  uncertainty theta = 0.004965, k = 0.118436
         3         5         9     1      130.198334      397.392312    ;  uncertainty theta = 0.003255, k = 0.093308
         4         1        12     1      118.524918      353.306515    ;  uncertainty theta = 0.003639, k = 0.234623
         4         3         5     1      116.828529      524.627799    ;  uncertainty theta = 0.003336, k = 0.072829
         4         3        32     1      121.386131      281.712462    ;  uncertainty theta = 0.001348, k = 0.030188
         5         3        32     1      122.777321      290.478490    ;  uncertainty theta = 0.001564, k = 0.109602
         5         6         7     1      103.997475      708.366854    ;  uncertainty theta = 0.004933, k = 0.139446
         5         9         8     1      108.842224      996.723721    ;  uncertainty theta = 0.004081, k = 0.105419
         5         9        34     1      115.986206      285.859753    ;  uncertainty theta = 0.007695, k = 0.071788
         6         2        31     1      121.169113      288.657343    ;  uncertainty theta = 0.003728, k = 0.079639
         6         5         9     1      105.274963      700.907018    ;  uncertainty theta = 0.002661, k = 0.052176
         6         7         8     1      112.636581      860.789050    ;  uncertainty theta = 0.001609, k = 0.089711
         6         7        10     1      127.230728      340.288047    ;  uncertainty theta = 0.004541, k = 0.138384
         7         8         9     1      109.338829      911.050678    ;  uncertainty theta = 0.003490, k = 0.133446
         7        10        14     1      111.408203      538.561740    ;  uncertainty theta = 0.002686, k = 0.063134
         7        10        35     1      107.195206      404.091717    ;  uncertainty theta = 0.002677, k = 0.094742
         7        10        36     1      107.195206      404.091717    ;  uncertainty theta = 0.002677, k = 0.094742
         8         7        10     1      121.565857      408.256054    ;  uncertainty theta = 0.004764, k = 0.110630
         8         9        34     1      108.270935      348.057521    ;  uncertainty theta = 0.007607, k = 0.026261
        10        14        15     1      121.045166      422.581127    ;  uncertainty theta = 0.002275, k = 0.038270
        10        14        19     1      121.045166      422.581127    ;  uncertainty theta = 0.002275, k = 0.038270
        11        12        13     1      124.291649      727.484764    ;  uncertainty theta = 0.004549, k = 0.162488
        11        26        27     1       90.170067      940.587792    ;  uncertainty theta = 0.004577, k = 0.052611
        11        26        46     1      112.788963      438.882198    ;  uncertainty theta = 0.002051, k = 0.072400
        11        26        47     1      112.788963      438.882198    ;  uncertainty theta = 0.002051, k = 0.072400
        11        28        27     1       90.170067      940.587792    ;  uncertainty theta = 0.004577, k = 0.052610
        11        28        49     1      112.788963      438.882198    ;  uncertainty theta = 0.002051, k = 0.072400
        11        28        50     1      112.788963      438.882198    ;  uncertainty theta = 0.002051, k = 0.072400
        12        11        26     1      117.808205      396.173362    ;  uncertainty theta = 0.002098, k = 0.163919
        12        11        28     1      117.808205      396.173426    ;  uncertainty theta = 0.002098, k = 0.163919
        14        10        35     1      107.837601      399.901237    ;  uncertainty theta = 0.002249, k = 0.057837
        14        10        36     1      107.837601      399.901237    ;  uncertainty theta = 0.002249, k = 0.057837
        14        15        16     1      121.318886      514.235568    ;  uncertainty theta = 0.001778, k = 0.059752
        14        15        37     1      119.166016      270.523857    ;  uncertainty theta = 0.002269, k = 0.008290
        14        19        18     1      121.318886      514.235568    ;  uncertainty theta = 0.001778, k = 0.059752
        14        19        40     1      119.166016      270.523857    ;  uncertainty theta = 0.002269, k = 0.008290
        15        14        19     1      118.819534      462.266433    ;  uncertainty theta = 0.001838, k = 0.080865
        15        16        17     1      121.217484      515.997661    ;  uncertainty theta = 0.001896, k = 0.077715
        15        16        38     1      119.997902      290.785989    ;  uncertainty theta = 0.002435, k = 0.029685
        16        15        37     1      119.867722      290.821262    ;  uncertainty theta = 0.002696, k = 0.045566
        16        17        18     1      118.904152      401.449329    ;  uncertainty theta = 0.000792, k = 0.077724
        16        17        20     1      121.709091      440.254499    ;  uncertainty theta = 0.000934, k = 0.108366
        17        16        38     1      119.095055      282.559209    ;  uncertainty theta = 0.001574, k = 0.076416
        17        18        19     1      121.217484      515.997661    ;  uncertainty theta = 0.001896, k = 0.077715
        17        18        39     1      119.095055      282.559209    ;  uncertainty theta = 0.001574, k = 0.076416
        17        20        21     1      127.697556      343.157780    ;  uncertainty theta = 0.004353, k = 0.177775
        17        20        24     1      126.731285      348.545089    ;  uncertainty theta = 0.003995, k = 0.207077
        18        17        20     1      121.709091      440.254499    ;  uncertainty theta = 0.000934, k = 0.108366
        18        19        40     1      119.867722      290.821262    ;  uncertainty theta = 0.002696, k = 0.045566
        19        18        39     1      119.997902      290.785989    ;  uncertainty theta = 0.002435, k = 0.029685
        20        21        22     1      107.786392      728.617782    ;  uncertainty theta = 0.002722, k = 0.171005
        20        21        41     1      129.337921      225.112173    ;  uncertainty theta = 0.003840, k = 0.127302
        20        24        23     1      112.792480      868.770035    ;  uncertainty theta = 0.004151, k = 0.098178
        20        24        42     1      126.058434      240.089592    ;  uncertainty theta = 0.003930, k = 0.061937
        21        20        24     1      104.376785      682.871562    ;  uncertainty theta = 0.005377, k = 0.161868
        21        22        23     1      109.875755      985.972854    ;  uncertainty theta = 0.001972, k = 0.104814
        21        22        25     1      122.678429      402.059474    ;  uncertainty theta = 0.001716, k = 0.122019
        22        21        41     1      118.090332      269.140033    ;  uncertainty theta = 0.002835, k = 0.151929
        22        23        24     1      106.284317      901.234341    ;  uncertainty theta = 0.001454, k = 0.058730
        22        25        43     1      108.689774      466.172430    ;  uncertainty theta = 0.001193, k = 0.023318
        22        25        44     1      108.689774      466.172430    ;  uncertainty theta = 0.001193, k = 0.023318
        22        25        45     1      108.689774      466.172430    ;  uncertainty theta = 0.001193, k = 0.023318
        23        22        25     1      116.723465      468.949495    ;  uncertainty theta = 0.002619, k = 0.085339
        23        24        42     1      118.687256      285.500605    ;  uncertainty theta = 0.004102, k = 0.050180
        26        11        28     1       92.264267      628.393566    ;  uncertainty theta = 0.005058, k = 0.114504
        26        27        28     1       87.826538      746.067161    ;  uncertainty theta = 0.006431, k = 0.177655
        26        27        29     1      114.456032      600.891057    ;  uncertainty theta = 0.004709, k = 0.213714
        26        27        48     1      113.634315      409.023188    ;  uncertainty theta = 0.005064, k = 0.112004
        27        26        46     1      113.951523      394.203780    ;  uncertainty theta = 0.001792, k = 0.051681
        27        26        47     1      113.951523      394.203780    ;  uncertainty theta = 0.001792, k = 0.051681
        27        28        49     1      113.951523      394.203748    ;  uncertainty theta = 0.001792, k = 0.051681
        27        28        50     1      113.951523      394.203748    ;  uncertainty theta = 0.001792, k = 0.051681
        27        29        30     1      108.857704      562.642149    ;  uncertainty theta = 0.001881, k = 0.084991
        28        27        29     1      114.456032      600.891057    ;  uncertainty theta = 0.004709, k = 0.213713
        28        27        48     1      113.634315      409.023188    ;  uncertainty theta = 0.005064, k = 0.112004
        29        27        48     1      110.120949      398.840809    ;  uncertainty theta = 0.004854, k = 0.196995
        29        30        51     1      109.565384      461.804595    ;  uncertainty theta = 0.001851, k = 0.048412
        29        30        52     1      109.565384      461.804595    ;  uncertainty theta = 0.001851, k = 0.048412
        29        30        53     1      109.565384      461.804595    ;  uncertainty theta = 0.001851, k = 0.048412
        35        10        36     1      104.257248      312.827994    ;  uncertainty theta = 0.003792, k = 0.040478
        43        25        44     1      107.724464      320.089311    ;  uncertainty theta = 0.001790, k = 0.014894
        43        25        45     1      107.724464      320.089311    ;  uncertainty theta = 0.001790, k = 0.014894
        44        25        45     1      107.724464      320.089311    ;  uncertainty theta = 0.001790, k = 0.014894
        46        26        47     1      109.176193      265.067199    ;  uncertainty theta = 0.002975, k = 0.174994
        49        28        50     1      109.176193      265.067199    ;  uncertainty theta = 0.002975, k = 0.174994
        51        30        52     1      108.546814      326.057844    ;  uncertainty theta = 0.002133, k = 0.023569
        51        30        53     1      108.546814      326.057844    ;  uncertainty theta = 0.002133, k = 0.023569
        52        30        53     1      108.546814      326.057844    ;  uncertainty theta = 0.002133, k = 0.023569

[ dihedrals ] ; propers for gromacs 4.5 or higher, use funct 9
;       ai        aj        ak        al funct           phase               k        pn
         1         2         6         5     9        0.000000        0.116932         1    ;  uncertainty k = 0.484447
         1         2         6         5     9      180.000000       13.046328         2    ;  uncertainty k = 0.159586
         1         2         6         5     9        0.000000       -1.349567         3    ;  uncertainty k = 0.369336
         1         2         6         5     9      180.000000        0.865644         4    ;  uncertainty k = 0.175929
         1         2         6         7     9        0.000000        0.341346         1    ;  uncertainty k = 0.237064
         1         2         6         7     9      180.000000        8.209952         2    ;  uncertainty k = 0.289970
         1         2         6         7     9        0.000000        0.645982         3    ;  uncertainty k = 0.355298
         1         2         6         7     9      180.000000        1.239355         4    ;  uncertainty k = 0.158563
         1         4         3         5     9        0.000000       -0.020454         1    ;  uncertainty k = 0.177017
         1         4         3         5     9      180.000000       16.502772         2    ;  uncertainty k = 0.231440
         1         4         3         5     9        0.000000       -0.101360         3    ;  uncertainty k = 0.365680
         1         4         3         5     9      180.000000        0.752355         4    ;  uncertainty k = 0.234473
         1         4         3        32     9        0.000000       -0.047361         1    ;  uncertainty k = 0.066808
         1         4         3        32     9      180.000000        9.549123         2    ;  uncertainty k = 0.565388
         1         4         3        32     9        0.000000        1.450961         3    ;  uncertainty k = 0.242868
         1         4         3        32     9      180.000000        1.876285         4    ;  uncertainty k = 0.305576
         1        12        11        26     9        0.000000       -1.390353         1    ;  uncertainty k = 0.763185
         1        12        11        26     9      180.000000       15.402013         2    ;  uncertainty k = 0.222574
         1        12        11        26     9        0.000000        3.033992         3    ;  uncertainty k = 0.575145
         1        12        11        26     9      180.000000       -1.518324         4    ;  uncertainty k = 0.406250
         1        12        11        28     9        0.000000       -1.390352         1    ;  uncertainty k = 0.763184
         1        12        11        28     9      180.000000       15.402015         2    ;  uncertainty k = 0.222573
         1        12        11        28     9        0.000000        3.033992         3    ;  uncertainty k = 0.575147
         1        12        11        28     9      180.000000       -1.518325         4    ;  uncertainty k = 0.406249
         2         1         4         3     9        0.000000       -0.087027         1    ;  uncertainty k = 0.244244
         2         1         4         3     9      180.000000        8.932201         2    ;  uncertainty k = 0.444806
         2         1         4         3     9        0.000000       -0.376796         3    ;  uncertainty k = 0.438770
         2         1         4         3     9      180.000000        1.180701         4    ;  uncertainty k = 0.230095
         2         1         4        33     9        0.000000        0.058934         1    ;  uncertainty k = 0.404572
         2         1         4        33     9      180.000000        6.384827         2    ;  uncertainty k = 0.394567
         2         1         4        33     9        0.000000        1.118532         3    ;  uncertainty k = 0.273859
         2         1         4        33     9      180.000000        1.564999         4    ;  uncertainty k = 0.192276
         2         1        12        11     9        0.000000        0.600924         1    ;  uncertainty k = 0.448286
         2         1        12        11     9      180.000000        5.166988         2    ;  uncertainty k = 0.258734
         2         1        12        11     9        0.000000       -0.193949         3    ;  uncertainty k = 0.167706
         2         1        12        11     9      180.000000        0.372028         4    ;  uncertainty k = 0.153137
         2         1        12        13     9        0.000000       -0.310048         1    ;  uncertainty k = 0.203865
         2         1        12        13     9      180.000000        4.605042         2    ;  uncertainty k = 0.409602
         2         1        12        13     9        0.000000        0.419053         3    ;  uncertainty k = 0.135217
         2         1        12        13     9      180.000000        0.155189         4    ;  uncertainty k = 0.057078
         2         6         5         3     9        0.000000       -0.347795         1    ;  uncertainty k = 0.459188
         2         6         5         3     9      180.000000        7.247115         2    ;  uncertainty k = 0.616365
         2         6         5         3     9        0.000000        0.278281         3    ;  uncertainty k = 0.222996
         2         6         5         3     9      180.000000        1.014047         4    ;  uncertainty k = 0.366022
         2         6         5         9     9        0.000000        0.049121         1    ;  uncertainty k = 0.663419
         2         6         5         9     9      180.000000        8.201425         2    ;  uncertainty k = 0.308668
         2         6         5         9     9        0.000000       -0.120608         3    ;  uncertainty k = 0.476881
         2         6         5         9     9      180.000000        1.250492         4    ;  uncertainty k = 0.349358
         2         6         7         8     9        0.000000        0.830779         1    ;  uncertainty k = 0.378648
         2         6         7         8     9      180.000000        6.183051         2    ;  uncertainty k = 0.299797
         2         6         7         8     9        0.000000        0.243532         3    ;  uncertainty k = 0.707858
         2         6         7         8     9      180.000000        0.835233         4    ;  uncertainty k = 0.132173
         2         6         7        10     9        0.000000       -0.778465         1    ;  uncertainty k = 0.915679
         2         6         7        10     9      180.000000        3.861025         2    ;  uncertainty k = 0.704439
         2         6         7        10     9        0.000000        1.333496         3    ;  uncertainty k = 0.287976
         2         6         7        10     9      180.000000        0.103354         4    ;  uncertainty k = 0.184109
         3         4         1        12     9        0.000000        0.119036         1    ;  uncertainty k = 0.655472
         3         4         1        12     9      180.000000        7.971135         2    ;  uncertainty k = 0.812167
         3         4         1        12     9        0.000000        1.463998         3    ;  uncertainty k = 0.294387
         3         4         1        12     9      180.000000        1.834871         4    ;  uncertainty k = 0.240056
         3         5         6         7     9        0.000000        0.058880         1    ;  uncertainty k = 0.446063
         3         5         6         7     9      180.000000        6.768434         2    ;  uncertainty k = 0.305619
         3         5         6         7     9        0.000000        0.196432         3    ;  uncertainty k = 0.447492
         3         5         6         7     9      180.000000        1.330189         4    ;  uncertainty k = 0.329294
         3         5         9         8     9        0.000000        0.886281         1    ;  uncertainty k = 1.098076
         3         5         9         8     9      180.000000        6.930610         2    ;  uncertainty k = 0.573674
         3         5         9         8     9        0.000000        0.566873         3    ;  uncertainty k = 0.666430
         3         5         9         8     9      180.000000        0.350329         4    ;  uncertainty k = 0.198999
         3         5         9        34     9        0.000000        1.684208         1    ;  uncertainty k = 1.042794
         3         5         9        34     9      180.000000        1.768290         2    ;  uncertainty k = 0.539277
         3         5         9        34     9        0.000000        1.346138         3    ;  uncertainty k = 0.538056
         3         5         9        34     9      180.000000        0.078390         4    ;  uncertainty k = 0.146327
         4         1         2         6     9        0.000000       -0.092129         1    ;  uncertainty k = 0.399687
         4         1         2         6     9      180.000000       12.582475         2    ;  uncertainty k = 0.494475
         4         1         2         6     9        0.000000       -0.013003         3    ;  uncertainty k = 0.347162
         4         1         2         6     9      180.000000        1.093350         4    ;  uncertainty k = 0.392823
         4         1         2        31     9        0.000000        0.180958         1    ;  uncertainty k = 0.269740
         4         1         2        31     9      180.000000        7.910055         2    ;  uncertainty k = 0.331255
         4         1         2        31     9        0.000000        1.319702         3    ;  uncertainty k = 0.279138
         4         1         2        31     9      180.000000        1.726706         4    ;  uncertainty k = 0.227206
         4         1        12        11     9        0.000000        0.680642         1    ;  uncertainty k = 0.550203
         4         1        12        11     9      180.000000        5.235298         2    ;  uncertainty k = 0.219534
         4         1        12        11     9        0.000000       -0.115225         3    ;  uncertainty k = 0.131589
         4         1        12        11     9      180.000000        0.396020         4    ;  uncertainty k = 0.132332
         4         1        12        13     9        0.000000       -1.045747         1    ;  uncertainty k = 0.263075
         4         1        12        13     9      180.000000        4.434363         2    ;  uncertainty k = 0.250332
         4         1        12        13     9        0.000000        0.402617         3    ;  uncertainty k = 0.051387
         4         1        12        13     9      180.000000        0.212276         4    ;  uncertainty k = 0.097938
         4         3         5         6     9        0.000000       -0.039528         1    ;  uncertainty k = 0.360110
         4         3         5         6     9      180.000000       12.223980         2    ;  uncertainty k = 0.147041
         4         3         5         6     9        0.000000       -1.476317         3    ;  uncertainty k = 0.458977
         4         3         5         6     9      180.000000        0.785169         4    ;  uncertainty k = 0.232026
         4         3         5         9     9        0.000000        0.095817         1    ;  uncertainty k = 0.323260
         4         3         5         9     9      180.000000       10.198279         2    ;  uncertainty k = 0.669072
         4         3         5         9     9        0.000000        0.761172         3    ;  uncertainty k = 0.248656
         4         3         5         9     9      180.000000        1.155106         4    ;  uncertainty k = 0.267037
         5         3         4        33     9        0.000000        0.020201         1    ;  uncertainty k = 0.239621
         5         3         4        33     9      180.000000       11.515177         2    ;  uncertainty k = 0.362719
         5         3         4        33     9        0.000000        1.442206         3    ;  uncertainty k = 0.229612
         5         3         4        33     9      180.000000        1.572988         4    ;  uncertainty k = 0.273801
         5         6         2        31     9        0.000000        0.021049         1    ;  uncertainty k = 0.437381
         5         6         2        31     9      180.000000        7.589677         2    ;  uncertainty k = 1.077056
         5         6         2        31     9        0.000000        1.291232         3    ;  uncertainty k = 0.293903
         5         6         2        31     9      180.000000        1.184903         4    ;  uncertainty k = 0.376675
         5         6         7         8     9        0.000000        0.525944         1    ;  uncertainty k = 0.591927
         5         6         7         8     9      180.000000       13.229671         2    ;  uncertainty k = 1.229437
         5         6         7         8     9        0.000000      -10.877757         3    ;  uncertainty k = 2.054407
         5         6         7         8     9      180.000000        2.100681         4    ;  uncertainty k = 0.616186
         5         6         7        10     9        0.000000        1.393578         1    ;  uncertainty k = 1.088627
         5         6         7        10     9      180.000000        8.396238         2    ;  uncertainty k = 0.572504
         5         6         7        10     9        0.000000        1.838105         3    ;  uncertainty k = 0.826673
         5         6         7        10     9      180.000000        0.290141         4    ;  uncertainty k = 0.320047
         5         9         8         7     9        0.000000       -0.732794         1    ;  uncertainty k = 0.954835
         5         9         8         7     9      180.000000       16.926646         2    ;  uncertainty k = 0.598355
         5         9         8         7     9        0.000000       -4.757043         3    ;  uncertainty k = 1.054235
         5         9         8         7     9      180.000000        1.043401         4    ;  uncertainty k = 0.539952
         6         2         1        12     9        0.000000       -0.043360         1    ;  uncertainty k = 0.177639
         6         2         1        12     9      180.000000       11.305246         2    ;  uncertainty k = 0.705253
         6         2         1        12     9        0.000000        1.508260         3    ;  uncertainty k = 0.187150
         6         2         1        12     9      180.000000        1.779964         4    ;  uncertainty k = 0.352452
         6         5         3        32     9        0.000000       -0.079207         1    ;  uncertainty k = 0.437025
         6         5         3        32     9      180.000000        6.554820         2    ;  uncertainty k = 1.135387
         6         5         3        32     9        0.000000        1.285894         3    ;  uncertainty k = 0.177534
         6         5         3        32     9      180.000000        1.089324         4    ;  uncertainty k = 0.499245
         6         5         9         8     9        0.000000        0.192211         1    ;  uncertainty k = 0.525280
         6         5         9         8     9      180.000000       17.333367         2    ;  uncertainty k = 1.037914
         6         5         9         8     9        0.000000       -8.667724         3    ;  uncertainty k = 1.697254
         6         5         9         8     9      180.000000        0.783056         4    ;  uncertainty k = 0.547660
         6         5         9        34     9        0.000000        4.174647         1    ;  uncertainty k = 2.132802
         6         5         9        34     9      180.000000        6.078060         2    ;  uncertainty k = 1.352423
         6         5         9        34     9        0.000000        1.445084         3    ;  uncertainty k = 0.311994
         6         5         9        34     9      180.000000       -0.003343         4    ;  uncertainty k = 0.142183
         6         7         8         9     9        0.000000       -0.384077         1    ;  uncertainty k = 0.612494
         6         7         8         9     9      180.000000       24.987910         2    ;  uncertainty k = 0.250393
         6         7         8         9     9        0.000000       -4.376030         3    ;  uncertainty k = 0.964074
         6         7         8         9     9      180.000000        1.985539         4    ;  uncertainty k = 0.350310
         6         7        10        14     9        0.000000       -0.270868         1    ;  uncertainty k = 0.586362
         6         7        10        14     9      180.000000        0.989554         2    ;  uncertainty k = 0.495121
         6         7        10        14     9        0.000000        1.001712         3    ;  uncertainty k = 0.172352
         6         7        10        14     9      180.000000        0.179187         4    ;  uncertainty k = 0.108689
         6         7        10        35     9        0.000000       -1.169246         1    ;  uncertainty k = 0.297043
         6         7        10        35     9      180.000000        1.773909         2    ;  uncertainty k = 0.487473
         6         7        10        35     9        0.000000        0.839104         3    ;  uncertainty k = 0.168925
         6         7        10        35     9      180.000000        0.104842         4    ;  uncertainty k = 0.071913
         6         7        10        36     9        0.000000       -1.169246         1    ;  uncertainty k = 0.297043
         6         7        10        36     9      180.000000        1.773909         2    ;  uncertainty k = 0.487473
         6         7        10        36     9        0.000000        0.839104         3    ;  uncertainty k = 0.168925
         6         7        10        36     9      180.000000        0.104842         4    ;  uncertainty k = 0.071913
         7         6         2        31     9        0.000000       -0.076463         1    ;  uncertainty k = 0.370691
         7         6         2        31     9      180.000000        5.533255         2    ;  uncertainty k = 0.786513
         7         6         2        31     9        0.000000        1.148367         3    ;  uncertainty k = 0.216978
         7         6         2        31     9      180.000000        0.667482         4    ;  uncertainty k = 0.310843
         7         6         5         9     9        0.000000       -0.349634         1    ;  uncertainty k = 0.333408
         7         6         5         9     9      180.000000       12.193924         2    ;  uncertainty k = 0.680976
         7         6         5         9     9        0.000000       -3.636549         3    ;  uncertainty k = 1.603824
         7         6         5         9     9      180.000000        1.625262         4    ;  uncertainty k = 0.578722
         7         8         9        34     9        0.000000        4.144135         1    ;  uncertainty k = 2.338578
         7         8         9        34     9      180.000000       12.929218         2    ;  uncertainty k = 0.107569
         7         8         9        34     9        0.000000        1.684855         3    ;  uncertainty k = 1.042986
         7         8         9        34     9      180.000000       -0.435064         4    ;  uncertainty k = 0.243227
         7        10        14        15     9        0.000000        0.615450         1    ;  uncertainty k = 0.167630
         7        10        14        15     9      180.000000        1.853983         2    ;  uncertainty k = 0.188927
         7        10        14        15     9        0.000000        0.526773         3    ;  uncertainty k = 0.173391
         7        10        14        15     9      180.000000        0.244261         4    ;  uncertainty k = 0.069919
         7        10        14        19     9        0.000000        0.615450         1    ;  uncertainty k = 0.167630
         7        10        14        19     9      180.000000        1.853983         2    ;  uncertainty k = 0.188927
         7        10        14        19     9        0.000000        0.526773         3    ;  uncertainty k = 0.173391
         7        10        14        19     9      180.000000        0.244261         4    ;  uncertainty k = 0.069919
         8         7        10        14     9        0.000000        1.031421         1    ;  uncertainty k = 0.400690
         8         7        10        14     9      180.000000        1.557547         2    ;  uncertainty k = 0.289374
         8         7        10        14     9        0.000000        0.020179         3    ;  uncertainty k = 0.160875
         8         7        10        14     9      180.000000        0.136006         4    ;  uncertainty k = 0.098308
         8         7        10        35     9        0.000000        1.780982         1    ;  uncertainty k = 0.113031
         8         7        10        35     9      180.000000        2.205549         2    ;  uncertainty k = 0.265227
         8         7        10        35     9        0.000000        0.158854         3    ;  uncertainty k = 0.096052
         8         7        10        35     9      180.000000        0.111225         4    ;  uncertainty k = 0.047919
         8         7        10        36     9        0.000000        1.780982         1    ;  uncertainty k = 0.113031
         8         7        10        36     9      180.000000        2.205549         2    ;  uncertainty k = 0.265227
         8         7        10        36     9        0.000000        0.158854         3    ;  uncertainty k = 0.096052
         8         7        10        36     9      180.000000        0.111225         4    ;  uncertainty k = 0.047919
         9         5         3        32     9        0.000000        0.450750         1    ;  uncertainty k = 0.405862
         9         5         3        32     9      180.000000        5.635644         2    ;  uncertainty k = 0.842858
         9         5         3        32     9        0.000000        1.140302         3    ;  uncertainty k = 0.128611
         9         5         3        32     9      180.000000        0.743210         4    ;  uncertainty k = 0.331366
         9         8         7        10     9        0.000000       -0.553410         1    ;  uncertainty k = 0.837657
         9         8         7        10     9      180.000000       25.077413         2    ;  uncertainty k = 0.175016
         9         8         7        10     9        0.000000        2.419201         3    ;  uncertainty k = 0.621653
         9         8         7        10     9      180.000000        1.110046         4    ;  uncertainty k = 0.279838
        10        14        15        16     9        0.000000        0.169204         1    ;  uncertainty k = 0.242807
        10        14        15        16     9      180.000000        8.593729         2    ;  uncertainty k = 0.401443
        10        14        15        16     9        0.000000        1.459163         3    ;  uncertainty k = 0.363057
        10        14        15        16     9      180.000000        1.890470         4    ;  uncertainty k = 0.111180
        10        14        15        37     9        0.000000       -0.145242         1    ;  uncertainty k = 0.181744
        10        14        15        37     9      180.000000        7.615666         2    ;  uncertainty k = 0.278473
        10        14        15        37     9        0.000000        0.580734         3    ;  uncertainty k = 0.342497
        10        14        15        37     9      180.000000        0.989521         4    ;  uncertainty k = 0.234579
        10        14        19        18     9        0.000000        0.169204         1    ;  uncertainty k = 0.242807
        10        14        19        18     9      180.000000        8.593729         2    ;  uncertainty k = 0.401443
        10        14        19        18     9        0.000000        1.459163         3    ;  uncertainty k = 0.363057
        10        14        19        18     9      180.000000        1.890470         4    ;  uncertainty k = 0.111180
        10        14        19        40     9        0.000000       -0.145242         1    ;  uncertainty k = 0.181744
        10        14        19        40     9      180.000000        7.615666         2    ;  uncertainty k = 0.278473
        10        14        19        40     9        0.000000        0.580734         3    ;  uncertainty k = 0.342497
        10        14        19        40     9      180.000000        0.989521         4    ;  uncertainty k = 0.234579
        11        26        27        28     9        0.000000        2.774556         1    ;  uncertainty k = 2.471644
        11        26        27        28     9      180.000000       17.131360         2    ;  uncertainty k = 0.637593
        11        26        27        28     9        0.000000       -1.407911         3    ;  uncertainty k = 0.628280
        11        26        27        28     9      180.000000        2.269257         4    ;  uncertainty k = 0.529486
        11        26        27        29     9        0.000000       -0.489796         1    ;  uncertainty k = 2.599819
        11        26        27        29     9      180.000000        4.400113         2    ;  uncertainty k = 0.858804
        11        26        27        29     9        0.000000        2.639279         3    ;  uncertainty k = 0.553615
        11        26        27        29     9      180.000000        0.652576         4    ;  uncertainty k = 0.502430
        11        26        27        48     9        0.000000        1.659438         1    ;  uncertainty k = 1.661367
        11        26        27        48     9      180.000000        2.837372         2    ;  uncertainty k = 0.475463
        11        26        27        48     9        0.000000        1.020033         3    ;  uncertainty k = 0.738317
        11        26        27        48     9      180.000000        0.412913         4    ;  uncertainty k = 0.265207
        11        28        27        26     9        0.000000        2.774556         1    ;  uncertainty k = 2.471645
        11        28        27        26     9      180.000000       17.131362         2    ;  uncertainty k = 0.637593
        11        28        27        26     9        0.000000       -1.407910         3    ;  uncertainty k = 0.628280
        11        28        27        26     9      180.000000        2.269257         4    ;  uncertainty k = 0.529486
        11        28        27        29     9        0.000000       -0.489796         1    ;  uncertainty k = 2.599815
        11        28        27        29     9      180.000000        4.400112         2    ;  uncertainty k = 0.858801
        11        28        27        29     9        0.000000        2.639279         3    ;  uncertainty k = 0.553614
        11        28        27        29     9      180.000000        0.652576         4    ;  uncertainty k = 0.502430
        11        28        27        48     9        0.000000        1.659438         1    ;  uncertainty k = 1.661367
        11        28        27        48     9      180.000000        2.837371         2    ;  uncertainty k = 0.475464
        11        28        27        48     9        0.000000        1.020033         3    ;  uncertainty k = 0.738317
        11        28        27        48     9      180.000000        0.412913         4    ;  uncertainty k = 0.265207
        12         1         2        31     9        0.000000       -0.126244         1    ;  uncertainty k = 0.347631
        12         1         2        31     9      180.000000        8.388976         2    ;  uncertainty k = 0.344663
        12         1         2        31     9        0.000000        1.069546         3    ;  uncertainty k = 0.248005
        12         1         2        31     9      180.000000        1.214838         4    ;  uncertainty k = 0.252425
        12         1         4        33     9        0.000000       -0.078451         1    ;  uncertainty k = 0.191759
        12         1         4        33     9      180.000000        7.569875         2    ;  uncertainty k = 0.315618
        12         1         4        33     9        0.000000        0.957856         3    ;  uncertainty k = 0.334079
        12         1         4        33     9      180.000000        1.035123         4    ;  uncertainty k = 0.323449
        12        11        26        27     9        0.000000        1.683884         1    ;  uncertainty k = 1.354272
        12        11        26        27     9      180.000000        1.950147         2    ;  uncertainty k = 0.678247
        12        11        26        27     9        0.000000        0.747871         3    ;  uncertainty k = 0.357982
        12        11        26        27     9      180.000000       -0.100196         4    ;  uncertainty k = 0.220185
        12        11        26        46     9        0.000000        0.474731         1    ;  uncertainty k = 0.330252
        12        11        26        46     9      180.000000        0.515264         2    ;  uncertainty k = 0.290629
        12        11        26        46     9        0.000000       -0.038859         3    ;  uncertainty k = 0.083074
        12        11        26        46     9      180.000000        0.292841         4    ;  uncertainty k = 0.188866
        12        11        26        47     9        0.000000        0.474731         1    ;  uncertainty k = 0.330252
        12        11        26        47     9      180.000000        0.515264         2    ;  uncertainty k = 0.290629
        12        11        26        47     9        0.000000       -0.038859         3    ;  uncertainty k = 0.083074
        12        11        26        47     9      180.000000        0.292841         4    ;  uncertainty k = 0.188866
        12        11        28        27     9        0.000000        1.683884         1    ;  uncertainty k = 1.354271
        12        11        28        27     9      180.000000        1.950148         2    ;  uncertainty k = 0.678246
        12        11        28        27     9        0.000000        0.747871         3    ;  uncertainty k = 0.357982
        12        11        28        27     9      180.000000       -0.100197         4    ;  uncertainty k = 0.220185
        12        11        28        49     9        0.000000        0.474731         1    ;  uncertainty k = 0.330251
        12        11        28        49     9      180.000000        0.515264         2    ;  uncertainty k = 0.290628
        12        11        28        49     9        0.000000       -0.038859         3    ;  uncertainty k = 0.083074
        12        11        28        49     9      180.000000        0.292841         4    ;  uncertainty k = 0.188866
        12        11        28        50     9        0.000000        0.474731         1    ;  uncertainty k = 0.330251
        12        11        28        50     9      180.000000        0.515264         2    ;  uncertainty k = 0.290628
        12        11        28        50     9        0.000000       -0.038859         3    ;  uncertainty k = 0.083074
        12        11        28        50     9      180.000000        0.292841         4    ;  uncertainty k = 0.188866
        13        12        11        26     9        0.000000        6.243741         1    ;  uncertainty k = 0.676079
        13        12        11        26     9      180.000000       16.449314         2    ;  uncertainty k = 0.338528
        13        12        11        26     9        0.000000        0.389921         3    ;  uncertainty k = 0.457331
        13        12        11        26     9      180.000000        0.013070         4    ;  uncertainty k = 0.381365
        13        12        11        28     9        0.000000        6.243742         1    ;  uncertainty k = 0.676080
        13        12        11        28     9      180.000000       16.449314         2    ;  uncertainty k = 0.338529
        13        12        11        28     9        0.000000        0.389922         3    ;  uncertainty k = 0.457331
        13        12        11        28     9      180.000000        0.013069         4    ;  uncertainty k = 0.381364
        14        15        16        17     9        0.000000       -0.087057         1    ;  uncertainty k = 0.154901
        14        15        16        17     9      180.000000       13.600436         2    ;  uncertainty k = 0.230971
        14        15        16        17     9        0.000000       -0.751784         3    ;  uncertainty k = 0.436421
        14        15        16        17     9      180.000000        0.777514         4    ;  uncertainty k = 0.245178
        14        15        16        38     9        0.000000        0.010829         1    ;  uncertainty k = 0.163132
        14        15        16        38     9      180.000000        7.805433         2    ;  uncertainty k = 0.422071
        14        15        16        38     9        0.000000        1.391790         3    ;  uncertainty k = 0.234314
        14        15        16        38     9      180.000000        1.880931         4    ;  uncertainty k = 0.189420
        14        19        18        17     9        0.000000       -0.087057         1    ;  uncertainty k = 0.154901
        14        19        18        17     9      180.000000       13.600436         2    ;  uncertainty k = 0.230971
        14        19        18        17     9        0.000000       -0.751784         3    ;  uncertainty k = 0.436421
        14        19        18        17     9      180.000000        0.777514         4    ;  uncertainty k = 0.245178
        14        19        18        39     9        0.000000        0.010829         1    ;  uncertainty k = 0.163132
        14        19        18        39     9      180.000000        7.805433         2    ;  uncertainty k = 0.422071
        14        19        18        39     9        0.000000        1.391790         3    ;  uncertainty k = 0.234314
        14        19        18        39     9      180.000000        1.880931         4    ;  uncertainty k = 0.189420
        15        14        10        35     9        0.000000       -0.300138         1    ;  uncertainty k = 0.153189
        15        14        10        35     9      180.000000        1.928373         2    ;  uncertainty k = 0.130920
        15        14        10        35     9        0.000000        0.360376         3    ;  uncertainty k = 0.118491
        15        14        10        35     9      180.000000        0.117080         4    ;  uncertainty k = 0.032968
        15        14        10        36     9        0.000000       -0.300138         1    ;  uncertainty k = 0.153189
        15        14        10        36     9      180.000000        1.928373         2    ;  uncertainty k = 0.130920
        15        14        10        36     9        0.000000        0.360376         3    ;  uncertainty k = 0.118491
        15        14        10        36     9      180.000000        0.117080         4    ;  uncertainty k = 0.032968
        15        14        19        18     9        0.000000       -0.141019         1    ;  uncertainty k = 0.190132
        15        14        19        18     9      180.000000       11.565169         2    ;  uncertainty k = 0.450751
        15        14        19        18     9        0.000000       -0.482803         3    ;  uncertainty k = 0.323947
        15        14        19        18     9      180.000000        0.820385         4    ;  uncertainty k = 0.428180
        15        14        19        40     9        0.000000        0.161510         1    ;  uncertainty k = 0.189285
        15        14        19        40     9      180.000000        7.143530         2    ;  uncertainty k = 0.548274
        15        14        19        40     9        0.000000        1.383620         3    ;  uncertainty k = 0.306740
        15        14        19        40     9      180.000000        1.646182         4    ;  uncertainty k = 0.144812
        15        16        17        18     9        0.000000        0.099530         1    ;  uncertainty k = 0.198850
        15        16        17        18     9      180.000000       10.864272         2    ;  uncertainty k = 0.250101
        15        16        17        18     9        0.000000       -0.460426         3    ;  uncertainty k = 0.291547
        15        16        17        18     9      180.000000        0.910602         4    ;  uncertainty k = 0.279798
        15        16        17        20     9        0.000000       -0.069350         1    ;  uncertainty k = 0.292775
        15        16        17        20     9      180.000000        8.942093         2    ;  uncertainty k = 0.563576
        15        16        17        20     9        0.000000        1.225126         3    ;  uncertainty k = 0.296630
        15        16        17        20     9      180.000000        1.608135         4    ;  uncertainty k = 0.239057
        16        15        14        19     9        0.000000       -0.141019         1    ;  uncertainty k = 0.190132
        16        15        14        19     9      180.000000       11.565169         2    ;  uncertainty k = 0.450751
        16        15        14        19     9        0.000000       -0.482803         3    ;  uncertainty k = 0.323947
        16        15        14        19     9      180.000000        0.820385         4    ;  uncertainty k = 0.428180
        16        17        18        19     9        0.000000        0.099530         1    ;  uncertainty k = 0.198850
        16        17        18        19     9      180.000000       10.864272         2    ;  uncertainty k = 0.250101
        16        17        18        19     9        0.000000       -0.460426         3    ;  uncertainty k = 0.291547
        16        17        18        19     9      180.000000        0.910602         4    ;  uncertainty k = 0.279798
        16        17        18        39     9        0.000000        0.071629         1    ;  uncertainty k = 0.210521
        16        17        18        39     9      180.000000        6.731320         2    ;  uncertainty k = 0.652358
        16        17        18        39     9        0.000000        1.402558         3    ;  uncertainty k = 0.275743
        16        17        18        39     9      180.000000        1.629461         4    ;  uncertainty k = 0.263941
        16        17        20        21     9        0.000000        0.364742         1    ;  uncertainty k = 0.617618
        16        17        20        21     9      180.000000        2.957626         2    ;  uncertainty k = 0.176252
        16        17        20        21     9        0.000000        0.337574         3    ;  uncertainty k = 0.277333
        16        17        20        21     9      180.000000       -0.075996         4    ;  uncertainty k = 0.052358
        16        17        20        24     9        0.000000        0.212085         1    ;  uncertainty k = 0.583246
        16        17        20        24     9      180.000000        2.756721         2    ;  uncertainty k = 0.102989
        16        17        20        24     9        0.000000        0.399155         3    ;  uncertainty k = 0.207054
        16        17        20        24     9      180.000000       -0.145894         4    ;  uncertainty k = 0.054997
        17        16        15        37     9        0.000000        0.051679         1    ;  uncertainty k = 0.047053
        17        16        15        37     9      180.000000        8.110356         2    ;  uncertainty k = 0.308213
        17        16        15        37     9        0.000000        1.348836         3    ;  uncertainty k = 0.262064
        17        16        15        37     9      180.000000        1.847919         4    ;  uncertainty k = 0.146536
        17        18        19        40     9        0.000000        0.051679         1    ;  uncertainty k = 0.047053
        17        18        19        40     9      180.000000        8.110356         2    ;  uncertainty k = 0.308213
        17        18        19        40     9        0.000000        1.348836         3    ;  uncertainty k = 0.262064
        17        18        19        40     9      180.000000        1.847919         4    ;  uncertainty k = 0.146536
        17        20        21        22     9        0.000000        0.730829         1    ;  uncertainty k = 0.745969
        17        20        21        22     9      180.000000       14.124868         2    ;  uncertainty k = 0.381349
        17        20        21        22     9        0.000000        1.366411         3    ;  uncertainty k = 0.224812
        17        20        21        22     9      180.000000        0.828718         4    ;  uncertainty k = 0.243932
        17        20        21        41     9        0.000000        0.487086         1    ;  uncertainty k = 0.482656
        17        20        21        41     9      180.000000        6.408018         2    ;  uncertainty k = 0.855931
        17        20        21        41     9        0.000000        1.305884         3    ;  uncertainty k = 0.462346
        17        20        21        41     9      180.000000        0.400447         4    ;  uncertainty k = 0.122561
        17        20        24        23     9        0.000000        0.856900         1    ;  uncertainty k = 1.194888
        17        20        24        23     9      180.000000       12.441670         2    ;  uncertainty k = 0.564932
        17        20        24        23     9        0.000000        1.830358         3    ;  uncertainty k = 0.514365
        17        20        24        23     9      180.000000        0.550073         4    ;  uncertainty k = 0.201764
        17        20        24        42     9        0.000000        0.304653         1    ;  uncertainty k = 0.808439
        17        20        24        42     9      180.000000        5.213596         2    ;  uncertainty k = 0.592555
        17        20        24        42     9        0.000000        1.354869         3    ;  uncertainty k = 0.262334
        17        20        24        42     9      180.000000        0.295532         4    ;  uncertainty k = 0.033191
        18        17        16        38     9        0.000000        0.071629         1    ;  uncertainty k = 0.210521
        18        17        16        38     9      180.000000        6.731320         2    ;  uncertainty k = 0.652358
        18        17        16        38     9        0.000000        1.402558         3    ;  uncertainty k = 0.275743
        18        17        16        38     9      180.000000        1.629461         4    ;  uncertainty k = 0.263941
        18        17        20        21     9        0.000000        0.364742         1    ;  uncertainty k = 0.617618
        18        17        20        21     9      180.000000        2.957626         2    ;  uncertainty k = 0.176252
        18        17        20        21     9        0.000000        0.337574         3    ;  uncertainty k = 0.277333
        18        17        20        21     9      180.000000       -0.075996         4    ;  uncertainty k = 0.052358
        18        17        20        24     9        0.000000        0.212085         1    ;  uncertainty k = 0.583246
        18        17        20        24     9      180.000000        2.756721         2    ;  uncertainty k = 0.102989
        18        17        20        24     9        0.000000        0.399155         3    ;  uncertainty k = 0.207054
        18        17        20        24     9      180.000000       -0.145894         4    ;  uncertainty k = 0.054997
        19        14        10        35     9        0.000000       -0.300138         1    ;  uncertainty k = 0.153189
        19        14        10        35     9      180.000000        1.928373         2    ;  uncertainty k = 0.130920
        19        14        10        35     9        0.000000        0.360376         3    ;  uncertainty k = 0.118491
        19        14        10        35     9      180.000000        0.117080         4    ;  uncertainty k = 0.032968
        19        14        10        36     9        0.000000       -0.300138         1    ;  uncertainty k = 0.153189
        19        14        10        36     9      180.000000        1.928373         2    ;  uncertainty k = 0.130920
        19        14        10        36     9        0.000000        0.360376         3    ;  uncertainty k = 0.118491
        19        14        10        36     9      180.000000        0.117080         4    ;  uncertainty k = 0.032968
        19        14        15        37     9        0.000000        0.161510         1    ;  uncertainty k = 0.189285
        19        14        15        37     9      180.000000        7.143530         2    ;  uncertainty k = 0.548274
        19        14        15        37     9        0.000000        1.383620         3    ;  uncertainty k = 0.306740
        19        14        15        37     9      180.000000        1.646182         4    ;  uncertainty k = 0.144812
        19        18        17        20     9        0.000000       -0.069350         1    ;  uncertainty k = 0.292775
        19        18        17        20     9      180.000000        8.942093         2    ;  uncertainty k = 0.563576
        19        18        17        20     9        0.000000        1.225126         3    ;  uncertainty k = 0.296630
        19        18        17        20     9      180.000000        1.608135         4    ;  uncertainty k = 0.239057
        20        17        16        38     9        0.000000       -0.274120         1    ;  uncertainty k = 0.256075
        20        17        16        38     9      180.000000        6.927144         2    ;  uncertainty k = 0.360004
        20        17        16        38     9        0.000000        0.845886         3    ;  uncertainty k = 0.114326
        20        17        16        38     9      180.000000        1.148769         4    ;  uncertainty k = 0.209269
        20        17        18        39     9        0.000000       -0.274120         1    ;  uncertainty k = 0.256075
        20        17        18        39     9      180.000000        6.927144         2    ;  uncertainty k = 0.360004
        20        17        18        39     9        0.000000        0.845886         3    ;  uncertainty k = 0.114326
        20        17        18        39     9      180.000000        1.148769         4    ;  uncertainty k = 0.209269
        20        21        22        23     9        0.000000       -0.316526         1    ;  uncertainty k = 1.047711
        20        21        22        23     9      180.000000       17.284046         2    ;  uncertainty k = 0.688330
        20        21        22        23     9        0.000000       -9.057288         3    ;  uncertainty k = 0.901701
        20        21        22        23     9      180.000000        1.215837         4    ;  uncertainty k = 0.532722
        20        21        22        25     9        0.000000        1.392889         1    ;  uncertainty k = 1.290774
        20        21        22        25     9      180.000000        9.638848         2    ;  uncertainty k = 0.368010
        20        21        22        25     9        0.000000        1.944195         3    ;  uncertainty k = 0.374373
        20        21        22        25     9      180.000000       -0.106447         4    ;  uncertainty k = 0.068874
        20        24        23        22     9        0.000000       -0.058010         1    ;  uncertainty k = 0.625462
        20        24        23        22     9      180.000000       24.452638         2    ;  uncertainty k = 0.460560
        20        24        23        22     9        0.000000       -7.646340         3    ;  uncertainty k = 0.486543
        20        24        23        22     9      180.000000        2.227719         4    ;  uncertainty k = 0.719303
        21        20        24        23     9        0.000000       -0.355455         1    ;  uncertainty k = 0.508595
        21        20        24        23     9      180.000000       15.046675         2    ;  uncertainty k = 1.070272
        21        20        24        23     9        0.000000       -9.005960         3    ;  uncertainty k = 0.840801
        21        20        24        23     9      180.000000        1.826438         4    ;  uncertainty k = 0.522282
        21        20        24        42     9        0.000000       -0.031464         1    ;  uncertainty k = 0.354506
        21        20        24        42     9      180.000000        8.072054         2    ;  uncertainty k = 0.597935
        21        20        24        42     9        0.000000        1.249978         3    ;  uncertainty k = 0.335798
        21        20        24        42     9      180.000000        0.512738         4    ;  uncertainty k = 0.162738
        21        22        23        24     9        0.000000       -0.225287         1    ;  uncertainty k = 0.828367
        21        22        23        24     9      180.000000       16.689018         2    ;  uncertainty k = 0.422253
        21        22        23        24     9        0.000000       -7.488213         3    ;  uncertainty k = 1.300321
        21        22        23        24     9      180.000000        1.602126         4    ;  uncertainty k = 0.425607
        21        22        25        43     9        0.000000       -0.009533         1    ;  uncertainty k = 0.351891
        21        22        25        43     9      180.000000       -1.118668         2    ;  uncertainty k = 0.175719
        21        22        25        43     9        0.000000        0.788902         3    ;  uncertainty k = 0.017444
        21        22        25        43     9      180.000000        0.208637         4    ;  uncertainty k = 0.050244
        21        22        25        44     9        0.000000       -0.009533         1    ;  uncertainty k = 0.351891
        21        22        25        44     9      180.000000       -1.118668         2    ;  uncertainty k = 0.175719
        21        22        25        44     9        0.000000        0.788902         3    ;  uncertainty k = 0.017444
        21        22        25        44     9      180.000000        0.208637         4    ;  uncertainty k = 0.050244
        21        22        25        45     9        0.000000       -0.009533         1    ;  uncertainty k = 0.351891
        21        22        25        45     9      180.000000       -1.118668         2    ;  uncertainty k = 0.175719
        21        22        25        45     9        0.000000        0.788902         3    ;  uncertainty k = 0.017444
        21        22        25        45     9      180.000000        0.208637         4    ;  uncertainty k = 0.050244
        22        21        20        24     9        0.000000        0.138355         1    ;  uncertainty k = 0.250165
        22        21        20        24     9      180.000000       18.966874         2    ;  uncertainty k = 0.230930
        22        21        20        24     9        0.000000       -9.822058         3    ;  uncertainty k = 0.542344
        22        21        20        24     9      180.000000        1.616629         4    ;  uncertainty k = 0.658377
        22        23        24        42     9        0.000000        0.455448         1    ;  uncertainty k = 0.742365
        22        23        24        42     9      180.000000       22.168886         2    ;  uncertainty k = 0.393002
        22        23        24        42     9        0.000000        1.308522         3    ;  uncertainty k = 0.565188
        22        23        24        42     9      180.000000        1.249378         4    ;  uncertainty k = 0.583038
        23        22        21        41     9        0.000000        0.954942         1    ;  uncertainty k = 0.636273
        23        22        21        41     9      180.000000       11.894603         2    ;  uncertainty k = 0.460933
        23        22        21        41     9        0.000000        1.730548         3    ;  uncertainty k = 0.518861
        23        22        21        41     9      180.000000        0.048447         4    ;  uncertainty k = 0.167333
        23        22        25        43     9        0.000000        1.398760         1    ;  uncertainty k = 0.579544
        23        22        25        43     9      180.000000       -1.134020         2    ;  uncertainty k = 0.131941
        23        22        25        43     9        0.000000        0.742560         3    ;  uncertainty k = 0.044341
        23        22        25        43     9      180.000000        0.251257         4    ;  uncertainty k = 0.037756
        23        22        25        44     9        0.000000        1.398760         1    ;  uncertainty k = 0.579544
        23        22        25        44     9      180.000000       -1.134020         2    ;  uncertainty k = 0.131941
        23        22        25        44     9        0.000000        0.742560         3    ;  uncertainty k = 0.044341
        23        22        25        44     9      180.000000        0.251257         4    ;  uncertainty k = 0.037756
        23        22        25        45     9        0.000000        1.398760         1    ;  uncertainty k = 0.579544
        23        22        25        45     9      180.000000       -1.134020         2    ;  uncertainty k = 0.131941
        23        22        25        45     9        0.000000        0.742560         3    ;  uncertainty k = 0.044341
        23        22        25        45     9      180.000000        0.251257         4    ;  uncertainty k = 0.037756
        24        20        21        41     9        0.000000        0.015435         1    ;  uncertainty k = 0.258046
        24        20        21        41     9      180.000000       10.338561         2    ;  uncertainty k = 0.277931
        24        20        21        41     9        0.000000        1.639009         3    ;  uncertainty k = 0.357902
        24        20        21        41     9      180.000000        0.594000         4    ;  uncertainty k = 0.198130
        24        23        22        25     9        0.000000        0.933315         1    ;  uncertainty k = 1.275516
        24        23        22        25     9      180.000000       13.272692         2    ;  uncertainty k = 0.326665
        24        23        22        25     9        0.000000        1.823279         3    ;  uncertainty k = 0.443014
        24        23        22        25     9      180.000000       -0.164134         4    ;  uncertainty k = 0.298893
        25        22        21        41     9        0.000000       -0.476540         1    ;  uncertainty k = 0.254767
        25        22        21        41     9      180.000000        3.142291         2    ;  uncertainty k = 0.652804
        25        22        21        41     9        0.000000        1.097292         3    ;  uncertainty k = 0.480723
        25        22        21        41     9      180.000000        0.022420         4    ;  uncertainty k = 0.193415
        26        11        28        27     9        0.000000        2.659844         1    ;  uncertainty k = 1.616656
        26        11        28        27     9      180.000000       15.201030         2    ;  uncertainty k = 0.209368
        26        11        28        27     9        0.000000       -0.507775         3    ;  uncertainty k = 0.416161
        26        11        28        27     9      180.000000        0.147458         4    ;  uncertainty k = 0.501119
        26        11        28        49     9        0.000000       -0.385384         1    ;  uncertainty k = 0.853783
        26        11        28        49     9      180.000000        3.585561         2    ;  uncertainty k = 0.752906
        26        11        28        49     9        0.000000        0.818448         3    ;  uncertainty k = 0.212064
        26        11        28        49     9      180.000000        0.341386         4    ;  uncertainty k = 0.371413
        26        11        28        50     9        0.000000       -0.385384         1    ;  uncertainty k = 0.853783
        26        11        28        50     9      180.000000        3.585561         2    ;  uncertainty k = 0.752906
        26        11        28        50     9        0.000000        0.818448         3    ;  uncertainty k = 0.212064
        26        11        28        50     9      180.000000        0.341386         4    ;  uncertainty k = 0.371413
        26        27        28        49     9        0.000000        0.382558         1    ;  uncertainty k = 0.659682
        26        27        28        49     9      180.000000       -0.245175         2    ;  uncertainty k = 0.566614
        26        27        28        49     9        0.000000       -0.230182         3    ;  uncertainty k = 0.244543
        26        27        28        49     9      180.000000        0.080488         4    ;  uncertainty k = 0.164444
        26        27        28        50     9        0.000000        0.382558         1    ;  uncertainty k = 0.659682
        26        27        28        50     9      180.000000       -0.245175         2    ;  uncertainty k = 0.566614
        26        27        28        50     9        0.000000       -0.230182         3    ;  uncertainty k = 0.244543
        26        27        28        50     9      180.000000        0.080488         4    ;  uncertainty k = 0.164444
        26        27        29        30     9        0.000000       -1.508338         1    ;  uncertainty k = 0.694737
        26        27        29        30     9      180.000000       -1.075132         2    ;  uncertainty k = 0.658070
        26        27        29        30     9        0.000000        1.471062         3    ;  uncertainty k = 0.258159
        26        27        29        30     9      180.000000       -0.057525         4    ;  uncertainty k = 0.207556
        27        26        11        28     9        0.000000        2.659844         1    ;  uncertainty k = 1.616655
        27        26        11        28     9      180.000000       15.201028         2    ;  uncertainty k = 0.209368
        27        26        11        28     9        0.000000       -0.507775         3    ;  uncertainty k = 0.416161
        27        26        11        28     9      180.000000        0.147458         4    ;  uncertainty k = 0.501119
        27        29        30        51     9        0.000000        0.365920         1    ;  uncertainty k = 0.598901
        27        29        30        51     9      180.000000       -2.473279         2    ;  uncertainty k = 0.260339
        27        29        30        51     9        0.000000        1.163327         3    ;  uncertainty k = 0.186931
        27        29        30        51     9      180.000000        0.056232         4    ;  uncertainty k = 0.071317
        27        29        30        52     9        0.000000        0.365920         1    ;  uncertainty k = 0.598901
        27        29        30        52     9      180.000000       -2.473279         2    ;  uncertainty k = 0.260339
        27        29        30        52     9        0.000000        1.163327         3    ;  uncertainty k = 0.186931
        27        29        30        52     9      180.000000        0.056232         4    ;  uncertainty k = 0.071317
        27        29        30        53     9        0.000000        0.365920         1    ;  uncertainty k = 0.598901
        27        29        30        53     9      180.000000       -2.473279         2    ;  uncertainty k = 0.260339
        27        29        30        53     9        0.000000        1.163327         3    ;  uncertainty k = 0.186931
        27        29        30        53     9      180.000000        0.056232         4    ;  uncertainty k = 0.071317
        28        11        26        46     9        0.000000       -0.385385         1    ;  uncertainty k = 0.853782
        28        11        26        46     9      180.000000        3.585560         2    ;  uncertainty k = 0.752904
        28        11        26        46     9        0.000000        0.818448         3    ;  uncertainty k = 0.212064
        28        11        26        46     9      180.000000        0.341386         4    ;  uncertainty k = 0.371412
        28        11        26        47     9        0.000000       -0.385385         1    ;  uncertainty k = 0.853782
        28        11        26        47     9      180.000000        3.585560         2    ;  uncertainty k = 0.752904
        28        11        26        47     9        0.000000        0.818448         3    ;  uncertainty k = 0.212064
        28        11        26        47     9      180.000000        0.341386         4    ;  uncertainty k = 0.371412
        28        27        26        46     9        0.000000        0.382559         1    ;  uncertainty k = 0.659681
        28        27        26        46     9      180.000000       -0.245176         2    ;  uncertainty k = 0.566613
        28        27        26        46     9        0.000000       -0.230182         3    ;  uncertainty k = 0.244543
        28        27        26        46     9      180.000000        0.080488         4    ;  uncertainty k = 0.164444
        28        27        26        47     9        0.000000        0.382559         1    ;  uncertainty k = 0.659681
        28        27        26        47     9      180.000000       -0.245176         2    ;  uncertainty k = 0.566613
        28        27        26        47     9        0.000000       -0.230182         3    ;  uncertainty k = 0.244543
        28        27        26        47     9      180.000000        0.080488         4    ;  uncertainty k = 0.164444
        28        27        29        30     9        0.000000       -1.508337         1    ;  uncertainty k = 0.694736
        28        27        29        30     9      180.000000       -1.075132         2    ;  uncertainty k = 0.658071
        28        27        29        30     9        0.000000        1.471062         3    ;  uncertainty k = 0.258159
        28        27        29        30     9      180.000000       -0.057525         4    ;  uncertainty k = 0.207556
        29        27        26        46     9        0.000000        0.635715         1    ;  uncertainty k = 0.445450
        29        27        26        46     9      180.000000       -1.579417         2    ;  uncertainty k = 1.208270
        29        27        26        46     9        0.000000        1.992620         3    ;  uncertainty k = 0.321251
        29        27        26        46     9      180.000000        0.249614         4    ;  uncertainty k = 0.425378
        29        27        26        47     9        0.000000        0.635715         1    ;  uncertainty k = 0.445450
        29        27        26        47     9      180.000000       -1.579417         2    ;  uncertainty k = 1.208270
        29        27        26        47     9        0.000000        1.992620         3    ;  uncertainty k = 0.321251
        29        27        26        47     9      180.000000        0.249614         4    ;  uncertainty k = 0.425378
        29        27        28        49     9        0.000000        0.635713         1    ;  uncertainty k = 0.445449
        29        27        28        49     9      180.000000       -1.579419         2    ;  uncertainty k = 1.208270
        29        27        28        49     9        0.000000        1.992620         3    ;  uncertainty k = 0.321251
        29        27        28        49     9      180.000000        0.249615         4    ;  uncertainty k = 0.425378
        29        27        28        50     9        0.000000        0.635713         1    ;  uncertainty k = 0.445449
        29        27        28        50     9      180.000000       -1.579419         2    ;  uncertainty k = 1.208270
        29        27        28        50     9        0.000000        1.992620         3    ;  uncertainty k = 0.321251
        29        27        28        50     9      180.000000        0.249615         4    ;  uncertainty k = 0.425378
        30        29        27        48     9        0.000000       -1.154967         1    ;  uncertainty k = 0.740157
        30        29        27        48     9      180.000000        0.614134         2    ;  uncertainty k = 0.473490
        30        29        27        48     9        0.000000        1.490930         3    ;  uncertainty k = 0.176775
        30        29        27        48     9      180.000000        0.146819         4    ;  uncertainty k = 0.152731
        32         3         4        33     9        0.000000       -0.081442         1    ;  uncertainty k = 0.386729
        32         3         4        33     9      180.000000        8.097681         2    ;  uncertainty k = 0.276144
        32         3         4        33     9        0.000000       -0.195856         3    ;  uncertainty k = 0.217352
        32         3         4        33     9      180.000000        0.261942         4    ;  uncertainty k = 0.191928
        37        15        16        38     9        0.000000       -0.105048         1    ;  uncertainty k = 0.079024
        37        15        16        38     9      180.000000        7.802567         2    ;  uncertainty k = 0.370707
        37        15        16        38     9        0.000000       -0.520984         3    ;  uncertainty k = 0.249529
        37        15        16        38     9      180.000000        0.209880         4    ;  uncertainty k = 0.188642
        39        18        19        40     9        0.000000       -0.105048         1    ;  uncertainty k = 0.079024
        39        18        19        40     9      180.000000        7.802567         2    ;  uncertainty k = 0.370707
        39        18        19        40     9        0.000000       -0.520984         3    ;  uncertainty k = 0.249529
        39        18        19        40     9      180.000000        0.209880         4    ;  uncertainty k = 0.188642
        46        26        27        48     9        0.000000       -0.431259         1    ;  uncertainty k = 0.545386
        46        26        27        48     9      180.000000       -1.357271         2    ;  uncertainty k = 0.563070
        46        26        27        48     9        0.000000        1.198244         3    ;  uncertainty k = 0.152430
        46        26        27        48     9      180.000000        0.185911         4    ;  uncertainty k = 0.248087
        47        26        27        48     9        0.000000       -0.431259         1    ;  uncertainty k = 0.545386
        47        26        27        48     9      180.000000       -1.357271         2    ;  uncertainty k = 0.563070
        47        26        27        48     9        0.000000        1.198244         3    ;  uncertainty k = 0.152430
        47        26        27        48     9      180.000000        0.185911         4    ;  uncertainty k = 0.248087
        48        27        28        49     9        0.000000       -0.431259         1    ;  uncertainty k = 0.545384
        48        27        28        49     9      180.000000       -1.357271         2    ;  uncertainty k = 0.563070
        48        27        28        49     9        0.000000        1.198244         3    ;  uncertainty k = 0.152430
        48        27        28        49     9      180.000000        0.185911         4    ;  uncertainty k = 0.248087
        48        27        28        50     9        0.000000       -0.431259         1    ;  uncertainty k = 0.545384
        48        27        28        50     9      180.000000       -1.357271         2    ;  uncertainty k = 0.563070
        48        27        28        50     9        0.000000        1.198244         3    ;  uncertainty k = 0.152430
        48        27        28        50     9      180.000000        0.185911         4    ;  uncertainty k = 0.248087

[ dihedrals ] ; impropers
;       ai        aj        ak        al funct           phase               k        pn
         1         2         4        12     4      180.000000        7.689985         2    ;  uncertainty k = 0.140175
         1         4        12         2     4      180.000000        7.689985         2    ;  uncertainty k = 0.140175
         1        12         2         4     4      180.000000        7.689985         2    ;  uncertainty k = 0.140175
         2         1         6        31     4      180.000000        5.378357         2    ;  uncertainty k = 0.157971
         2         6        31         1     4      180.000000        5.378357         2    ;  uncertainty k = 0.157971
         2        31         1         6     4      180.000000        5.378357         2    ;  uncertainty k = 0.157971
         3         4         5        32     4      180.000000        2.445477         2    ;  uncertainty k = 0.283211
         3         5        32         4     4      180.000000        2.445477         2    ;  uncertainty k = 0.283211
         3        32         4         5     4      180.000000        2.445477         2    ;  uncertainty k = 0.283211
         4         1         3        33     4      180.000000        4.597041         2    ;  uncertainty k = 0.122749
         4         3        33         1     4      180.000000        4.597041         2    ;  uncertainty k = 0.122749
         4        33         1         3     4      180.000000        4.597041         2    ;  uncertainty k = 0.122749
         5         3         6         9     4      180.000000        1.644327         2    ;  uncertainty k = 0.907158
         5         6         9         3     4      180.000000        1.644327         2    ;  uncertainty k = 0.907158
         5         9         3         6     4      180.000000        1.644327         2    ;  uncertainty k = 0.907158
         7         6         8        10     4      180.000000        7.637669         2    ;  uncertainty k = 0.246617
         7         8        10         6     4      180.000000        7.637669         2    ;  uncertainty k = 0.246617
         7        10         6         8     4      180.000000        7.637669         2    ;  uncertainty k = 0.246617
        12         1        11        13     4      180.000000       50.479880         2    ;  uncertainty k = 0.067080
        12        11        13         1     4      180.000000       50.479880         2    ;  uncertainty k = 0.067080
        12        13         1        11     4      180.000000       50.479880         2    ;  uncertainty k = 0.067080
        14        10        15        19     4      180.000000       13.443226         2    ;  uncertainty k = 0.081656
        14        15        19        10     4      180.000000       13.443226         2    ;  uncertainty k = 0.081656
        14        19        10        15     4      180.000000       13.443226         2    ;  uncertainty k = 0.081656
        15        14        16        37     4      180.000000        4.038197         2    ;  uncertainty k = 0.126249
        15        16        37        14     4      180.000000        4.038197         2    ;  uncertainty k = 0.126249
        15        37        14        16     4      180.000000        4.038197         2    ;  uncertainty k = 0.126249
        16        15        17        38     4      180.000000        3.634538         2    ;  uncertainty k = 0.167362
        16        17        38        15     4      180.000000        3.634538         2    ;  uncertainty k = 0.167362
        16        38        15        17     4      180.000000        3.634538         2    ;  uncertainty k = 0.167362
        17        16        18        20     4      180.000000       14.868719         2    ;  uncertainty k = 0.081810
        17        18        20        16     4      180.000000       14.868719         2    ;  uncertainty k = 0.081810
        17        20        16        18     4      180.000000       14.868719         2    ;  uncertainty k = 0.081810
        18        17        19        39     4      180.000000        3.634538         2    ;  uncertainty k = 0.167362
        18        19        39        17     4      180.000000        3.634538         2    ;  uncertainty k = 0.167362
        18        39        17        19     4      180.000000        3.634538         2    ;  uncertainty k = 0.167362
        19        14        18        40     4      180.000000        4.038194         2    ;  uncertainty k = 0.126247
        19        18        40        14     4      180.000000        4.038194         2    ;  uncertainty k = 0.126247
        19        40        14        18     4      180.000000        4.038194         2    ;  uncertainty k = 0.126247
        20        17        21        24     4      180.000000        2.273628         2    ;  uncertainty k = 0.479725
        20        21        24        17     4      180.000000        2.273628         2    ;  uncertainty k = 0.479725
        20        24        17        21     4      180.000000        2.273628         2    ;  uncertainty k = 0.479725
        21        20        22        41     4      180.000000        0.843031         2    ;  uncertainty k = 0.771057
        21        22        41        20     4      180.000000        0.843031         2    ;  uncertainty k = 0.771057
        21        41        20        22     4      180.000000        0.843031         2    ;  uncertainty k = 0.771057
        24        20        23        42     4      180.000000        0.319029         2    ;  uncertainty k = 0.442787
        24        23        42        20     4      180.000000        0.319029         2    ;  uncertainty k = 0.442787
        24        42        20        23     4      180.000000        0.319029         2    ;  uncertainty k = 0.442787

[ pairs ]
;       ai        aj funct
         1         5     1
         1         7     1
         1        26     1
         1        28     1
         1        32     1
         2         3     1
         2         8     1
         2         9     1
         2        10     1
         2        11     1
         2        13     1
         2        33     1
         3         7     1
         3         8     1
         3        12     1
         3        34     1
         4         6     1
         4         9     1
         4        11     1
         4        13     1
         4        31     1
         5        10     1
         5        31     1
         5        33     1
         6        12     1
         6        14     1
         6        32     1
         6        34     1
         6        35     1
         6        36     1
         7        15     1
         7        19     1
         7        31     1
         7        34     1
         8        14     1
         8        35     1
         8        36     1
         9        10     1
         9        32     1
        10        16     1
        10        18     1
        10        37     1
        10        40     1
        11        29     1
        11        48     1
        12        27     1
        12        31     1
        12        33     1
        12        46     1
        12        47     1
        12        49     1
        12        50     1
        13        26     1
        13        28     1
        14        17     1
        14        38     1
        14        39     1
        15        18     1
        15        20     1
        15        35     1
        15        36     1
        15        40     1
        16        19     1
        16        21     1
        16        24     1
        16        39     1
        17        22     1
        17        23     1
        17        37     1
        17        40     1
        17        41     1
        17        42     1
        18        21     1
        18        24     1
        18        38     1
        19        20     1
        19        35     1
        19        36     1
        19        37     1
        20        25     1
        20        38     1
        20        39     1
        21        42     1
        21        43     1
        21        44     1
        21        45     1
        22        42     1
        23        41     1
        23        43     1
        23        44     1
        23        45     1
        24        25     1
        24        41     1
        25        41     1
        26        30     1
        26        49     1
        26        50     1
        27        51     1
        27        52     1
        27        53     1
        28        30     1
        28        46     1
        28        47     1
        29        46     1
        29        47     1
        29        49     1
        29        50     1
        30        48     1
        32        33     1
        37        38     1
        39        40     1
        46        48     1
        47        48     1
        48        49     1
        48        50     1
