; ITP file created by ByteFF-joint-25, 2026-02-17 09:06:47.547356

[ atomtypes ]
;name           bonded.type        at.num        mass        charge   ptype           sigma         epsilon
 c0bf                                   6      0.0000       0.00000       A     3.31533e-01     4.13120e-01    ;  uncertainty sigma = 0.000013, epsilon = 0.000859
 c1bf                                   6      0.0000       0.00000       A     3.31522e-01     4.13213e-01    ;  uncertainty sigma = 0.000006, epsilon = 0.000464
 c2bf                                   6      0.0000       0.00000       A     3.31518e-01     4.13313e-01    ;  uncertainty sigma = 0.000005, epsilon = 0.000810
 c3bf                                   6      0.0000       0.00000       A     3.31533e-01     4.13419e-01    ;  uncertainty sigma = 0.000006, epsilon = 0.000659
 c4bf                                   6      0.0000       0.00000       A     3.31513e-01     4.13127e-01    ;  uncertainty sigma = 0.000006, epsilon = 0.000908
 c5bf                                   6      0.0000       0.00000       A     3.31527e-01     4.13309e-01    ;  uncertainty sigma = 0.000007, epsilon = 0.000583
 c6bf                                   6      0.0000       0.00000       A     3.31510e-01     4.13718e-01    ;  uncertainty sigma = 0.000012, epsilon = 0.000573
 n7bf                                   7      0.0000       0.00000       A     3.38378e-01     3.93289e-01    ;  uncertainty sigma = 0.000011, epsilon = 0.000859
 n8bf                                   7      0.0000       0.00000       A     3.20594e-01     8.54239e-01    ;  uncertainty sigma = 0.000008, epsilon = 0.000871
 c9bf                                   6      0.0000       0.00000       A     3.39770e-01     4.50677e-01    ;  uncertainty sigma = 0.000014, epsilon = 0.000932
 n10bf                                  7      0.0000       0.00000       A     3.18104e-01     6.83578e-01    ;  uncertainty sigma = 0.000006, epsilon = 0.002285
 c11bf                                  6      0.0000       0.00000       A     3.31518e-01     4.13358e-01    ;  uncertainty sigma = 0.000010, epsilon = 0.000720
 o12bf                                  8      0.0000       0.00000       A     3.04805e-01     6.12277e-01    ;  uncertainty sigma = 0.000020, epsilon = 0.001233
 c13bf                                  6      0.0000       0.00000       A     3.31526e-01     4.13322e-01    ;  uncertainty sigma = 0.000007, epsilon = 0.000745
 c14bf                                  6      0.0000       0.00000       A     3.31523e-01     4.13371e-01    ;  uncertainty sigma = 0.000005, epsilon = 0.000423
 c15bf                                  6      0.0000       0.00000       A     3.31520e-01     4.13353e-01    ;  uncertainty sigma = 0.000004, epsilon = 0.000667
 c16bf                                  6      0.0000       0.00000       A     3.31533e-01     4.13284e-01    ;  uncertainty sigma = 0.000006, epsilon = 0.001098
 c17bf                                  6      0.0000       0.00000       A     3.31520e-01     4.13353e-01    ;  uncertainty sigma = 0.000004, epsilon = 0.000667
 c18bf                                  6      0.0000       0.00000       A     3.31523e-01     4.13371e-01    ;  uncertainty sigma = 0.000005, epsilon = 0.000423
 c19bf                                  6      0.0000       0.00000       A     3.31535e-01     4.13223e-01    ;  uncertainty sigma = 0.000005, epsilon = 0.000899
 c20bf                                  6      0.0000       0.00000       A     3.31521e-01     4.13333e-01    ;  uncertainty sigma = 0.000008, epsilon = 0.000598
 n21bf                                  7      0.0000       0.00000       A     3.20584e-01     8.54185e-01    ;  uncertainty sigma = 0.000011, epsilon = 0.001160
 n22bf                                  7      0.0000       0.00000       A     3.38434e-01     3.93690e-01    ;  uncertainty sigma = 0.000004, epsilon = 0.000785
 c23bf                                  6      0.0000       0.00000       A     3.31536e-01     4.13003e-01    ;  uncertainty sigma = 0.000006, epsilon = 0.000684
 c24bf                                  6      0.0000       0.00000       A     3.39777e-01     4.50912e-01    ;  uncertainty sigma = 0.000003, epsilon = 0.000595
 c25bf                                  6      0.0000       0.00000       A     3.39767e-01     4.50945e-01    ;  uncertainty sigma = 0.000006, epsilon = 0.000638
 c26bf                                  6      0.0000       0.00000       A     3.39782e-01     4.50713e-01    ;  uncertainty sigma = 0.000007, epsilon = 0.000476
 c27bf                                  6      0.0000       0.00000       A     3.39782e-01     4.50713e-01    ;  uncertainty sigma = 0.000007, epsilon = 0.000476
 c28bf                                  6      0.0000       0.00000       A     3.39767e-01     4.50946e-01    ;  uncertainty sigma = 0.000006, epsilon = 0.000638
 h29bf                                  1      0.0000       0.00000       A     2.62579e-01     6.71691e-02    ;  uncertainty sigma = 0.000008, epsilon = 0.000709
 h30bf                                  1      0.0000       0.00000       A     2.62571e-01     6.70414e-02    ;  uncertainty sigma = 0.000009, epsilon = 0.000485
 h31bf                                  1      0.0000       0.00000       A     2.62551e-01     6.72223e-02    ;  uncertainty sigma = 0.000011, epsilon = 0.000661
 h32bf                                  1      0.0000       0.00000       A     1.10648e-01     4.14022e-02    ;  uncertainty sigma = 0.000065, epsilon = 0.000771
 h33bf                                  1      0.0000       0.00000       A     2.60075e-01     8.67590e-02    ;  uncertainty sigma = 0.000029, epsilon = 0.000876
 h34bf                                  1      0.0000       0.00000       A     2.60075e-01     8.67590e-02    ;  uncertainty sigma = 0.000029, epsilon = 0.000876
 h35bf                                  1      0.0000       0.00000       A     2.62562e-01     6.71169e-02    ;  uncertainty sigma = 0.000007, epsilon = 0.000513
 h36bf                                  1      0.0000       0.00000       A     2.62566e-01     6.70543e-02    ;  uncertainty sigma = 0.000011, epsilon = 0.000444
 h37bf                                  1      0.0000       0.00000       A     2.62566e-01     6.70543e-02    ;  uncertainty sigma = 0.000011, epsilon = 0.000444
 h38bf                                  1      0.0000       0.00000       A     2.62562e-01     6.71169e-02    ;  uncertainty sigma = 0.000007, epsilon = 0.000513
 h39bf                                  1      0.0000       0.00000       A     2.53668e-01     6.70573e-02    ;  uncertainty sigma = 0.000029, epsilon = 0.000503
 h40bf                                  1      0.0000       0.00000       A     2.53681e-01     6.72123e-02    ;  uncertainty sigma = 0.000016, epsilon = 0.000497
 h41bf                                  1      0.0000       0.00000       A     2.42209e-01     8.68411e-02    ;  uncertainty sigma = 0.000019, epsilon = 0.000599
 h42bf                                  1      0.0000       0.00000       A     2.42209e-01     8.68411e-02    ;  uncertainty sigma = 0.000019, epsilon = 0.000599
 h43bf                                  1      0.0000       0.00000       A     2.42209e-01     8.68411e-02    ;  uncertainty sigma = 0.000019, epsilon = 0.000599
 h44bf                                  1      0.0000       0.00000       A     2.42205e-01     8.65973e-02    ;  uncertainty sigma = 0.000012, epsilon = 0.000592
 h45bf                                  1      0.0000       0.00000       A     2.42205e-01     8.65973e-02    ;  uncertainty sigma = 0.000012, epsilon = 0.000592
 h46bf                                  1      0.0000       0.00000       A     2.60020e-01     8.65692e-02    ;  uncertainty sigma = 0.000010, epsilon = 0.000587
 h47bf                                  1      0.0000       0.00000       A     2.60020e-01     8.65692e-02    ;  uncertainty sigma = 0.000010, epsilon = 0.000587
 h48bf                                  1      0.0000       0.00000       A     2.60020e-01     8.65692e-02    ;  uncertainty sigma = 0.000010, epsilon = 0.000587
 h49bf                                  1      0.0000       0.00000       A     2.60020e-01     8.65692e-02    ;  uncertainty sigma = 0.000010, epsilon = 0.000587
 h50bf                                  1      0.0000       0.00000       A     2.42205e-01     8.65973e-02    ;  uncertainty sigma = 0.000012, epsilon = 0.000592
 h51bf                                  1      0.0000       0.00000       A     2.42205e-01     8.65973e-02    ;  uncertainty sigma = 0.000012, epsilon = 0.000592

[ moleculetype ]
;name             nrexcl
 MOL                   3

[ atoms ]
;       nr            type      resi   res      atom      cgnr      charge          mass ; qtot
         1            c0bf         1   UNL        c0         1    -0.18623       12.0110 ; qtot   -0.186
         2            c1bf         1   UNL        c1         2    -0.00333       12.0110 ; qtot   -0.190
         3            c2bf         1   UNL        c2         3    -0.16433       12.0110 ; qtot   -0.354
         4            c3bf         1   UNL        c3         4    -0.05845       12.0110 ; qtot   -0.412
         5            c4bf         1   UNL        c4         5    -0.00079       12.0110 ; qtot   -0.413
         6            c5bf         1   UNL        c5         6    -0.23713       12.0110 ; qtot   -0.650
         7            c6bf         1   UNL        c6         7     0.37183       12.0110 ; qtot   -0.278
         8            n7bf         1   UNL        n7         8    -0.50863       14.0070 ; qtot   -0.787
         9            n8bf         1   UNL        n8         9    -0.03606       14.0070 ; qtot   -0.823
        10            c9bf         1   UNL        c9        10    -0.04574       12.0110 ; qtot   -0.869
        11           n10bf         1   UNL       n10        11    -0.48613       14.0070 ; qtot   -1.355
        12           c11bf         1   UNL       c11        12     0.68076       12.0110 ; qtot   -0.674
        13           o12bf         1   UNL       o12        13    -0.60192       15.9990 ; qtot   -1.276
        14           c13bf         1   UNL       c13        14    -0.08175       12.0110 ; qtot   -1.358
        15           c14bf         1   UNL       c14        15    -0.11939       12.0110 ; qtot   -1.477
        16           c15bf         1   UNL       c15        16    -0.12732       12.0110 ; qtot   -1.605
        17           c16bf         1   UNL       c16        17     0.00918       12.0110 ; qtot   -1.595
        18           c17bf         1   UNL       c17        18    -0.12732       12.0110 ; qtot   -1.723
        19           c18bf         1   UNL       c18        19    -0.11939       12.0110 ; qtot   -1.842
        20           c19bf         1   UNL       c19        20    -0.22601       12.0110 ; qtot   -2.068
        21           c20bf         1   UNL       c20        21    -0.11441       12.0110 ; qtot   -2.183
        22           n21bf         1   UNL       n21        22     0.08671       14.0070 ; qtot   -2.096
        23           n22bf         1   UNL       n22        23    -0.52298       14.0070 ; qtot   -2.619
        24           c23bf         1   UNL       c23        24     0.31766       12.0110 ; qtot   -2.301
        25           c24bf         1   UNL       c24        25     0.04276       12.0110 ; qtot   -2.258
        26           c25bf         1   UNL       c25        26     0.09754       12.0110 ; qtot   -2.161
        27           c26bf         1   UNL       c26        27    -0.09536       12.0110 ; qtot   -2.256
        28           c27bf         1   UNL       c27        28    -0.09536       12.0110 ; qtot   -2.352
        29           c28bf         1   UNL       c28        29     0.09754       12.0110 ; qtot   -2.254
        30           h29bf         1   UNL       h29        30     0.15375        1.0080 ; qtot   -2.100
        31           h30bf         1   UNL       h30        31     0.14365        1.0080 ; qtot   -1.957
        32           h31bf         1   UNL       h31        32     0.14710        1.0080 ; qtot   -1.810
        33           h32bf         1   UNL       h32        33     0.32635        1.0080 ; qtot   -1.483
        34           h33bf         1   UNL       h33        34     0.06335        1.0080 ; qtot   -1.420
        35           h34bf         1   UNL       h34        35     0.06335        1.0080 ; qtot   -1.356
        36           h35bf         1   UNL       h35        36     0.13610        1.0080 ; qtot   -1.220
        37           h36bf         1   UNL       h36        37     0.13384        1.0080 ; qtot   -1.087
        38           h37bf         1   UNL       h37        38     0.13384        1.0080 ; qtot   -0.953
        39           h38bf         1   UNL       h38        39     0.13610        1.0080 ; qtot   -0.817
        40           h39bf         1   UNL       h39        40     0.17330        1.0080 ; qtot   -0.643
        41           h40bf         1   UNL       h40        41     0.03867        1.0080 ; qtot   -0.605
        42           h41bf         1   UNL       h41        42     0.05820        1.0080 ; qtot   -0.546
        43           h42bf         1   UNL       h42        43     0.05820        1.0080 ; qtot   -0.488
        44           h43bf         1   UNL       h43        44     0.05820        1.0080 ; qtot   -0.430
        45           h44bf         1   UNL       h44        45     0.05370        1.0080 ; qtot   -0.376
        46           h45bf         1   UNL       h45        46     0.05370        1.0080 ; qtot   -0.323
        47           h46bf         1   UNL       h46        47     0.05381        1.0080 ; qtot   -0.269
        48           h47bf         1   UNL       h47        48     0.05381        1.0080 ; qtot   -0.215
        49           h48bf         1   UNL       h48        49     0.05381        1.0080 ; qtot   -0.161
        50           h49bf         1   UNL       h49        50     0.05381        1.0080 ; qtot   -0.107
        51           h50bf         1   UNL       h50        51     0.05370        1.0080 ; qtot   -0.054
        52           h51bf         1   UNL       h51        52     0.05371        1.0080 ; qtot    0.000

[ bonds ]
;       ai        aj funct               r               k
         1         2     1        0.139269   356326.514111    ;  uncertainty r = 0.000113, k = 5.444286
         1         4     1        0.142173   331369.837695    ;  uncertainty r = 0.000113, k = 5.081113
         1        12     1        0.149838   257396.441895    ;  uncertainty r = 0.000035, k = 13.599737
         2         6     1        0.140009   362401.154004    ;  uncertainty r = 0.000069, k = 5.435879
         2        30     1        0.108662   332411.496387    ;  uncertainty r = 0.000026, k = 1.829626
         3         4     1        0.138476   368064.569824    ;  uncertainty r = 0.000036, k = 3.724481
         3         5     1        0.140230   361304.488379    ;  uncertainty r = 0.000057, k = 5.463780
         3        31     1        0.108856   335451.510498    ;  uncertainty r = 0.000008, k = 1.619630
         4        32     1        0.108637   331950.960156    ;  uncertainty r = 0.000014, k = 2.316018
         5         6     1        0.141751   401528.295801    ;  uncertainty r = 0.000055, k = 7.890353
         5         9     1        0.137355   299898.542529    ;  uncertainty r = 0.000054, k = 10.387935
         6         7     1        0.144228   227880.395508    ;  uncertainty r = 0.000106, k = 7.741600
         7         8     1        0.132796   464085.122559    ;  uncertainty r = 0.000107, k = 7.952511
         7        10     1        0.150186   237414.777441    ;  uncertainty r = 0.000064, k = 4.415855
         8         9     1        0.136819   297875.211816    ;  uncertainty r = 0.000034, k = 11.449749
         9        33     1        0.101020   416476.391699    ;  uncertainty r = 0.000031, k = 2.687214
        10        14     1        0.151795   233478.870459    ;  uncertainty r = 0.000063, k = 3.628626
        10        34     1        0.109648   308979.130029    ;  uncertainty r = 0.000023, k = 1.425937
        10        35     1        0.109648   308979.130029    ;  uncertainty r = 0.000023, k = 1.425937
        11        12     1        0.136823   334155.629883    ;  uncertainty r = 0.000124, k = 7.556847
        11        26     1        0.147504   243591.055029    ;  uncertainty r = 0.000030, k = 2.625928
        11        29     1        0.147504   243591.055029    ;  uncertainty r = 0.000030, k = 2.626008
        12        13     1        0.123852   759525.626367    ;  uncertainty r = 0.000066, k = 2.198409
        14        15     1        0.139794   355474.059863    ;  uncertainty r = 0.000028, k = 2.352255
        14        19     1        0.139794   355474.059863    ;  uncertainty r = 0.000028, k = 2.352255
        15        16     1        0.139338   362972.291455    ;  uncertainty r = 0.000020, k = 2.159620
        15        36     1        0.108902   333492.329004    ;  uncertainty r = 0.000022, k = 1.112447
        16        17     1        0.140253   353391.993799    ;  uncertainty r = 0.000028, k = 3.610471
        16        37     1        0.108868   334958.771973    ;  uncertainty r = 0.000030, k = 0.809239
        17        18     1        0.140253   353391.993799    ;  uncertainty r = 0.000028, k = 3.610472
        17        20     1        0.146652   274345.727832    ;  uncertainty r = 0.000041, k = 6.994044
        18        19     1        0.139338   362972.291455    ;  uncertainty r = 0.000020, k = 2.159629
        18        38     1        0.108868   334958.771973    ;  uncertainty r = 0.000030, k = 0.809239
        19        39     1        0.108902   333492.303467    ;  uncertainty r = 0.000022, k = 1.112423
        20        21     1        0.139092   414208.236719    ;  uncertainty r = 0.000013, k = 2.977949
        20        24     1        0.142427   245231.890918    ;  uncertainty r = 0.000028, k = 7.933802
        21        22     1        0.136086   293168.518262    ;  uncertainty r = 0.000038, k = 2.183978
        21        40     1        0.108275   339142.108008    ;  uncertainty r = 0.000029, k = 1.978626
        22        23     1        0.135372   281833.846729    ;  uncertainty r = 0.000063, k = 7.581417
        22        25     1        0.145228   253114.072949    ;  uncertainty r = 0.000011, k = 4.991527
        23        24     1        0.133356   453692.795898    ;  uncertainty r = 0.000038, k = 2.837549
        24        41     1        0.108433   337731.157178    ;  uncertainty r = 0.000017, k = 2.346797
        25        42     1        0.109330   311409.292432    ;  uncertainty r = 0.000011, k = 1.149464
        25        43     1        0.109330   311409.292432    ;  uncertainty r = 0.000011, k = 1.149464
        25        44     1        0.109330   311409.292432    ;  uncertainty r = 0.000011, k = 1.149464
        26        27     1        0.153577   236314.128027    ;  uncertainty r = 0.000038, k = 5.172505
        26        45     1        0.109443   308101.674951    ;  uncertainty r = 0.000022, k = 2.734552
        26        46     1        0.109443   308101.674951    ;  uncertainty r = 0.000022, k = 2.734552
        27        28     1        0.153768   220790.732129    ;  uncertainty r = 0.000022, k = 4.030109
        27        47     1        0.109444   309351.690918    ;  uncertainty r = 0.000019, k = 1.321548
        27        48     1        0.109444   309351.690918    ;  uncertainty r = 0.000019, k = 1.321548
        28        29     1        0.153577   236314.128027    ;  uncertainty r = 0.000038, k = 5.172568
        28        49     1        0.109444   309351.690918    ;  uncertainty r = 0.000019, k = 1.321548
        28        50     1        0.109444   309351.690918    ;  uncertainty r = 0.000019, k = 1.321548
        29        51     1        0.109443   308101.700488    ;  uncertainty r = 0.000022, k = 2.734558
        29        52     1        0.109443   308101.700488    ;  uncertainty r = 0.000022, k = 2.734558

[ angles ]
;       ai        aj        ak funct           theta             cth
         1         2         6     1      119.495583      551.177455    ;  uncertainty theta = 0.004545, k = 0.081020
         1         2        30     1      119.822350      272.225011    ;  uncertainty theta = 0.004020, k = 0.059864
         1         4         3     1      124.069092      524.940214    ;  uncertainty theta = 0.002807, k = 0.057166
         1         4        32     1      118.642151      273.669901    ;  uncertainty theta = 0.003254, k = 0.063761
         1        12        11     1      113.707619      426.663649    ;  uncertainty theta = 0.004973, k = 0.125428
         1        12        13     1      125.020126      533.055843    ;  uncertainty theta = 0.003548, k = 0.183326
         2         1         4     1      123.669983      469.805690    ;  uncertainty theta = 0.003884, k = 0.065472
         2         1        12     1      119.461807      327.746230    ;  uncertainty theta = 0.002133, k = 0.321920
         2         6         5     1      118.137985      403.603703    ;  uncertainty theta = 0.003829, k = 0.226300
         2         6         7     1      131.017548      339.821038    ;  uncertainty theta = 0.005361, k = 0.225164
         3         4        32     1      118.812294      285.349936    ;  uncertainty theta = 0.001776, k = 0.045213
         3         5         6     1      120.131676      383.220206    ;  uncertainty theta = 0.005180, k = 0.110701
         3         5         9     1      130.187103      397.017331    ;  uncertainty theta = 0.003233, k = 0.091251
         4         1        12     1      119.230446      346.574518    ;  uncertainty theta = 0.003814, k = 0.241711
         4         3         5     1      116.772377      523.054841    ;  uncertainty theta = 0.003154, k = 0.065504
         4         3        31     1      121.400986      281.842446    ;  uncertainty theta = 0.001036, k = 0.033246
         5         3        31     1      122.778053      290.506390    ;  uncertainty theta = 0.001546, k = 0.112722
         5         6         7     1      103.999924      707.895695    ;  uncertainty theta = 0.005031, k = 0.134286
         5         9         8     1      108.842224      996.723721    ;  uncertainty theta = 0.004081, k = 0.105419
         5         9        33     1      115.986206      285.859753    ;  uncertainty theta = 0.007695, k = 0.071788
         6         2        30     1      121.157204      289.002254    ;  uncertainty theta = 0.003884, k = 0.077841
         6         5         9     1      105.266380      700.805188    ;  uncertainty theta = 0.002628, k = 0.047826
         6         7         8     1      112.631454      861.040654    ;  uncertainty theta = 0.001644, k = 0.091851
         6         7        10     1      127.225929      340.657059    ;  uncertainty theta = 0.004556, k = 0.143003
         7         8         9     1      109.338829      911.050678    ;  uncertainty theta = 0.003490, k = 0.133446
         7        10        14     1      111.408203      538.561740    ;  uncertainty theta = 0.002686, k = 0.063134
         7        10        34     1      107.195206      404.091717    ;  uncertainty theta = 0.002677, k = 0.094742
         7        10        35     1      107.195206      404.091717    ;  uncertainty theta = 0.002677, k = 0.094742
         8         7        10     1      121.565857      408.256054    ;  uncertainty theta = 0.004764, k = 0.110630
         8         9        33     1      108.270935      348.057521    ;  uncertainty theta = 0.007607, k = 0.026261
        10        14        15     1      121.045166      422.581127    ;  uncertainty theta = 0.002275, k = 0.038270
        10        14        19     1      121.045166      422.581127    ;  uncertainty theta = 0.002275, k = 0.038270
        11        12        13     1      124.081650      725.688739    ;  uncertainty theta = 0.000970, k = 0.116277
        11        26        27     1      106.110794      807.462586    ;  uncertainty theta = 0.001138, k = 0.063105
        11        26        45     1      109.352951      454.103273    ;  uncertainty theta = 0.000475, k = 0.058676
        11        26        46     1      109.352951      454.103273    ;  uncertainty theta = 0.000475, k = 0.058676
        11        29        28     1      106.110794      807.462586    ;  uncertainty theta = 0.001138, k = 0.063105
        11        29        51     1      109.352951      454.103337    ;  uncertainty theta = 0.000475, k = 0.058676
        11        29        52     1      109.352951      454.103337    ;  uncertainty theta = 0.000475, k = 0.058676
        12        11        26     1      117.807007      361.082948    ;  uncertainty theta = 0.001153, k = 0.111604
        12        11        29     1      117.807007      361.082948    ;  uncertainty theta = 0.001153, k = 0.111604
        14        10        34     1      107.837601      399.901237    ;  uncertainty theta = 0.002249, k = 0.057837
        14        10        35     1      107.837601      399.901237    ;  uncertainty theta = 0.002249, k = 0.057837
        14        15        16     1      121.318886      514.235568    ;  uncertainty theta = 0.001778, k = 0.059752
        14        15        36     1      119.166016      270.523857    ;  uncertainty theta = 0.002269, k = 0.008290
        14        19        18     1      121.318886      514.235568    ;  uncertainty theta = 0.001778, k = 0.059752
        14        19        39     1      119.166016      270.523857    ;  uncertainty theta = 0.002269, k = 0.008290
        15        14        19     1      118.819534      462.266433    ;  uncertainty theta = 0.001838, k = 0.080865
        15        16        17     1      121.217484      515.997661    ;  uncertainty theta = 0.001896, k = 0.077715
        15        16        37     1      119.997902      290.785989    ;  uncertainty theta = 0.002435, k = 0.029685
        16        15        36     1      119.867722      290.821262    ;  uncertainty theta = 0.002696, k = 0.045566
        16        17        18     1      118.904152      401.449329    ;  uncertainty theta = 0.000792, k = 0.077724
        16        17        20     1      121.709091      440.254499    ;  uncertainty theta = 0.000934, k = 0.108366
        17        16        37     1      119.095055      282.559209    ;  uncertainty theta = 0.001574, k = 0.076416
        17        18        19     1      121.217484      515.997661    ;  uncertainty theta = 0.001896, k = 0.077715
        17        18        38     1      119.095055      282.559209    ;  uncertainty theta = 0.001574, k = 0.076416
        17        20        21     1      127.697556      343.157780    ;  uncertainty theta = 0.004353, k = 0.177775
        17        20        24     1      126.731285      348.545089    ;  uncertainty theta = 0.003995, k = 0.207077
        18        17        20     1      121.709091      440.254499    ;  uncertainty theta = 0.000934, k = 0.108366
        18        19        39     1      119.867722      290.821262    ;  uncertainty theta = 0.002696, k = 0.045566
        19        18        38     1      119.997902      290.785989    ;  uncertainty theta = 0.002435, k = 0.029685
        20        21        22     1      107.786392      728.617782    ;  uncertainty theta = 0.002722, k = 0.171005
        20        21        40     1      129.337921      225.112173    ;  uncertainty theta = 0.003840, k = 0.127302
        20        24        23     1      112.792480      868.770035    ;  uncertainty theta = 0.004151, k = 0.098178
        20        24        41     1      126.058434      240.089592    ;  uncertainty theta = 0.003930, k = 0.061937
        21        20        24     1      104.376785      682.871562    ;  uncertainty theta = 0.005377, k = 0.161868
        21        22        23     1      109.875755      985.972854    ;  uncertainty theta = 0.001972, k = 0.104814
        21        22        25     1      122.678429      402.059474    ;  uncertainty theta = 0.001716, k = 0.122019
        22        21        40     1      118.090332      269.140033    ;  uncertainty theta = 0.002835, k = 0.151929
        22        23        24     1      106.284317      901.234341    ;  uncertainty theta = 0.001454, k = 0.058730
        22        25        42     1      108.689774      466.172430    ;  uncertainty theta = 0.001193, k = 0.023318
        22        25        43     1      108.689774      466.172430    ;  uncertainty theta = 0.001193, k = 0.023318
        22        25        44     1      108.689774      466.172430    ;  uncertainty theta = 0.001193, k = 0.023318
        23        22        25     1      116.723465      468.949495    ;  uncertainty theta = 0.002619, k = 0.085339
        23        24        41     1      118.687256      285.500605    ;  uncertainty theta = 0.004102, k = 0.050180
        26        11        29     1      115.298264      546.140516    ;  uncertainty theta = 0.004865, k = 0.148187
        26        27        28     1      104.724594      718.033033    ;  uncertainty theta = 0.002890, k = 0.122302
        26        27        47     1      109.348610      401.497817    ;  uncertainty theta = 0.001298, k = 0.040098
        26        27        48     1      109.348610      401.497817    ;  uncertainty theta = 0.001298, k = 0.040098
        27        26        45     1      110.571838      407.401869    ;  uncertainty theta = 0.001904, k = 0.049933
        27        26        46     1      110.571838      407.401869    ;  uncertainty theta = 0.001904, k = 0.049933
        27        28        29     1      104.724594      718.032969    ;  uncertainty theta = 0.002890, k = 0.122302
        27        28        49     1      110.004967      406.127568    ;  uncertainty theta = 0.001224, k = 0.050642
        27        28        50     1      110.004967      406.127568    ;  uncertainty theta = 0.001224, k = 0.050642
        28        27        47     1      110.004967      406.127568    ;  uncertainty theta = 0.001224, k = 0.050642
        28        27        48     1      110.004967      406.127568    ;  uncertainty theta = 0.001224, k = 0.050642
        28        29        51     1      110.571838      407.401869    ;  uncertainty theta = 0.001904, k = 0.049933
        28        29        52     1      110.571838      407.401869    ;  uncertainty theta = 0.001904, k = 0.049933
        29        28        49     1      109.348610      401.497817    ;  uncertainty theta = 0.001298, k = 0.040098
        29        28        50     1      109.348610      401.497817    ;  uncertainty theta = 0.001298, k = 0.040098
        34        10        35     1      104.257248      312.827994    ;  uncertainty theta = 0.003792, k = 0.040478
        42        25        43     1      107.724464      320.089311    ;  uncertainty theta = 0.001790, k = 0.014894
        42        25        44     1      107.724464      320.089311    ;  uncertainty theta = 0.001790, k = 0.014894
        43        25        44     1      107.724464      320.089311    ;  uncertainty theta = 0.001790, k = 0.014894
        45        26        46     1      105.084007      305.395099    ;  uncertainty theta = 0.002819, k = 0.068720
        47        27        48     1      105.522827      298.562837    ;  uncertainty theta = 0.001666, k = 0.038136
        49        28        50     1      105.522827      298.562837    ;  uncertainty theta = 0.001666, k = 0.038136
        51        29        52     1      105.084007      305.395131    ;  uncertainty theta = 0.002819, k = 0.068720

[ dihedrals ] ; propers for gromacs 4.5 or higher, use funct 9
;       ai        aj        ak        al funct           phase               k        pn
         1         2         6         5     9        0.000000        0.098297         1    ;  uncertainty k = 0.401100
         1         2         6         5     9      180.000000       13.140551         2    ;  uncertainty k = 0.147463
         1         2         6         5     9        0.000000       -1.332638         3    ;  uncertainty k = 0.343242
         1         2         6         5     9      180.000000        0.882233         4    ;  uncertainty k = 0.172742
         1         2         6         7     9        0.000000        0.358732         1    ;  uncertainty k = 0.222831
         1         2         6         7     9      180.000000        8.135646         2    ;  uncertainty k = 0.372855
         1         2         6         7     9        0.000000        0.669992         3    ;  uncertainty k = 0.420809
         1         2         6         7     9      180.000000        1.253918         4    ;  uncertainty k = 0.161976
         1         4         3         5     9        0.000000       -0.028315         1    ;  uncertainty k = 0.150136
         1         4         3         5     9      180.000000       16.554377         2    ;  uncertainty k = 0.266182
         1         4         3         5     9        0.000000       -0.066744         3    ;  uncertainty k = 0.310180
         1         4         3         5     9      180.000000        0.761753         4    ;  uncertainty k = 0.223272
         1         4         3        31     9        0.000000       -0.016701         1    ;  uncertainty k = 0.086833
         1         4         3        31     9      180.000000        9.609576         2    ;  uncertainty k = 0.514823
         1         4         3        31     9        0.000000        1.438139         3    ;  uncertainty k = 0.192330
         1         4         3        31     9      180.000000        1.870440         4    ;  uncertainty k = 0.292575
         1        12        11        26     9        0.000000        2.527432         1    ;  uncertainty k = 1.218590
         1        12        11        26     9      180.000000        9.702895         2    ;  uncertainty k = 0.281527
         1        12        11        26     9        0.000000        1.593125         3    ;  uncertainty k = 0.156156
         1        12        11        26     9      180.000000       -0.065451         4    ;  uncertainty k = 0.180099
         1        12        11        29     9        0.000000        2.527431         1    ;  uncertainty k = 1.218589
         1        12        11        29     9      180.000000        9.702893         2    ;  uncertainty k = 0.281526
         1        12        11        29     9        0.000000        1.593127         3    ;  uncertainty k = 0.156155
         1        12        11        29     9      180.000000       -0.065451         4    ;  uncertainty k = 0.180098
         2         1         4         3     9        0.000000       -0.128860         1    ;  uncertainty k = 0.222347
         2         1         4         3     9      180.000000        9.097968         2    ;  uncertainty k = 0.442577
         2         1         4         3     9        0.000000       -0.408636         3    ;  uncertainty k = 0.449286
         2         1         4         3     9      180.000000        1.159309         4    ;  uncertainty k = 0.230242
         2         1         4        32     9        0.000000        0.091991         1    ;  uncertainty k = 0.414376
         2         1         4        32     9      180.000000        6.524501         2    ;  uncertainty k = 0.389830
         2         1         4        32     9        0.000000        1.153225         3    ;  uncertainty k = 0.257391
         2         1         4        32     9      180.000000        1.577547         4    ;  uncertainty k = 0.185072
         2         1        12        11     9        0.000000        0.279254         1    ;  uncertainty k = 0.719601
         2         1        12        11     9      180.000000        5.217541         2    ;  uncertainty k = 0.172131
         2         1        12        11     9        0.000000       -0.009010         3    ;  uncertainty k = 0.130904
         2         1        12        11     9      180.000000        0.407002         4    ;  uncertainty k = 0.095338
         2         1        12        13     9        0.000000       -0.321008         1    ;  uncertainty k = 0.358574
         2         1        12        13     9      180.000000        4.983721         2    ;  uncertainty k = 0.421713
         2         1        12        13     9        0.000000        0.369156         3    ;  uncertainty k = 0.052114
         2         1        12        13     9      180.000000        0.252658         4    ;  uncertainty k = 0.034643
         2         6         5         3     9        0.000000       -0.332521         1    ;  uncertainty k = 0.444498
         2         6         5         3     9      180.000000        7.263124         2    ;  uncertainty k = 0.632581
         2         6         5         3     9        0.000000        0.287920         3    ;  uncertainty k = 0.210575
         2         6         5         3     9      180.000000        0.995567         4    ;  uncertainty k = 0.377771
         2         6         5         9     9        0.000000        0.044493         1    ;  uncertainty k = 0.663729
         2         6         5         9     9      180.000000        8.265910         2    ;  uncertainty k = 0.351008
         2         6         5         9     9        0.000000       -0.118367         3    ;  uncertainty k = 0.459127
         2         6         5         9     9      180.000000        1.239742         4    ;  uncertainty k = 0.346633
         2         6         7         8     9        0.000000        0.801662         1    ;  uncertainty k = 0.421505
         2         6         7         8     9      180.000000        6.285000         2    ;  uncertainty k = 0.283921
         2         6         7         8     9        0.000000        0.223702         3    ;  uncertainty k = 0.750298
         2         6         7         8     9      180.000000        0.839657         4    ;  uncertainty k = 0.121432
         2         6         7        10     9        0.000000       -0.750385         1    ;  uncertainty k = 0.950292
         2         6         7        10     9      180.000000        3.844998         2    ;  uncertainty k = 0.726481
         2         6         7        10     9        0.000000        1.340586         3    ;  uncertainty k = 0.282750
         2         6         7        10     9      180.000000        0.109913         4    ;  uncertainty k = 0.185154
         3         4         1        12     9        0.000000        0.172754         1    ;  uncertainty k = 0.629864
         3         4         1        12     9      180.000000        7.754201         2    ;  uncertainty k = 0.834219
         3         4         1        12     9        0.000000        1.495686         3    ;  uncertainty k = 0.331825
         3         4         1        12     9      180.000000        1.880603         4    ;  uncertainty k = 0.275920
         3         5         6         7     9        0.000000        0.069912         1    ;  uncertainty k = 0.428023
         3         5         6         7     9      180.000000        6.784385         2    ;  uncertainty k = 0.313340
         3         5         6         7     9        0.000000        0.202989         3    ;  uncertainty k = 0.455557
         3         5         6         7     9      180.000000        1.325980         4    ;  uncertainty k = 0.330451
         3         5         9         8     9        0.000000        0.904159         1    ;  uncertainty k = 1.117302
         3         5         9         8     9      180.000000        6.890496         2    ;  uncertainty k = 0.548909
         3         5         9         8     9        0.000000        0.584628         3    ;  uncertainty k = 0.645711
         3         5         9         8     9      180.000000        0.349060         4    ;  uncertainty k = 0.198096
         3         5         9        33     9        0.000000        1.687873         1    ;  uncertainty k = 1.038512
         3         5         9        33     9      180.000000        1.750707         2    ;  uncertainty k = 0.558295
         3         5         9        33     9        0.000000        1.348028         3    ;  uncertainty k = 0.539675
         3         5         9        33     9      180.000000        0.077204         4    ;  uncertainty k = 0.149616
         4         1         2         6     9        0.000000       -0.084753         1    ;  uncertainty k = 0.373551
         4         1         2         6     9      180.000000       12.727109         2    ;  uncertainty k = 0.474843
         4         1         2         6     9        0.000000       -0.055119         3    ;  uncertainty k = 0.401926
         4         1         2         6     9      180.000000        1.063695         4    ;  uncertainty k = 0.394405
         4         1         2        30     9        0.000000        0.189590         1    ;  uncertainty k = 0.281267
         4         1         2        30     9      180.000000        7.948732         2    ;  uncertainty k = 0.399661
         4         1         2        30     9        0.000000        1.314045         3    ;  uncertainty k = 0.299220
         4         1         2        30     9      180.000000        1.718436         4    ;  uncertainty k = 0.224198
         4         1        12        11     9        0.000000        0.551165         1    ;  uncertainty k = 0.516405
         4         1        12        11     9      180.000000        5.279230         2    ;  uncertainty k = 0.202797
         4         1        12        11     9        0.000000        0.150121         3    ;  uncertainty k = 0.131925
         4         1        12        11     9      180.000000        0.431893         4    ;  uncertainty k = 0.112039
         4         1        12        13     9        0.000000       -1.065147         1    ;  uncertainty k = 0.435329
         4         1        12        13     9      180.000000        4.753435         2    ;  uncertainty k = 0.225215
         4         1        12        13     9        0.000000        0.358331         3    ;  uncertainty k = 0.113827
         4         1        12        13     9      180.000000        0.302598         4    ;  uncertainty k = 0.046224
         4         3         5         6     9        0.000000       -0.034659         1    ;  uncertainty k = 0.360415
         4         3         5         6     9      180.000000       12.236188         2    ;  uncertainty k = 0.138045
         4         3         5         6     9        0.000000       -1.480534         3    ;  uncertainty k = 0.480612
         4         3         5         6     9      180.000000        0.783287         4    ;  uncertainty k = 0.234013
         4         3         5         9     9        0.000000        0.090951         1    ;  uncertainty k = 0.350065
         4         3         5         9     9      180.000000       10.209920         2    ;  uncertainty k = 0.689654
         4         3         5         9     9        0.000000        0.741006         3    ;  uncertainty k = 0.241850
         4         3         5         9     9      180.000000        1.152626         4    ;  uncertainty k = 0.275239
         5         3         4        32     9        0.000000       -0.003176         1    ;  uncertainty k = 0.256368
         5         3         4        32     9      180.000000       11.530554         2    ;  uncertainty k = 0.331819
         5         3         4        32     9        0.000000        1.441824         3    ;  uncertainty k = 0.228941
         5         3         4        32     9      180.000000        1.557421         4    ;  uncertainty k = 0.249588
         5         6         2        30     9        0.000000        0.018432         1    ;  uncertainty k = 0.444361
         5         6         2        30     9      180.000000        7.561871         2    ;  uncertainty k = 1.082207
         5         6         2        30     9        0.000000        1.288699         3    ;  uncertainty k = 0.304042
         5         6         2        30     9      180.000000        1.183352         4    ;  uncertainty k = 0.376508
         5         6         7         8     9        0.000000        0.527385         1    ;  uncertainty k = 0.579659
         5         6         7         8     9      180.000000       13.186188         2    ;  uncertainty k = 1.246213
         5         6         7         8     9        0.000000      -10.879303         3    ;  uncertainty k = 2.051353
         5         6         7         8     9      180.000000        2.110199         4    ;  uncertainty k = 0.614958
         5         6         7        10     9        0.000000        1.383814         1    ;  uncertainty k = 1.079236
         5         6         7        10     9      180.000000        8.405456         2    ;  uncertainty k = 0.579291
         5         6         7        10     9        0.000000        1.827182         3    ;  uncertainty k = 0.815916
         5         6         7        10     9      180.000000        0.291511         4    ;  uncertainty k = 0.318682
         5         9         8         7     9        0.000000       -0.732794         1    ;  uncertainty k = 0.954835
         5         9         8         7     9      180.000000       16.926646         2    ;  uncertainty k = 0.598355
         5         9         8         7     9        0.000000       -4.757043         3    ;  uncertainty k = 1.054235
         5         9         8         7     9      180.000000        1.043401         4    ;  uncertainty k = 0.539952
         6         2         1        12     9        0.000000       -0.055965         1    ;  uncertainty k = 0.373147
         6         2         1        12     9      180.000000       11.371710         2    ;  uncertainty k = 0.654844
         6         2         1        12     9        0.000000        1.564152         3    ;  uncertainty k = 0.214485
         6         2         1        12     9      180.000000        1.777423         4    ;  uncertainty k = 0.318265
         6         5         3        31     9        0.000000       -0.077164         1    ;  uncertainty k = 0.452071
         6         5         3        31     9      180.000000        6.577347         2    ;  uncertainty k = 1.128287
         6         5         3        31     9        0.000000        1.283072         3    ;  uncertainty k = 0.174334
         6         5         3        31     9      180.000000        1.084209         4    ;  uncertainty k = 0.497588
         6         5         9         8     9        0.000000        0.180691         1    ;  uncertainty k = 0.518187
         6         5         9         8     9      180.000000       17.346453         2    ;  uncertainty k = 1.042874
         6         5         9         8     9        0.000000       -8.651906         3    ;  uncertainty k = 1.677288
         6         5         9         8     9      180.000000        0.783243         4    ;  uncertainty k = 0.545704
         6         5         9        33     9        0.000000        4.171678         1    ;  uncertainty k = 2.145703
         6         5         9        33     9      180.000000        6.072190         2    ;  uncertainty k = 1.354860
         6         5         9        33     9        0.000000        1.445945         3    ;  uncertainty k = 0.312869
         6         5         9        33     9      180.000000        0.001093         4    ;  uncertainty k = 0.144361
         6         7         8         9     9        0.000000       -0.388680         1    ;  uncertainty k = 0.612567
         6         7         8         9     9      180.000000       24.976735         2    ;  uncertainty k = 0.245991
         6         7         8         9     9        0.000000       -4.373800         3    ;  uncertainty k = 0.967557
         6         7         8         9     9      180.000000        1.987335         4    ;  uncertainty k = 0.346378
         6         7        10        14     9        0.000000       -0.273468         1    ;  uncertainty k = 0.580513
         6         7        10        14     9      180.000000        0.983843         2    ;  uncertainty k = 0.495638
         6         7        10        14     9        0.000000        1.005169         3    ;  uncertainty k = 0.170968
         6         7        10        14     9      180.000000        0.178678         4    ;  uncertainty k = 0.108722
         6         7        10        34     9        0.000000       -1.173507         1    ;  uncertainty k = 0.294117
         6         7        10        34     9      180.000000        1.771643         2    ;  uncertainty k = 0.488196
         6         7        10        34     9        0.000000        0.841245         3    ;  uncertainty k = 0.169159
         6         7        10        34     9      180.000000        0.104706         4    ;  uncertainty k = 0.071701
         6         7        10        35     9        0.000000       -1.173507         1    ;  uncertainty k = 0.294117
         6         7        10        35     9      180.000000        1.771643         2    ;  uncertainty k = 0.488196
         6         7        10        35     9        0.000000        0.841245         3    ;  uncertainty k = 0.169159
         6         7        10        35     9      180.000000        0.104706         4    ;  uncertainty k = 0.071701
         7         6         2        30     9        0.000000       -0.076618         1    ;  uncertainty k = 0.359844
         7         6         2        30     9      180.000000        5.485785         2    ;  uncertainty k = 0.762992
         7         6         2        30     9        0.000000        1.146760         3    ;  uncertainty k = 0.212664
         7         6         2        30     9      180.000000        0.666948         4    ;  uncertainty k = 0.308710
         7         6         5         9     9        0.000000       -0.343279         1    ;  uncertainty k = 0.327945
         7         6         5         9     9      180.000000       12.202494         2    ;  uncertainty k = 0.672284
         7         6         5         9     9        0.000000       -3.638775         3    ;  uncertainty k = 1.598761
         7         6         5         9     9      180.000000        1.624774         4    ;  uncertainty k = 0.576750
         7         8         9        33     9        0.000000        4.144135         1    ;  uncertainty k = 2.338578
         7         8         9        33     9      180.000000       12.929218         2    ;  uncertainty k = 0.107569
         7         8         9        33     9        0.000000        1.684855         3    ;  uncertainty k = 1.042986
         7         8         9        33     9      180.000000       -0.435064         4    ;  uncertainty k = 0.243227
         7        10        14        15     9        0.000000        0.615450         1    ;  uncertainty k = 0.167630
         7        10        14        15     9      180.000000        1.853983         2    ;  uncertainty k = 0.188927
         7        10        14        15     9        0.000000        0.526773         3    ;  uncertainty k = 0.173391
         7        10        14        15     9      180.000000        0.244261         4    ;  uncertainty k = 0.069919
         7        10        14        19     9        0.000000        0.615450         1    ;  uncertainty k = 0.167630
         7        10        14        19     9      180.000000        1.853983         2    ;  uncertainty k = 0.188927
         7        10        14        19     9        0.000000        0.526773         3    ;  uncertainty k = 0.173391
         7        10        14        19     9      180.000000        0.244261         4    ;  uncertainty k = 0.069919
         8         7        10        14     9        0.000000        1.031421         1    ;  uncertainty k = 0.400690
         8         7        10        14     9      180.000000        1.557547         2    ;  uncertainty k = 0.289374
         8         7        10        14     9        0.000000        0.020179         3    ;  uncertainty k = 0.160875
         8         7        10        14     9      180.000000        0.136006         4    ;  uncertainty k = 0.098308
         8         7        10        34     9        0.000000        1.780982         1    ;  uncertainty k = 0.113031
         8         7        10        34     9      180.000000        2.205549         2    ;  uncertainty k = 0.265227
         8         7        10        34     9        0.000000        0.158854         3    ;  uncertainty k = 0.096052
         8         7        10        34     9      180.000000        0.111225         4    ;  uncertainty k = 0.047919
         8         7        10        35     9        0.000000        1.780982         1    ;  uncertainty k = 0.113031
         8         7        10        35     9      180.000000        2.205549         2    ;  uncertainty k = 0.265227
         8         7        10        35     9        0.000000        0.158854         3    ;  uncertainty k = 0.096052
         8         7        10        35     9      180.000000        0.111225         4    ;  uncertainty k = 0.047919
         9         5         3        31     9        0.000000        0.443772         1    ;  uncertainty k = 0.411918
         9         5         3        31     9      180.000000        5.637188         2    ;  uncertainty k = 0.838744
         9         5         3        31     9        0.000000        1.135669         3    ;  uncertainty k = 0.131512
         9         5         3        31     9      180.000000        0.743146         4    ;  uncertainty k = 0.337267
         9         8         7        10     9        0.000000       -0.553410         1    ;  uncertainty k = 0.837657
         9         8         7        10     9      180.000000       25.077413         2    ;  uncertainty k = 0.175016
         9         8         7        10     9        0.000000        2.419201         3    ;  uncertainty k = 0.621653
         9         8         7        10     9      180.000000        1.110046         4    ;  uncertainty k = 0.279838
        10        14        15        16     9        0.000000        0.169204         1    ;  uncertainty k = 0.242807
        10        14        15        16     9      180.000000        8.593729         2    ;  uncertainty k = 0.401443
        10        14        15        16     9        0.000000        1.459163         3    ;  uncertainty k = 0.363057
        10        14        15        16     9      180.000000        1.890470         4    ;  uncertainty k = 0.111180
        10        14        15        36     9        0.000000       -0.145242         1    ;  uncertainty k = 0.181744
        10        14        15        36     9      180.000000        7.615666         2    ;  uncertainty k = 0.278473
        10        14        15        36     9        0.000000        0.580734         3    ;  uncertainty k = 0.342497
        10        14        15        36     9      180.000000        0.989521         4    ;  uncertainty k = 0.234579
        10        14        19        18     9        0.000000        0.169204         1    ;  uncertainty k = 0.242807
        10        14        19        18     9      180.000000        8.593729         2    ;  uncertainty k = 0.401443
        10        14        19        18     9        0.000000        1.459163         3    ;  uncertainty k = 0.363057
        10        14        19        18     9      180.000000        1.890470         4    ;  uncertainty k = 0.111180
        10        14        19        39     9        0.000000       -0.145242         1    ;  uncertainty k = 0.181744
        10        14        19        39     9      180.000000        7.615666         2    ;  uncertainty k = 0.278473
        10        14        19        39     9        0.000000        0.580734         3    ;  uncertainty k = 0.342497
        10        14        19        39     9      180.000000        0.989521         4    ;  uncertainty k = 0.234579
        11        26        27        28     9        0.000000       -1.557537         1    ;  uncertainty k = 0.983300
        11        26        27        28     9      180.000000        2.574697         2    ;  uncertainty k = 0.826987
        11        26        27        28     9        0.000000        0.779479         3    ;  uncertainty k = 0.328489
        11        26        27        28     9      180.000000       -2.144076         4    ;  uncertainty k = 0.261384
        11        26        27        47     9        0.000000       -1.339927         1    ;  uncertainty k = 0.592452
        11        26        27        47     9      180.000000       -0.135708         2    ;  uncertainty k = 0.300516
        11        26        27        47     9        0.000000        1.219848         3    ;  uncertainty k = 0.161925
        11        26        27        47     9      180.000000        0.087671         4    ;  uncertainty k = 0.104113
        11        26        27        48     9        0.000000       -1.339927         1    ;  uncertainty k = 0.592452
        11        26        27        48     9      180.000000       -0.135708         2    ;  uncertainty k = 0.300516
        11        26        27        48     9        0.000000        1.219848         3    ;  uncertainty k = 0.161925
        11        26        27        48     9      180.000000        0.087671         4    ;  uncertainty k = 0.104113
        11        29        28        27     9        0.000000       -1.557539         1    ;  uncertainty k = 0.983299
        11        29        28        27     9      180.000000        2.574697         2    ;  uncertainty k = 0.826987
        11        29        28        27     9        0.000000        0.779479         3    ;  uncertainty k = 0.328489
        11        29        28        27     9      180.000000       -2.144076         4    ;  uncertainty k = 0.261384
        11        29        28        49     9        0.000000       -1.339928         1    ;  uncertainty k = 0.592453
        11        29        28        49     9      180.000000       -0.135709         2    ;  uncertainty k = 0.300517
        11        29        28        49     9        0.000000        1.219848         3    ;  uncertainty k = 0.161924
        11        29        28        49     9      180.000000        0.087672         4    ;  uncertainty k = 0.104114
        11        29        28        50     9        0.000000       -1.339928         1    ;  uncertainty k = 0.592453
        11        29        28        50     9      180.000000       -0.135709         2    ;  uncertainty k = 0.300517
        11        29        28        50     9        0.000000        1.219848         3    ;  uncertainty k = 0.161924
        11        29        28        50     9      180.000000        0.087672         4    ;  uncertainty k = 0.104114
        12         1         2        30     9        0.000000       -0.113623         1    ;  uncertainty k = 0.287329
        12         1         2        30     9      180.000000        8.470366         2    ;  uncertainty k = 0.311654
        12         1         2        30     9        0.000000        1.024842         3    ;  uncertainty k = 0.221249
        12         1         2        30     9      180.000000        1.197113         4    ;  uncertainty k = 0.267102
        12         1         4        32     9        0.000000       -0.082446         1    ;  uncertainty k = 0.240315
        12         1         4        32     9      180.000000        7.628630         2    ;  uncertainty k = 0.280136
        12         1         4        32     9        0.000000        0.949269         3    ;  uncertainty k = 0.297442
        12         1         4        32     9      180.000000        1.035694         4    ;  uncertainty k = 0.294588
        12        11        26        27     9        0.000000       -0.362568         1    ;  uncertainty k = 0.514831
        12        11        26        27     9      180.000000       -0.173370         2    ;  uncertainty k = 0.446451
        12        11        26        27     9        0.000000        0.235001         3    ;  uncertainty k = 0.212701
        12        11        26        27     9      180.000000        0.607679         4    ;  uncertainty k = 0.235304
        12        11        26        45     9        0.000000        1.146318         1    ;  uncertainty k = 0.534482
        12        11        26        45     9      180.000000        0.155053         2    ;  uncertainty k = 0.070333
        12        11        26        45     9        0.000000       -0.004864         3    ;  uncertainty k = 0.074718
        12        11        26        45     9      180.000000        0.240816         4    ;  uncertainty k = 0.073104
        12        11        26        46     9        0.000000        1.146318         1    ;  uncertainty k = 0.534482
        12        11        26        46     9      180.000000        0.155053         2    ;  uncertainty k = 0.070333
        12        11        26        46     9        0.000000       -0.004864         3    ;  uncertainty k = 0.074718
        12        11        26        46     9      180.000000        0.240816         4    ;  uncertainty k = 0.073104
        12        11        29        28     9        0.000000       -0.362567         1    ;  uncertainty k = 0.514831
        12        11        29        28     9      180.000000       -0.173369         2    ;  uncertainty k = 0.446451
        12        11        29        28     9        0.000000        0.235001         3    ;  uncertainty k = 0.212701
        12        11        29        28     9      180.000000        0.607679         4    ;  uncertainty k = 0.235304
        12        11        29        51     9        0.000000        1.146319         1    ;  uncertainty k = 0.534481
        12        11        29        51     9      180.000000        0.155053         2    ;  uncertainty k = 0.070332
        12        11        29        51     9        0.000000       -0.004864         3    ;  uncertainty k = 0.074718
        12        11        29        51     9      180.000000        0.240816         4    ;  uncertainty k = 0.073105
        12        11        29        52     9        0.000000        1.146319         1    ;  uncertainty k = 0.534481
        12        11        29        52     9      180.000000        0.155053         2    ;  uncertainty k = 0.070332
        12        11        29        52     9        0.000000       -0.004864         3    ;  uncertainty k = 0.074718
        12        11        29        52     9      180.000000        0.240816         4    ;  uncertainty k = 0.073105
        13        12        11        26     9        0.000000        5.166320         1    ;  uncertainty k = 0.376979
        13        12        11        26     9      180.000000       17.152662         2    ;  uncertainty k = 0.095956
        13        12        11        26     9        0.000000        0.232415         3    ;  uncertainty k = 0.201686
        13        12        11        26     9      180.000000       -0.750265         4    ;  uncertainty k = 0.243032
        13        12        11        29     9        0.000000        5.166321         1    ;  uncertainty k = 0.376979
        13        12        11        29     9      180.000000       17.152664         2    ;  uncertainty k = 0.095956
        13        12        11        29     9        0.000000        0.232416         3    ;  uncertainty k = 0.201684
        13        12        11        29     9      180.000000       -0.750265         4    ;  uncertainty k = 0.243032
        14        15        16        17     9        0.000000       -0.087057         1    ;  uncertainty k = 0.154901
        14        15        16        17     9      180.000000       13.600436         2    ;  uncertainty k = 0.230971
        14        15        16        17     9        0.000000       -0.751784         3    ;  uncertainty k = 0.436421
        14        15        16        17     9      180.000000        0.777514         4    ;  uncertainty k = 0.245178
        14        15        16        37     9        0.000000        0.010829         1    ;  uncertainty k = 0.163132
        14        15        16        37     9      180.000000        7.805433         2    ;  uncertainty k = 0.422071
        14        15        16        37     9        0.000000        1.391790         3    ;  uncertainty k = 0.234314
        14        15        16        37     9      180.000000        1.880931         4    ;  uncertainty k = 0.189420
        14        19        18        17     9        0.000000       -0.087057         1    ;  uncertainty k = 0.154901
        14        19        18        17     9      180.000000       13.600436         2    ;  uncertainty k = 0.230971
        14        19        18        17     9        0.000000       -0.751784         3    ;  uncertainty k = 0.436421
        14        19        18        17     9      180.000000        0.777514         4    ;  uncertainty k = 0.245178
        14        19        18        38     9        0.000000        0.010829         1    ;  uncertainty k = 0.163132
        14        19        18        38     9      180.000000        7.805433         2    ;  uncertainty k = 0.422071
        14        19        18        38     9        0.000000        1.391790         3    ;  uncertainty k = 0.234314
        14        19        18        38     9      180.000000        1.880931         4    ;  uncertainty k = 0.189420
        15        14        10        34     9        0.000000       -0.300138         1    ;  uncertainty k = 0.153189
        15        14        10        34     9      180.000000        1.928373         2    ;  uncertainty k = 0.130920
        15        14        10        34     9        0.000000        0.360376         3    ;  uncertainty k = 0.118491
        15        14        10        34     9      180.000000        0.117080         4    ;  uncertainty k = 0.032968
        15        14        10        35     9        0.000000       -0.300138         1    ;  uncertainty k = 0.153189
        15        14        10        35     9      180.000000        1.928373         2    ;  uncertainty k = 0.130920
        15        14        10        35     9        0.000000        0.360376         3    ;  uncertainty k = 0.118491
        15        14        10        35     9      180.000000        0.117080         4    ;  uncertainty k = 0.032968
        15        14        19        18     9        0.000000       -0.141019         1    ;  uncertainty k = 0.190132
        15        14        19        18     9      180.000000       11.565169         2    ;  uncertainty k = 0.450751
        15        14        19        18     9        0.000000       -0.482803         3    ;  uncertainty k = 0.323947
        15        14        19        18     9      180.000000        0.820385         4    ;  uncertainty k = 0.428180
        15        14        19        39     9        0.000000        0.161510         1    ;  uncertainty k = 0.189285
        15        14        19        39     9      180.000000        7.143530         2    ;  uncertainty k = 0.548274
        15        14        19        39     9        0.000000        1.383620         3    ;  uncertainty k = 0.306740
        15        14        19        39     9      180.000000        1.646182         4    ;  uncertainty k = 0.144812
        15        16        17        18     9        0.000000        0.099530         1    ;  uncertainty k = 0.198850
        15        16        17        18     9      180.000000       10.864272         2    ;  uncertainty k = 0.250101
        15        16        17        18     9        0.000000       -0.460426         3    ;  uncertainty k = 0.291547
        15        16        17        18     9      180.000000        0.910602         4    ;  uncertainty k = 0.279798
        15        16        17        20     9        0.000000       -0.069350         1    ;  uncertainty k = 0.292775
        15        16        17        20     9      180.000000        8.942093         2    ;  uncertainty k = 0.563576
        15        16        17        20     9        0.000000        1.225126         3    ;  uncertainty k = 0.296630
        15        16        17        20     9      180.000000        1.608135         4    ;  uncertainty k = 0.239057
        16        15        14        19     9        0.000000       -0.141019         1    ;  uncertainty k = 0.190132
        16        15        14        19     9      180.000000       11.565169         2    ;  uncertainty k = 0.450751
        16        15        14        19     9        0.000000       -0.482803         3    ;  uncertainty k = 0.323947
        16        15        14        19     9      180.000000        0.820385         4    ;  uncertainty k = 0.428180
        16        17        18        19     9        0.000000        0.099530         1    ;  uncertainty k = 0.198850
        16        17        18        19     9      180.000000       10.864272         2    ;  uncertainty k = 0.250101
        16        17        18        19     9        0.000000       -0.460426         3    ;  uncertainty k = 0.291547
        16        17        18        19     9      180.000000        0.910602         4    ;  uncertainty k = 0.279798
        16        17        18        38     9        0.000000        0.071629         1    ;  uncertainty k = 0.210521
        16        17        18        38     9      180.000000        6.731320         2    ;  uncertainty k = 0.652358
        16        17        18        38     9        0.000000        1.402558         3    ;  uncertainty k = 0.275743
        16        17        18        38     9      180.000000        1.629461         4    ;  uncertainty k = 0.263941
        16        17        20        21     9        0.000000        0.364742         1    ;  uncertainty k = 0.617618
        16        17        20        21     9      180.000000        2.957626         2    ;  uncertainty k = 0.176252
        16        17        20        21     9        0.000000        0.337574         3    ;  uncertainty k = 0.277333
        16        17        20        21     9      180.000000       -0.075996         4    ;  uncertainty k = 0.052358
        16        17        20        24     9        0.000000        0.212085         1    ;  uncertainty k = 0.583246
        16        17        20        24     9      180.000000        2.756721         2    ;  uncertainty k = 0.102989
        16        17        20        24     9        0.000000        0.399155         3    ;  uncertainty k = 0.207054
        16        17        20        24     9      180.000000       -0.145894         4    ;  uncertainty k = 0.054997
        17        16        15        36     9        0.000000        0.051679         1    ;  uncertainty k = 0.047053
        17        16        15        36     9      180.000000        8.110356         2    ;  uncertainty k = 0.308213
        17        16        15        36     9        0.000000        1.348836         3    ;  uncertainty k = 0.262064
        17        16        15        36     9      180.000000        1.847919         4    ;  uncertainty k = 0.146536
        17        18        19        39     9        0.000000        0.051679         1    ;  uncertainty k = 0.047053
        17        18        19        39     9      180.000000        8.110356         2    ;  uncertainty k = 0.308213
        17        18        19        39     9        0.000000        1.348836         3    ;  uncertainty k = 0.262064
        17        18        19        39     9      180.000000        1.847919         4    ;  uncertainty k = 0.146536
        17        20        21        22     9        0.000000        0.730829         1    ;  uncertainty k = 0.745969
        17        20        21        22     9      180.000000       14.124868         2    ;  uncertainty k = 0.381349
        17        20        21        22     9        0.000000        1.366411         3    ;  uncertainty k = 0.224812
        17        20        21        22     9      180.000000        0.828718         4    ;  uncertainty k = 0.243932
        17        20        21        40     9        0.000000        0.487086         1    ;  uncertainty k = 0.482656
        17        20        21        40     9      180.000000        6.408018         2    ;  uncertainty k = 0.855931
        17        20        21        40     9        0.000000        1.305884         3    ;  uncertainty k = 0.462346
        17        20        21        40     9      180.000000        0.400447         4    ;  uncertainty k = 0.122561
        17        20        24        23     9        0.000000        0.856900         1    ;  uncertainty k = 1.194888
        17        20        24        23     9      180.000000       12.441670         2    ;  uncertainty k = 0.564932
        17        20        24        23     9        0.000000        1.830358         3    ;  uncertainty k = 0.514365
        17        20        24        23     9      180.000000        0.550073         4    ;  uncertainty k = 0.201764
        17        20        24        41     9        0.000000        0.304653         1    ;  uncertainty k = 0.808439
        17        20        24        41     9      180.000000        5.213596         2    ;  uncertainty k = 0.592555
        17        20        24        41     9        0.000000        1.354869         3    ;  uncertainty k = 0.262334
        17        20        24        41     9      180.000000        0.295532         4    ;  uncertainty k = 0.033191
        18        17        16        37     9        0.000000        0.071629         1    ;  uncertainty k = 0.210521
        18        17        16        37     9      180.000000        6.731320         2    ;  uncertainty k = 0.652358
        18        17        16        37     9        0.000000        1.402558         3    ;  uncertainty k = 0.275743
        18        17        16        37     9      180.000000        1.629461         4    ;  uncertainty k = 0.263941
        18        17        20        21     9        0.000000        0.364742         1    ;  uncertainty k = 0.617618
        18        17        20        21     9      180.000000        2.957626         2    ;  uncertainty k = 0.176252
        18        17        20        21     9        0.000000        0.337574         3    ;  uncertainty k = 0.277333
        18        17        20        21     9      180.000000       -0.075996         4    ;  uncertainty k = 0.052358
        18        17        20        24     9        0.000000        0.212085         1    ;  uncertainty k = 0.583246
        18        17        20        24     9      180.000000        2.756721         2    ;  uncertainty k = 0.102989
        18        17        20        24     9        0.000000        0.399155         3    ;  uncertainty k = 0.207054
        18        17        20        24     9      180.000000       -0.145894         4    ;  uncertainty k = 0.054997
        19        14        10        34     9        0.000000       -0.300138         1    ;  uncertainty k = 0.153189
        19        14        10        34     9      180.000000        1.928373         2    ;  uncertainty k = 0.130920
        19        14        10        34     9        0.000000        0.360376         3    ;  uncertainty k = 0.118491
        19        14        10        34     9      180.000000        0.117080         4    ;  uncertainty k = 0.032968
        19        14        10        35     9        0.000000       -0.300138         1    ;  uncertainty k = 0.153189
        19        14        10        35     9      180.000000        1.928373         2    ;  uncertainty k = 0.130920
        19        14        10        35     9        0.000000        0.360376         3    ;  uncertainty k = 0.118491
        19        14        10        35     9      180.000000        0.117080         4    ;  uncertainty k = 0.032968
        19        14        15        36     9        0.000000        0.161510         1    ;  uncertainty k = 0.189285
        19        14        15        36     9      180.000000        7.143530         2    ;  uncertainty k = 0.548274
        19        14        15        36     9        0.000000        1.383620         3    ;  uncertainty k = 0.306740
        19        14        15        36     9      180.000000        1.646182         4    ;  uncertainty k = 0.144812
        19        18        17        20     9        0.000000       -0.069350         1    ;  uncertainty k = 0.292775
        19        18        17        20     9      180.000000        8.942093         2    ;  uncertainty k = 0.563576
        19        18        17        20     9        0.000000        1.225126         3    ;  uncertainty k = 0.296630
        19        18        17        20     9      180.000000        1.608135         4    ;  uncertainty k = 0.239057
        20        17        16        37     9        0.000000       -0.274120         1    ;  uncertainty k = 0.256075
        20        17        16        37     9      180.000000        6.927144         2    ;  uncertainty k = 0.360004
        20        17        16        37     9        0.000000        0.845886         3    ;  uncertainty k = 0.114326
        20        17        16        37     9      180.000000        1.148769         4    ;  uncertainty k = 0.209269
        20        17        18        38     9        0.000000       -0.274120         1    ;  uncertainty k = 0.256075
        20        17        18        38     9      180.000000        6.927144         2    ;  uncertainty k = 0.360004
        20        17        18        38     9        0.000000        0.845886         3    ;  uncertainty k = 0.114326
        20        17        18        38     9      180.000000        1.148769         4    ;  uncertainty k = 0.209269
        20        21        22        23     9        0.000000       -0.316526         1    ;  uncertainty k = 1.047711
        20        21        22        23     9      180.000000       17.284046         2    ;  uncertainty k = 0.688330
        20        21        22        23     9        0.000000       -9.057288         3    ;  uncertainty k = 0.901701
        20        21        22        23     9      180.000000        1.215837         4    ;  uncertainty k = 0.532722
        20        21        22        25     9        0.000000        1.392889         1    ;  uncertainty k = 1.290774
        20        21        22        25     9      180.000000        9.638848         2    ;  uncertainty k = 0.368010
        20        21        22        25     9        0.000000        1.944195         3    ;  uncertainty k = 0.374373
        20        21        22        25     9      180.000000       -0.106447         4    ;  uncertainty k = 0.068874
        20        24        23        22     9        0.000000       -0.058010         1    ;  uncertainty k = 0.625462
        20        24        23        22     9      180.000000       24.452638         2    ;  uncertainty k = 0.460560
        20        24        23        22     9        0.000000       -7.646340         3    ;  uncertainty k = 0.486543
        20        24        23        22     9      180.000000        2.227719         4    ;  uncertainty k = 0.719303
        21        20        24        23     9        0.000000       -0.355455         1    ;  uncertainty k = 0.508595
        21        20        24        23     9      180.000000       15.046675         2    ;  uncertainty k = 1.070272
        21        20        24        23     9        0.000000       -9.005960         3    ;  uncertainty k = 0.840801
        21        20        24        23     9      180.000000        1.826438         4    ;  uncertainty k = 0.522282
        21        20        24        41     9        0.000000       -0.031464         1    ;  uncertainty k = 0.354506
        21        20        24        41     9      180.000000        8.072054         2    ;  uncertainty k = 0.597935
        21        20        24        41     9        0.000000        1.249978         3    ;  uncertainty k = 0.335798
        21        20        24        41     9      180.000000        0.512738         4    ;  uncertainty k = 0.162738
        21        22        23        24     9        0.000000       -0.225287         1    ;  uncertainty k = 0.828367
        21        22        23        24     9      180.000000       16.689018         2    ;  uncertainty k = 0.422253
        21        22        23        24     9        0.000000       -7.488213         3    ;  uncertainty k = 1.300321
        21        22        23        24     9      180.000000        1.602126         4    ;  uncertainty k = 0.425607
        21        22        25        42     9        0.000000       -0.009533         1    ;  uncertainty k = 0.351891
        21        22        25        42     9      180.000000       -1.118668         2    ;  uncertainty k = 0.175719
        21        22        25        42     9        0.000000        0.788902         3    ;  uncertainty k = 0.017444
        21        22        25        42     9      180.000000        0.208637         4    ;  uncertainty k = 0.050244
        21        22        25        43     9        0.000000       -0.009533         1    ;  uncertainty k = 0.351891
        21        22        25        43     9      180.000000       -1.118668         2    ;  uncertainty k = 0.175719
        21        22        25        43     9        0.000000        0.788902         3    ;  uncertainty k = 0.017444
        21        22        25        43     9      180.000000        0.208637         4    ;  uncertainty k = 0.050244
        21        22        25        44     9        0.000000       -0.009533         1    ;  uncertainty k = 0.351891
        21        22        25        44     9      180.000000       -1.118668         2    ;  uncertainty k = 0.175719
        21        22        25        44     9        0.000000        0.788902         3    ;  uncertainty k = 0.017444
        21        22        25        44     9      180.000000        0.208637         4    ;  uncertainty k = 0.050244
        22        21        20        24     9        0.000000        0.138355         1    ;  uncertainty k = 0.250165
        22        21        20        24     9      180.000000       18.966874         2    ;  uncertainty k = 0.230930
        22        21        20        24     9        0.000000       -9.822058         3    ;  uncertainty k = 0.542344
        22        21        20        24     9      180.000000        1.616629         4    ;  uncertainty k = 0.658377
        22        23        24        41     9        0.000000        0.455448         1    ;  uncertainty k = 0.742365
        22        23        24        41     9      180.000000       22.168886         2    ;  uncertainty k = 0.393002
        22        23        24        41     9        0.000000        1.308522         3    ;  uncertainty k = 0.565188
        22        23        24        41     9      180.000000        1.249378         4    ;  uncertainty k = 0.583038
        23        22        21        40     9        0.000000        0.954942         1    ;  uncertainty k = 0.636273
        23        22        21        40     9      180.000000       11.894603         2    ;  uncertainty k = 0.460933
        23        22        21        40     9        0.000000        1.730548         3    ;  uncertainty k = 0.518861
        23        22        21        40     9      180.000000        0.048447         4    ;  uncertainty k = 0.167333
        23        22        25        42     9        0.000000        1.398760         1    ;  uncertainty k = 0.579544
        23        22        25        42     9      180.000000       -1.134020         2    ;  uncertainty k = 0.131941
        23        22        25        42     9        0.000000        0.742560         3    ;  uncertainty k = 0.044341
        23        22        25        42     9      180.000000        0.251257         4    ;  uncertainty k = 0.037756
        23        22        25        43     9        0.000000        1.398760         1    ;  uncertainty k = 0.579544
        23        22        25        43     9      180.000000       -1.134020         2    ;  uncertainty k = 0.131941
        23        22        25        43     9        0.000000        0.742560         3    ;  uncertainty k = 0.044341
        23        22        25        43     9      180.000000        0.251257         4    ;  uncertainty k = 0.037756
        23        22        25        44     9        0.000000        1.398760         1    ;  uncertainty k = 0.579544
        23        22        25        44     9      180.000000       -1.134020         2    ;  uncertainty k = 0.131941
        23        22        25        44     9        0.000000        0.742560         3    ;  uncertainty k = 0.044341
        23        22        25        44     9      180.000000        0.251257         4    ;  uncertainty k = 0.037756
        24        20        21        40     9        0.000000        0.015435         1    ;  uncertainty k = 0.258046
        24        20        21        40     9      180.000000       10.338561         2    ;  uncertainty k = 0.277931
        24        20        21        40     9        0.000000        1.639009         3    ;  uncertainty k = 0.357902
        24        20        21        40     9      180.000000        0.594000         4    ;  uncertainty k = 0.198130
        24        23        22        25     9        0.000000        0.933315         1    ;  uncertainty k = 1.275516
        24        23        22        25     9      180.000000       13.272692         2    ;  uncertainty k = 0.326665
        24        23        22        25     9        0.000000        1.823279         3    ;  uncertainty k = 0.443014
        24        23        22        25     9      180.000000       -0.164134         4    ;  uncertainty k = 0.298893
        25        22        21        40     9        0.000000       -0.476540         1    ;  uncertainty k = 0.254767
        25        22        21        40     9      180.000000        3.142291         2    ;  uncertainty k = 0.652804
        25        22        21        40     9        0.000000        1.097292         3    ;  uncertainty k = 0.480723
        25        22        21        40     9      180.000000        0.022420         4    ;  uncertainty k = 0.193415
        26        11        29        28     9        0.000000       -0.913425         1    ;  uncertainty k = 0.822532
        26        11        29        28     9      180.000000        1.239863         2    ;  uncertainty k = 0.771383
        26        11        29        28     9        0.000000        0.739535         3    ;  uncertainty k = 0.125527
        26        11        29        28     9      180.000000        0.140166         4    ;  uncertainty k = 0.236503
        26        11        29        51     9        0.000000       -2.225146         1    ;  uncertainty k = 0.418104
        26        11        29        51     9      180.000000        1.168678         2    ;  uncertainty k = 0.472049
        26        11        29        51     9        0.000000        1.336317         3    ;  uncertainty k = 0.151411
        26        11        29        51     9      180.000000        0.343405         4    ;  uncertainty k = 0.109038
        26        11        29        52     9        0.000000       -2.225146         1    ;  uncertainty k = 0.418104
        26        11        29        52     9      180.000000        1.168678         2    ;  uncertainty k = 0.472049
        26        11        29        52     9        0.000000        1.336317         3    ;  uncertainty k = 0.151411
        26        11        29        52     9      180.000000        0.343405         4    ;  uncertainty k = 0.109038
        26        27        28        29     9        0.000000       -1.646193         1    ;  uncertainty k = 1.957919
        26        27        28        29     9      180.000000       11.305329         2    ;  uncertainty k = 0.374812
        26        27        28        29     9        0.000000        0.056904         3    ;  uncertainty k = 0.254941
        26        27        28        29     9      180.000000       -2.946688         4    ;  uncertainty k = 0.208101
        26        27        28        49     9        0.000000       -1.433713         1    ;  uncertainty k = 0.288345
        26        27        28        49     9      180.000000       -0.370923         2    ;  uncertainty k = 0.182559
        26        27        28        49     9        0.000000        0.632143         3    ;  uncertainty k = 0.179390
        26        27        28        49     9      180.000000        0.176807         4    ;  uncertainty k = 0.070913
        26        27        28        50     9        0.000000       -1.433713         1    ;  uncertainty k = 0.288345
        26        27        28        50     9      180.000000       -0.370923         2    ;  uncertainty k = 0.182559
        26        27        28        50     9        0.000000        0.632143         3    ;  uncertainty k = 0.179390
        26        27        28        50     9      180.000000        0.176807         4    ;  uncertainty k = 0.070913
        27        26        11        29     9        0.000000       -0.913425         1    ;  uncertainty k = 0.822532
        27        26        11        29     9      180.000000        1.239863         2    ;  uncertainty k = 0.771383
        27        26        11        29     9        0.000000        0.739535         3    ;  uncertainty k = 0.125527
        27        26        11        29     9      180.000000        0.140166         4    ;  uncertainty k = 0.236503
        27        28        29        51     9        0.000000       -0.285933         1    ;  uncertainty k = 0.228601
        27        28        29        51     9      180.000000       -1.181043         2    ;  uncertainty k = 0.328334
        27        28        29        51     9        0.000000        0.005343         3    ;  uncertainty k = 0.191384
        27        28        29        51     9      180.000000        0.080142         4    ;  uncertainty k = 0.122414
        27        28        29        52     9        0.000000       -0.285933         1    ;  uncertainty k = 0.228601
        27        28        29        52     9      180.000000       -1.181043         2    ;  uncertainty k = 0.328334
        27        28        29        52     9        0.000000        0.005343         3    ;  uncertainty k = 0.191384
        27        28        29        52     9      180.000000        0.080142         4    ;  uncertainty k = 0.122414
        28        27        26        45     9        0.000000       -0.285933         1    ;  uncertainty k = 0.228601
        28        27        26        45     9      180.000000       -1.181041         2    ;  uncertainty k = 0.328334
        28        27        26        45     9        0.000000        0.005343         3    ;  uncertainty k = 0.191384
        28        27        26        45     9      180.000000        0.080142         4    ;  uncertainty k = 0.122414
        28        27        26        46     9        0.000000       -0.285933         1    ;  uncertainty k = 0.228601
        28        27        26        46     9      180.000000       -1.181041         2    ;  uncertainty k = 0.328334
        28        27        26        46     9        0.000000        0.005343         3    ;  uncertainty k = 0.191384
        28        27        26        46     9      180.000000        0.080142         4    ;  uncertainty k = 0.122414
        29        11        26        45     9        0.000000       -2.225147         1    ;  uncertainty k = 0.418103
        29        11        26        45     9      180.000000        1.168679         2    ;  uncertainty k = 0.472049
        29        11        26        45     9        0.000000        1.336317         3    ;  uncertainty k = 0.151411
        29        11        26        45     9      180.000000        0.343405         4    ;  uncertainty k = 0.109037
        29        11        26        46     9        0.000000       -2.225147         1    ;  uncertainty k = 0.418103
        29        11        26        46     9      180.000000        1.168679         2    ;  uncertainty k = 0.472049
        29        11        26        46     9        0.000000        1.336317         3    ;  uncertainty k = 0.151411
        29        11        26        46     9      180.000000        0.343405         4    ;  uncertainty k = 0.109037
        29        28        27        47     9        0.000000       -1.433712         1    ;  uncertainty k = 0.288347
        29        28        27        47     9      180.000000       -0.370923         2    ;  uncertainty k = 0.182560
        29        28        27        47     9        0.000000        0.632143         3    ;  uncertainty k = 0.179390
        29        28        27        47     9      180.000000        0.176806         4    ;  uncertainty k = 0.070912
        29        28        27        48     9        0.000000       -1.433712         1    ;  uncertainty k = 0.288347
        29        28        27        48     9      180.000000       -0.370923         2    ;  uncertainty k = 0.182560
        29        28        27        48     9        0.000000        0.632143         3    ;  uncertainty k = 0.179390
        29        28        27        48     9      180.000000        0.176806         4    ;  uncertainty k = 0.070912
        31         3         4        32     9        0.000000       -0.070401         1    ;  uncertainty k = 0.392760
        31         3         4        32     9      180.000000        8.108007         2    ;  uncertainty k = 0.274255
        31         3         4        32     9        0.000000       -0.194331         3    ;  uncertainty k = 0.222078
        31         3         4        32     9      180.000000        0.252535         4    ;  uncertainty k = 0.184095
        36        15        16        37     9        0.000000       -0.105048         1    ;  uncertainty k = 0.079024
        36        15        16        37     9      180.000000        7.802567         2    ;  uncertainty k = 0.370707
        36        15        16        37     9        0.000000       -0.520984         3    ;  uncertainty k = 0.249529
        36        15        16        37     9      180.000000        0.209880         4    ;  uncertainty k = 0.188642
        38        18        19        39     9        0.000000       -0.105048         1    ;  uncertainty k = 0.079024
        38        18        19        39     9      180.000000        7.802567         2    ;  uncertainty k = 0.370707
        38        18        19        39     9        0.000000       -0.520984         3    ;  uncertainty k = 0.249529
        38        18        19        39     9      180.000000        0.209880         4    ;  uncertainty k = 0.188642
        45        26        27        47     9        0.000000        0.804376         1    ;  uncertainty k = 0.443928
        45        26        27        47     9      180.000000       -0.224423         2    ;  uncertainty k = 0.196631
        45        26        27        47     9        0.000000        0.495412         3    ;  uncertainty k = 0.079057
        45        26        27        47     9      180.000000        0.014443         4    ;  uncertainty k = 0.046858
        45        26        27        48     9        0.000000        0.804376         1    ;  uncertainty k = 0.443928
        45        26        27        48     9      180.000000       -0.224423         2    ;  uncertainty k = 0.196631
        45        26        27        48     9        0.000000        0.495412         3    ;  uncertainty k = 0.079057
        45        26        27        48     9      180.000000        0.014443         4    ;  uncertainty k = 0.046858
        46        26        27        47     9        0.000000        0.804376         1    ;  uncertainty k = 0.443928
        46        26        27        47     9      180.000000       -0.224423         2    ;  uncertainty k = 0.196631
        46        26        27        47     9        0.000000        0.495412         3    ;  uncertainty k = 0.079057
        46        26        27        47     9      180.000000        0.014443         4    ;  uncertainty k = 0.046858
        46        26        27        48     9        0.000000        0.804376         1    ;  uncertainty k = 0.443928
        46        26        27        48     9      180.000000       -0.224423         2    ;  uncertainty k = 0.196631
        46        26        27        48     9        0.000000        0.495412         3    ;  uncertainty k = 0.079057
        46        26        27        48     9      180.000000        0.014443         4    ;  uncertainty k = 0.046858
        47        27        28        49     9        0.000000        1.529707         1    ;  uncertainty k = 0.442158
        47        27        28        49     9      180.000000       -0.067177         2    ;  uncertainty k = 0.047107
        47        27        28        49     9        0.000000        0.760047         3    ;  uncertainty k = 0.103133
        47        27        28        49     9      180.000000        0.044319         4    ;  uncertainty k = 0.066502
        47        27        28        50     9        0.000000        1.529707         1    ;  uncertainty k = 0.442158
        47        27        28        50     9      180.000000       -0.067177         2    ;  uncertainty k = 0.047107
        47        27        28        50     9        0.000000        0.760047         3    ;  uncertainty k = 0.103133
        47        27        28        50     9      180.000000        0.044319         4    ;  uncertainty k = 0.066502
        48        27        28        49     9        0.000000        1.529707         1    ;  uncertainty k = 0.442158
        48        27        28        49     9      180.000000       -0.067177         2    ;  uncertainty k = 0.047107
        48        27        28        49     9        0.000000        0.760047         3    ;  uncertainty k = 0.103133
        48        27        28        49     9      180.000000        0.044319         4    ;  uncertainty k = 0.066502
        48        27        28        50     9        0.000000        1.529707         1    ;  uncertainty k = 0.442158
        48        27        28        50     9      180.000000       -0.067177         2    ;  uncertainty k = 0.047107
        48        27        28        50     9        0.000000        0.760047         3    ;  uncertainty k = 0.103133
        48        27        28        50     9      180.000000        0.044319         4    ;  uncertainty k = 0.066502
        49        28        29        51     9        0.000000        0.804376         1    ;  uncertainty k = 0.443928
        49        28        29        51     9      180.000000       -0.224422         2    ;  uncertainty k = 0.196633
        49        28        29        51     9        0.000000        0.495412         3    ;  uncertainty k = 0.079057
        49        28        29        51     9      180.000000        0.014443         4    ;  uncertainty k = 0.046859
        49        28        29        52     9        0.000000        0.804376         1    ;  uncertainty k = 0.443928
        49        28        29        52     9      180.000000       -0.224422         2    ;  uncertainty k = 0.196633
        49        28        29        52     9        0.000000        0.495412         3    ;  uncertainty k = 0.079057
        49        28        29        52     9      180.000000        0.014443         4    ;  uncertainty k = 0.046859
        50        28        29        51     9        0.000000        0.804376         1    ;  uncertainty k = 0.443928
        50        28        29        51     9      180.000000       -0.224422         2    ;  uncertainty k = 0.196633
        50        28        29        51     9        0.000000        0.495412         3    ;  uncertainty k = 0.079057
        50        28        29        51     9      180.000000        0.014443         4    ;  uncertainty k = 0.046859
        50        28        29        52     9        0.000000        0.804376         1    ;  uncertainty k = 0.443928
        50        28        29        52     9      180.000000       -0.224422         2    ;  uncertainty k = 0.196633
        50        28        29        52     9        0.000000        0.495412         3    ;  uncertainty k = 0.079057
        50        28        29        52     9      180.000000        0.014443         4    ;  uncertainty k = 0.046859

[ dihedrals ] ; impropers
;       ai        aj        ak        al funct           phase               k        pn
         1         2         4        12     4      180.000000        7.593791         2    ;  uncertainty k = 0.174827
         1         4        12         2     4      180.000000        7.593791         2    ;  uncertainty k = 0.174827
         1        12         2         4     4      180.000000        7.593791         2    ;  uncertainty k = 0.174827
         2         1         6        30     4      180.000000        5.327364         2    ;  uncertainty k = 0.132593
         2         6        30         1     4      180.000000        5.327364         2    ;  uncertainty k = 0.132593
         2        30         1         6     4      180.000000        5.327364         2    ;  uncertainty k = 0.132593
         3         4         5        31     4      180.000000        2.497169         2    ;  uncertainty k = 0.291920
         3         5        31         4     4      180.000000        2.497169         2    ;  uncertainty k = 0.291920
         3        31         4         5     4      180.000000        2.497169         2    ;  uncertainty k = 0.291920
         4         1         3        32     4      180.000000        4.557278         2    ;  uncertainty k = 0.155000
         4         3        32         1     4      180.000000        4.557278         2    ;  uncertainty k = 0.155000
         4        32         1         3     4      180.000000        4.557278         2    ;  uncertainty k = 0.155000
         5         3         6         9     4      180.000000        1.643055         2    ;  uncertainty k = 0.919604
         5         6         9         3     4      180.000000        1.643055         2    ;  uncertainty k = 0.919604
         5         9         3         6     4      180.000000        1.643055         2    ;  uncertainty k = 0.919604
         7         6         8        10     4      180.000000        7.647070         2    ;  uncertainty k = 0.246781
         7         8        10         6     4      180.000000        7.647070         2    ;  uncertainty k = 0.246781
         7        10         6         8     4      180.000000        7.647070         2    ;  uncertainty k = 0.246781
        12         1        11        13     4      180.000000       51.230628         2    ;  uncertainty k = 0.019804
        12        11        13         1     4      180.000000       51.230628         2    ;  uncertainty k = 0.019804
        12        13         1        11     4      180.000000       51.230628         2    ;  uncertainty k = 0.019804
        14        10        15        19     4      180.000000       13.443226         2    ;  uncertainty k = 0.081656
        14        15        19        10     4      180.000000       13.443226         2    ;  uncertainty k = 0.081656
        14        19        10        15     4      180.000000       13.443226         2    ;  uncertainty k = 0.081656
        15        14        16        36     4      180.000000        4.038197         2    ;  uncertainty k = 0.126249
        15        16        36        14     4      180.000000        4.038197         2    ;  uncertainty k = 0.126249
        15        36        14        16     4      180.000000        4.038197         2    ;  uncertainty k = 0.126249
        16        15        17        37     4      180.000000        3.634538         2    ;  uncertainty k = 0.167362
        16        17        37        15     4      180.000000        3.634538         2    ;  uncertainty k = 0.167362
        16        37        15        17     4      180.000000        3.634538         2    ;  uncertainty k = 0.167362
        17        16        18        20     4      180.000000       14.868719         2    ;  uncertainty k = 0.081810
        17        18        20        16     4      180.000000       14.868719         2    ;  uncertainty k = 0.081810
        17        20        16        18     4      180.000000       14.868719         2    ;  uncertainty k = 0.081810
        18        17        19        38     4      180.000000        3.634538         2    ;  uncertainty k = 0.167362
        18        19        38        17     4      180.000000        3.634538         2    ;  uncertainty k = 0.167362
        18        38        17        19     4      180.000000        3.634538         2    ;  uncertainty k = 0.167362
        19        14        18        39     4      180.000000        4.038194         2    ;  uncertainty k = 0.126247
        19        18        39        14     4      180.000000        4.038194         2    ;  uncertainty k = 0.126247
        19        39        14        18     4      180.000000        4.038194         2    ;  uncertainty k = 0.126247
        20        17        21        24     4      180.000000        2.273628         2    ;  uncertainty k = 0.479725
        20        21        24        17     4      180.000000        2.273628         2    ;  uncertainty k = 0.479725
        20        24        17        21     4      180.000000        2.273628         2    ;  uncertainty k = 0.479725
        21        20        22        40     4      180.000000        0.843031         2    ;  uncertainty k = 0.771057
        21        22        40        20     4      180.000000        0.843031         2    ;  uncertainty k = 0.771057
        21        40        20        22     4      180.000000        0.843031         2    ;  uncertainty k = 0.771057
        24        20        23        41     4      180.000000        0.319029         2    ;  uncertainty k = 0.442787
        24        23        41        20     4      180.000000        0.319029         2    ;  uncertainty k = 0.442787
        24        41        20        23     4      180.000000        0.319029         2    ;  uncertainty k = 0.442787

[ pairs ]
;       ai        aj funct
         1         5     1
         1         7     1
         1        26     1
         1        29     1
         1        31     1
         2         3     1
         2         8     1
         2         9     1
         2        10     1
         2        11     1
         2        13     1
         2        32     1
         3         7     1
         3         8     1
         3        12     1
         3        33     1
         4         6     1
         4         9     1
         4        11     1
         4        13     1
         4        30     1
         5        10     1
         5        30     1
         5        32     1
         6        12     1
         6        14     1
         6        31     1
         6        33     1
         6        34     1
         6        35     1
         7        15     1
         7        19     1
         7        30     1
         7        33     1
         8        14     1
         8        34     1
         8        35     1
         9        10     1
         9        31     1
        10        16     1
        10        18     1
        10        36     1
        10        39     1
        11        47     1
        11        48     1
        11        49     1
        11        50     1
        12        27     1
        12        28     1
        12        30     1
        12        32     1
        12        45     1
        12        46     1
        12        51     1
        12        52     1
        13        26     1
        13        29     1
        14        17     1
        14        37     1
        14        38     1
        15        18     1
        15        20     1
        15        34     1
        15        35     1
        15        39     1
        16        19     1
        16        21     1
        16        24     1
        16        38     1
        17        22     1
        17        23     1
        17        36     1
        17        39     1
        17        40     1
        17        41     1
        18        21     1
        18        24     1
        18        37     1
        19        20     1
        19        34     1
        19        35     1
        19        36     1
        20        25     1
        20        37     1
        20        38     1
        21        41     1
        21        42     1
        21        43     1
        21        44     1
        22        41     1
        23        40     1
        23        42     1
        23        43     1
        23        44     1
        24        25     1
        24        40     1
        25        40     1
        26        49     1
        26        50     1
        26        51     1
        26        52     1
        27        51     1
        27        52     1
        28        45     1
        28        46     1
        29        45     1
        29        46     1
        29        47     1
        29        48     1
        31        32     1
        36        37     1
        38        39     1
        45        47     1
        45        48     1
        46        47     1
        46        48     1
        47        49     1
        47        50     1
        48        49     1
        48        50     1
        49        51     1
        49        52     1
        50        51     1
        50        52     1
