; ITP file created by ByteFF-joint-25, 2026-02-17 09:07:06.745777

[ atomtypes ]
;name           bonded.type        at.num        mass        charge   ptype           sigma         epsilon
 c0bf                                   6      0.0000       0.00000       A     3.31516e-01     4.13166e-01    ;  uncertainty sigma = 0.000013, epsilon = 0.001000
 c1bf                                   6      0.0000       0.00000       A     3.31524e-01     4.13228e-01    ;  uncertainty sigma = 0.000006, epsilon = 0.000423
 c2bf                                   6      0.0000       0.00000       A     3.31517e-01     4.13306e-01    ;  uncertainty sigma = 0.000005, epsilon = 0.000797
 c3bf                                   6      0.0000       0.00000       A     3.31530e-01     4.13383e-01    ;  uncertainty sigma = 0.000006, epsilon = 0.000576
 c4bf                                   6      0.0000       0.00000       A     3.31513e-01     4.13127e-01    ;  uncertainty sigma = 0.000006, epsilon = 0.000908
 c5bf                                   6      0.0000       0.00000       A     3.31526e-01     4.13302e-01    ;  uncertainty sigma = 0.000006, epsilon = 0.000584
 c6bf                                   6      0.0000       0.00000       A     3.31510e-01     4.13718e-01    ;  uncertainty sigma = 0.000012, epsilon = 0.000573
 n7bf                                   7      0.0000       0.00000       A     3.38378e-01     3.93289e-01    ;  uncertainty sigma = 0.000011, epsilon = 0.000859
 n8bf                                   7      0.0000       0.00000       A     3.20594e-01     8.54239e-01    ;  uncertainty sigma = 0.000008, epsilon = 0.000871
 c9bf                                   6      0.0000       0.00000       A     3.39770e-01     4.50677e-01    ;  uncertainty sigma = 0.000014, epsilon = 0.000932
 n10bf                                  7      0.0000       0.00000       A     3.18111e-01     6.84628e-01    ;  uncertainty sigma = 0.000010, epsilon = 0.001762
 c11bf                                  6      0.0000       0.00000       A     3.31503e-01     4.13105e-01    ;  uncertainty sigma = 0.000008, epsilon = 0.000744
 o12bf                                  8      0.0000       0.00000       A     3.04797e-01     6.12523e-01    ;  uncertainty sigma = 0.000018, epsilon = 0.001219
 c13bf                                  6      0.0000       0.00000       A     3.31526e-01     4.13322e-01    ;  uncertainty sigma = 0.000007, epsilon = 0.000745
 c14bf                                  6      0.0000       0.00000       A     3.31523e-01     4.13371e-01    ;  uncertainty sigma = 0.000005, epsilon = 0.000423
 c15bf                                  6      0.0000       0.00000       A     3.31520e-01     4.13353e-01    ;  uncertainty sigma = 0.000004, epsilon = 0.000667
 c16bf                                  6      0.0000       0.00000       A     3.31533e-01     4.13284e-01    ;  uncertainty sigma = 0.000006, epsilon = 0.001098
 c17bf                                  6      0.0000       0.00000       A     3.31520e-01     4.13353e-01    ;  uncertainty sigma = 0.000004, epsilon = 0.000667
 c18bf                                  6      0.0000       0.00000       A     3.31523e-01     4.13371e-01    ;  uncertainty sigma = 0.000005, epsilon = 0.000423
 c19bf                                  6      0.0000       0.00000       A     3.31535e-01     4.13223e-01    ;  uncertainty sigma = 0.000005, epsilon = 0.000899
 c20bf                                  6      0.0000       0.00000       A     3.31521e-01     4.13333e-01    ;  uncertainty sigma = 0.000008, epsilon = 0.000598
 n21bf                                  7      0.0000       0.00000       A     3.20584e-01     8.54185e-01    ;  uncertainty sigma = 0.000011, epsilon = 0.001160
 n22bf                                  7      0.0000       0.00000       A     3.38434e-01     3.93690e-01    ;  uncertainty sigma = 0.000004, epsilon = 0.000785
 c23bf                                  6      0.0000       0.00000       A     3.31536e-01     4.13003e-01    ;  uncertainty sigma = 0.000006, epsilon = 0.000684
 c24bf                                  6      0.0000       0.00000       A     3.39777e-01     4.50912e-01    ;  uncertainty sigma = 0.000003, epsilon = 0.000595
 c25bf                                  6      0.0000       0.00000       A     3.39766e-01     4.50697e-01    ;  uncertainty sigma = 0.000008, epsilon = 0.000715
 c26bf                                  6      0.0000       0.00000       A     3.39772e-01     4.50770e-01    ;  uncertainty sigma = 0.000007, epsilon = 0.000700
 n27bf                                  7      0.0000       0.00000       A     3.50763e-01     2.18714e-01    ;  uncertainty sigma = 0.000030, epsilon = 0.001040
 c28bf                                  6      0.0000       0.00000       A     3.39772e-01     4.50770e-01    ;  uncertainty sigma = 0.000007, epsilon = 0.000700
 c29bf                                  6      0.0000       0.00000       A     3.39766e-01     4.50697e-01    ;  uncertainty sigma = 0.000008, epsilon = 0.000715
 h30bf                                  1      0.0000       0.00000       A     2.62580e-01     6.71774e-02    ;  uncertainty sigma = 0.000007, epsilon = 0.000663
 h31bf                                  1      0.0000       0.00000       A     2.62571e-01     6.70414e-02    ;  uncertainty sigma = 0.000009, epsilon = 0.000485
 h32bf                                  1      0.0000       0.00000       A     2.62549e-01     6.72486e-02    ;  uncertainty sigma = 0.000012, epsilon = 0.000676
 h33bf                                  1      0.0000       0.00000       A     1.10648e-01     4.14022e-02    ;  uncertainty sigma = 0.000065, epsilon = 0.000771
 h34bf                                  1      0.0000       0.00000       A     2.60075e-01     8.67590e-02    ;  uncertainty sigma = 0.000029, epsilon = 0.000876
 h35bf                                  1      0.0000       0.00000       A     2.60075e-01     8.67590e-02    ;  uncertainty sigma = 0.000029, epsilon = 0.000876
 h36bf                                  1      0.0000       0.00000       A     2.62562e-01     6.71169e-02    ;  uncertainty sigma = 0.000007, epsilon = 0.000513
 h37bf                                  1      0.0000       0.00000       A     2.62566e-01     6.70543e-02    ;  uncertainty sigma = 0.000011, epsilon = 0.000444
 h38bf                                  1      0.0000       0.00000       A     2.62566e-01     6.70543e-02    ;  uncertainty sigma = 0.000011, epsilon = 0.000444
 h39bf                                  1      0.0000       0.00000       A     2.62562e-01     6.71169e-02    ;  uncertainty sigma = 0.000007, epsilon = 0.000513
 h40bf                                  1      0.0000       0.00000       A     2.53668e-01     6.70574e-02    ;  uncertainty sigma = 0.000029, epsilon = 0.000503
 h41bf                                  1      0.0000       0.00000       A     2.53681e-01     6.72123e-02    ;  uncertainty sigma = 0.000016, epsilon = 0.000497
 h42bf                                  1      0.0000       0.00000       A     2.42209e-01     8.68411e-02    ;  uncertainty sigma = 0.000019, epsilon = 0.000599
 h43bf                                  1      0.0000       0.00000       A     2.42209e-01     8.68411e-02    ;  uncertainty sigma = 0.000019, epsilon = 0.000599
 h44bf                                  1      0.0000       0.00000       A     2.42209e-01     8.68411e-02    ;  uncertainty sigma = 0.000019, epsilon = 0.000599
 h45bf                                  1      0.0000       0.00000       A     2.42207e-01     8.67752e-02    ;  uncertainty sigma = 0.000015, epsilon = 0.000795
 h46bf                                  1      0.0000       0.00000       A     2.42207e-01     8.67752e-02    ;  uncertainty sigma = 0.000015, epsilon = 0.000795
 h47bf                                  1      0.0000       0.00000       A     2.42198e-01     8.69212e-02    ;  uncertainty sigma = 0.000011, epsilon = 0.000484
 h48bf                                  1      0.0000       0.00000       A     2.42198e-01     8.69212e-02    ;  uncertainty sigma = 0.000011, epsilon = 0.000484
 h49bf                                  1      0.0000       0.00000       A     1.10678e-01     4.12589e-02    ;  uncertainty sigma = 0.000076, epsilon = 0.000821
 h50bf                                  1      0.0000       0.00000       A     2.42198e-01     8.69212e-02    ;  uncertainty sigma = 0.000011, epsilon = 0.000484
 h51bf                                  1      0.0000       0.00000       A     2.42198e-01     8.69212e-02    ;  uncertainty sigma = 0.000011, epsilon = 0.000484
 h52bf                                  1      0.0000       0.00000       A     2.42207e-01     8.67751e-02    ;  uncertainty sigma = 0.000015, epsilon = 0.000794
 h53bf                                  1      0.0000       0.00000       A     2.42207e-01     8.67751e-02    ;  uncertainty sigma = 0.000015, epsilon = 0.000794

[ moleculetype ]
;name             nrexcl
 MOL                   3

[ atoms ]
;       nr            type      resi   res      atom      cgnr      charge          mass ; qtot
         1            c0bf         1   UNL        c0         1    -0.18686       12.0110 ; qtot   -0.187
         2            c1bf         1   UNL        c1         2    -0.00374       12.0110 ; qtot   -0.191
         3            c2bf         1   UNL        c2         3    -0.16331       12.0110 ; qtot   -0.354
         4            c3bf         1   UNL        c3         4    -0.05928       12.0110 ; qtot   -0.413
         5            c4bf         1   UNL        c4         5    -0.00097       12.0110 ; qtot   -0.414
         6            c5bf         1   UNL        c5         6    -0.23644       12.0110 ; qtot   -0.651
         7            c6bf         1   UNL        c6         7     0.37162       12.0110 ; qtot   -0.279
         8            n7bf         1   UNL        n7         8    -0.50863       14.0070 ; qtot   -0.788
         9            n8bf         1   UNL        n8         9    -0.03606       14.0070 ; qtot   -0.824
        10            c9bf         1   UNL        c9        10    -0.04574       12.0110 ; qtot   -0.869
        11           n10bf         1   UNL       n10        11    -0.48157       14.0070 ; qtot   -1.351
        12           c11bf         1   UNL       c11        12     0.67874       12.0110 ; qtot   -0.672
        13           o12bf         1   UNL       o12        13    -0.59462       15.9990 ; qtot   -1.267
        14           c13bf         1   UNL       c13        14    -0.08175       12.0110 ; qtot   -1.349
        15           c14bf         1   UNL       c14        15    -0.11939       12.0110 ; qtot   -1.468
        16           c15bf         1   UNL       c15        16    -0.12732       12.0110 ; qtot   -1.595
        17           c16bf         1   UNL       c16        17     0.00918       12.0110 ; qtot   -1.586
        18           c17bf         1   UNL       c17        18    -0.12732       12.0110 ; qtot   -1.713
        19           c18bf         1   UNL       c18        19    -0.11939       12.0110 ; qtot   -1.833
        20           c19bf         1   UNL       c19        20    -0.22601       12.0110 ; qtot   -2.059
        21           c20bf         1   UNL       c20        21    -0.11441       12.0110 ; qtot   -2.173
        22           n21bf         1   UNL       n21        22     0.08671       14.0070 ; qtot   -2.087
        23           n22bf         1   UNL       n22        23    -0.52298       14.0070 ; qtot   -2.610
        24           c23bf         1   UNL       c23        24     0.31766       12.0110 ; qtot   -2.292
        25           c24bf         1   UNL       c24        25     0.04276       12.0110 ; qtot   -2.249
        26           c25bf         1   UNL       c25        26     0.07379       12.0110 ; qtot   -2.175
        27           c26bf         1   UNL       c26        27     0.13599       12.0110 ; qtot   -2.039
        28           n27bf         1   UNL       n27        28    -0.80131       14.0070 ; qtot   -2.841
        29           c28bf         1   UNL       c28        29     0.13599       12.0110 ; qtot   -2.705
        30           c29bf         1   UNL       c29        30     0.07379       12.0110 ; qtot   -2.631
        31           h30bf         1   UNL       h30        31     0.15350        1.0080 ; qtot   -2.477
        32           h31bf         1   UNL       h31        32     0.14371        1.0080 ; qtot   -2.334
        33           h32bf         1   UNL       h32        33     0.14676        1.0080 ; qtot   -2.187
        34           h33bf         1   UNL       h33        34     0.32635        1.0080 ; qtot   -1.861
        35           h34bf         1   UNL       h34        35     0.06335        1.0080 ; qtot   -1.797
        36           h35bf         1   UNL       h35        36     0.06335        1.0080 ; qtot   -1.734
        37           h36bf         1   UNL       h36        37     0.13610        1.0080 ; qtot   -1.598
        38           h37bf         1   UNL       h37        38     0.13384        1.0080 ; qtot   -1.464
        39           h38bf         1   UNL       h38        39     0.13384        1.0080 ; qtot   -1.330
        40           h39bf         1   UNL       h39        40     0.13610        1.0080 ; qtot   -1.194
        41           h40bf         1   UNL       h40        41     0.17330        1.0080 ; qtot   -1.021
        42           h41bf         1   UNL       h41        42     0.03867        1.0080 ; qtot   -0.982
        43           h42bf         1   UNL       h42        43     0.05820        1.0080 ; qtot   -0.924
        44           h43bf         1   UNL       h43        44     0.05820        1.0080 ; qtot   -0.866
        45           h44bf         1   UNL       h44        45     0.05820        1.0080 ; qtot   -0.807
        46           h45bf         1   UNL       h45        46     0.05961        1.0080 ; qtot   -0.748
        47           h46bf         1   UNL       h46        47     0.05961        1.0080 ; qtot   -0.688
        48           h47bf         1   UNL       h47        48     0.05374        1.0080 ; qtot   -0.634
        49           h48bf         1   UNL       h48        49     0.05374        1.0080 ; qtot   -0.581
        50           h49bf         1   UNL       h49        50     0.35398        1.0080 ; qtot   -0.227
        51           h50bf         1   UNL       h50        51     0.05374        1.0080 ; qtot   -0.173
        52           h51bf         1   UNL       h51        52     0.05374        1.0080 ; qtot   -0.119
        53           h52bf         1   UNL       h52        53     0.05961        1.0080 ; qtot   -0.060
        54           h53bf         1   UNL       h53        54     0.05963        1.0080 ; qtot    0.000

[ bonds ]
;       ai        aj funct               r               k
         1         2     1        0.139220   357213.903125    ;  uncertainty r = 0.000106, k = 6.000528
         1         4     1        0.142103   331512.181543    ;  uncertainty r = 0.000095, k = 4.782580
         1        12     1        0.149828   262812.479736    ;  uncertainty r = 0.000075, k = 8.434880
         2         6     1        0.140017   362328.271094    ;  uncertainty r = 0.000073, k = 4.804182
         2        31     1        0.108667   332221.602441    ;  uncertainty r = 0.000033, k = 1.757182
         3         4     1        0.138482   367742.597949    ;  uncertainty r = 0.000035, k = 3.777690
         3         5     1        0.140222   361060.481299    ;  uncertainty r = 0.000058, k = 5.233551
         3        32     1        0.108860   335432.638574    ;  uncertainty r = 0.000009, k = 1.643396
         4        33     1        0.108648   331900.447754    ;  uncertainty r = 0.000010, k = 2.311831
         5         6     1        0.141752   401236.534326    ;  uncertainty r = 0.000058, k = 7.770046
         5         9     1        0.137355   299898.542529    ;  uncertainty r = 0.000054, k = 10.387935
         6         7     1        0.144223   228131.936035    ;  uncertainty r = 0.000105, k = 8.277724
         7         8     1        0.132796   464085.122559    ;  uncertainty r = 0.000107, k = 7.952511
         7        10     1        0.150186   237414.777441    ;  uncertainty r = 0.000064, k = 4.415855
         8         9     1        0.136819   297875.211816    ;  uncertainty r = 0.000034, k = 11.449749
         9        34     1        0.101020   416476.391699    ;  uncertainty r = 0.000031, k = 2.687214
        10        14     1        0.151795   233478.870459    ;  uncertainty r = 0.000063, k = 3.628626
        10        35     1        0.109648   308979.130029    ;  uncertainty r = 0.000023, k = 1.425937
        10        36     1        0.109648   308979.130029    ;  uncertainty r = 0.000023, k = 1.425937
        11        12     1        0.137534   325801.573145    ;  uncertainty r = 0.000039, k = 10.705047
        11        26     1        0.146651   252260.290771    ;  uncertainty r = 0.000047, k = 9.444862
        11        30     1        0.146651   252260.290771    ;  uncertainty r = 0.000047, k = 9.444856
        12        13     1        0.123708   795653.485742    ;  uncertainty r = 0.000052, k = 5.339687
        14        15     1        0.139794   355474.059863    ;  uncertainty r = 0.000028, k = 2.352255
        14        19     1        0.139794   355474.059863    ;  uncertainty r = 0.000028, k = 2.352255
        15        16     1        0.139338   362972.291455    ;  uncertainty r = 0.000020, k = 2.159620
        15        37     1        0.108902   333492.329004    ;  uncertainty r = 0.000022, k = 1.112447
        16        17     1        0.140253   353391.993799    ;  uncertainty r = 0.000028, k = 3.610471
        16        38     1        0.108868   334958.771973    ;  uncertainty r = 0.000030, k = 0.809215
        17        18     1        0.140253   353391.993799    ;  uncertainty r = 0.000028, k = 3.610471
        17        20     1        0.146652   274345.727832    ;  uncertainty r = 0.000041, k = 6.994044
        18        19     1        0.139338   362972.291455    ;  uncertainty r = 0.000020, k = 2.159629
        18        39     1        0.108868   334958.771973    ;  uncertainty r = 0.000030, k = 0.809239
        19        40     1        0.108902   333492.303467    ;  uncertainty r = 0.000022, k = 1.112423
        20        21     1        0.139092   414208.236719    ;  uncertainty r = 0.000013, k = 2.977949
        20        24     1        0.142427   245231.890918    ;  uncertainty r = 0.000028, k = 7.933802
        21        22     1        0.136086   293168.518262    ;  uncertainty r = 0.000038, k = 2.183978
        21        41     1        0.108275   339142.108008    ;  uncertainty r = 0.000029, k = 1.978649
        22        23     1        0.135372   281833.846729    ;  uncertainty r = 0.000063, k = 7.581417
        22        25     1        0.145228   253114.072949    ;  uncertainty r = 0.000011, k = 4.991527
        23        24     1        0.133356   453692.795898    ;  uncertainty r = 0.000038, k = 2.837549
        24        42     1        0.108433   337731.157178    ;  uncertainty r = 0.000017, k = 2.346797
        25        43     1        0.109330   311409.266895    ;  uncertainty r = 0.000011, k = 1.149458
        25        44     1        0.109330   311409.266895    ;  uncertainty r = 0.000011, k = 1.149458
        25        45     1        0.109330   311409.292432    ;  uncertainty r = 0.000011, k = 1.149464
        26        27     1        0.153207   210784.092432    ;  uncertainty r = 0.000057, k = 4.446591
        26        46     1        0.109511   307555.742627    ;  uncertainty r = 0.000016, k = 3.372703
        26        47     1        0.109511   307555.742627    ;  uncertainty r = 0.000016, k = 3.372703
        27        28     1        0.146389   271917.761621    ;  uncertainty r = 0.000036, k = 5.837565
        27        48     1        0.109830   309127.781543    ;  uncertainty r = 0.000022, k = 1.905642
        27        49     1        0.109830   309127.781543    ;  uncertainty r = 0.000022, k = 1.905642
        28        29     1        0.146389   271917.761621    ;  uncertainty r = 0.000036, k = 5.837579
        28        50     1        0.101860   399742.741113    ;  uncertainty r = 0.000026, k = 2.471595
        29        30     1        0.153207   210784.117969    ;  uncertainty r = 0.000057, k = 4.446576
        29        51     1        0.109830   309127.781543    ;  uncertainty r = 0.000022, k = 1.905663
        29        52     1        0.109830   309127.781543    ;  uncertainty r = 0.000022, k = 1.905663
        30        53     1        0.109511   307555.717090    ;  uncertainty r = 0.000016, k = 3.372712
        30        54     1        0.109511   307555.742627    ;  uncertainty r = 0.000016, k = 3.372702

[ angles ]
;       ai        aj        ak funct           theta             cth
         1         2         6     1      119.450027      550.600763    ;  uncertainty theta = 0.004458, k = 0.068723
         1         2        31     1      119.952721      273.645960    ;  uncertainty theta = 0.003916, k = 0.092249
         1         4         3     1      123.986404      525.751528    ;  uncertainty theta = 0.002701, k = 0.070592
         1         4        33     1      118.752098      273.493503    ;  uncertainty theta = 0.002931, k = 0.082513
         1        12        11     1      114.153305      401.362598    ;  uncertainty theta = 0.002092, k = 0.122195
         1        12        13     1      124.973244      545.050656    ;  uncertainty theta = 0.002071, k = 0.132218
         2         1         4     1      123.678017      470.183735    ;  uncertainty theta = 0.003865, k = 0.071278
         2         1        12     1      119.676559      329.725803    ;  uncertainty theta = 0.001229, k = 0.297373
         2         6         5     1      118.085953      403.846561    ;  uncertainty theta = 0.003736, k = 0.229856
         2         6         7     1      131.023331      339.733445    ;  uncertainty theta = 0.005387, k = 0.219977
         3         4        33     1      118.790970      285.239361    ;  uncertainty theta = 0.001906, k = 0.048093
         3         5         6     1      120.122269      382.728233    ;  uncertainty theta = 0.005265, k = 0.106017
         3         5         9     1      130.175400      396.821589    ;  uncertainty theta = 0.003154, k = 0.091846
         4         1        12     1      119.407166      345.529795    ;  uncertainty theta = 0.001452, k = 0.215252
         4         3         5     1      116.752762      522.583234    ;  uncertainty theta = 0.003141, k = 0.063034
         4         3        32     1      121.410339      281.706908    ;  uncertainty theta = 0.000989, k = 0.034054
         5         3        32     1      122.774734      290.369255    ;  uncertainty theta = 0.001540, k = 0.115153
         5         6         7     1      104.005447      707.112727    ;  uncertainty theta = 0.005066, k = 0.128139
         5         9         8     1      108.842224      996.723721    ;  uncertainty theta = 0.004081, k = 0.105419
         5         9        34     1      115.986206      285.859753    ;  uncertainty theta = 0.007695, k = 0.071788
         6         2        31     1      121.157333      289.032260    ;  uncertainty theta = 0.004343, k = 0.078430
         6         5         9     1      105.263329      700.810424    ;  uncertainty theta = 0.002632, k = 0.045794
         6         7         8     1      112.624451      860.882899    ;  uncertainty theta = 0.001678, k = 0.093631
         6         7        10     1      127.223000      341.112002    ;  uncertainty theta = 0.004517, k = 0.143685
         7         8         9     1      109.338829      911.050678    ;  uncertainty theta = 0.003490, k = 0.133446
         7        10        14     1      111.408203      538.561740    ;  uncertainty theta = 0.002686, k = 0.063134
         7        10        35     1      107.195206      404.091717    ;  uncertainty theta = 0.002677, k = 0.094742
         7        10        36     1      107.195206      404.091717    ;  uncertainty theta = 0.002677, k = 0.094742
         8         7        10     1      121.565857      408.256054    ;  uncertainty theta = 0.004764, k = 0.110630
         8         9        34     1      108.270935      348.057521    ;  uncertainty theta = 0.007607, k = 0.026261
        10        14        15     1      121.045166      422.581127    ;  uncertainty theta = 0.002275, k = 0.038270
        10        14        19     1      121.045166      422.581127    ;  uncertainty theta = 0.002275, k = 0.038270
        11        12        13     1      124.331154      744.980557    ;  uncertainty theta = 0.001366, k = 0.061942
        11        26        27     1      110.089500      726.568876    ;  uncertainty theta = 0.001698, k = 0.123259
        11        26        46     1      108.079079      457.641248    ;  uncertainty theta = 0.000702, k = 0.082700
        11        26        47     1      108.079079      457.641248    ;  uncertainty theta = 0.000702, k = 0.082700
        11        30        29     1      110.089500      726.568812    ;  uncertainty theta = 0.001698, k = 0.123259
        11        30        53     1      108.079079      457.641248    ;  uncertainty theta = 0.000702, k = 0.082700
        11        30        54     1      108.079079      457.641248    ;  uncertainty theta = 0.000702, k = 0.082700
        12        11        26     1      117.042313      370.733996    ;  uncertainty theta = 0.003313, k = 0.094468
        12        11        30     1      117.042313      370.734028    ;  uncertainty theta = 0.003313, k = 0.094469
        14        10        35     1      107.837601      399.901237    ;  uncertainty theta = 0.002249, k = 0.057837
        14        10        36     1      107.837601      399.901237    ;  uncertainty theta = 0.002249, k = 0.057837
        14        15        16     1      121.318886      514.235568    ;  uncertainty theta = 0.001778, k = 0.059752
        14        15        37     1      119.166016      270.523857    ;  uncertainty theta = 0.002269, k = 0.008290
        14        19        18     1      121.318886      514.235568    ;  uncertainty theta = 0.001778, k = 0.059752
        14        19        40     1      119.166016      270.523857    ;  uncertainty theta = 0.002269, k = 0.008290
        15        14        19     1      118.819534      462.266433    ;  uncertainty theta = 0.001838, k = 0.080865
        15        16        17     1      121.217484      515.997661    ;  uncertainty theta = 0.001896, k = 0.077715
        15        16        38     1      119.997902      290.785989    ;  uncertainty theta = 0.002435, k = 0.029685
        16        15        37     1      119.867722      290.821262    ;  uncertainty theta = 0.002696, k = 0.045566
        16        17        18     1      118.904152      401.449329    ;  uncertainty theta = 0.000792, k = 0.077724
        16        17        20     1      121.709091      440.254499    ;  uncertainty theta = 0.000934, k = 0.108366
        17        16        38     1      119.095055      282.559209    ;  uncertainty theta = 0.001574, k = 0.076416
        17        18        19     1      121.217484      515.997661    ;  uncertainty theta = 0.001896, k = 0.077715
        17        18        39     1      119.095055      282.559209    ;  uncertainty theta = 0.001574, k = 0.076416
        17        20        21     1      127.697556      343.157780    ;  uncertainty theta = 0.004353, k = 0.177775
        17        20        24     1      126.731285      348.545089    ;  uncertainty theta = 0.003995, k = 0.207077
        18        17        20     1      121.709091      440.254499    ;  uncertainty theta = 0.000934, k = 0.108366
        18        19        40     1      119.867722      290.821262    ;  uncertainty theta = 0.002696, k = 0.045566
        19        18        39     1      119.997902      290.785989    ;  uncertainty theta = 0.002435, k = 0.029685
        20        21        22     1      107.786392      728.617782    ;  uncertainty theta = 0.002722, k = 0.171005
        20        21        41     1      129.337921      225.112141    ;  uncertainty theta = 0.003840, k = 0.127302
        20        24        23     1      112.792480      868.770035    ;  uncertainty theta = 0.004151, k = 0.098178
        20        24        42     1      126.058434      240.089592    ;  uncertainty theta = 0.003930, k = 0.061937
        21        20        24     1      104.376785      682.871562    ;  uncertainty theta = 0.005377, k = 0.161868
        21        22        23     1      109.875755      985.972854    ;  uncertainty theta = 0.001972, k = 0.104814
        21        22        25     1      122.678429      402.059474    ;  uncertainty theta = 0.001716, k = 0.122019
        22        21        41     1      118.090347      269.140001    ;  uncertainty theta = 0.002835, k = 0.151929
        22        23        24     1      106.284317      901.234341    ;  uncertainty theta = 0.001454, k = 0.058730
        22        25        43     1      108.689774      466.172430    ;  uncertainty theta = 0.001193, k = 0.023318
        22        25        44     1      108.689774      466.172430    ;  uncertainty theta = 0.001193, k = 0.023318
        22        25        45     1      108.689774      466.172430    ;  uncertainty theta = 0.001193, k = 0.023318
        23        22        25     1      116.723465      468.949495    ;  uncertainty theta = 0.002619, k = 0.085339
        23        24        42     1      118.687256      285.500605    ;  uncertainty theta = 0.004102, k = 0.050180
        26        11        30     1      116.685959      437.573581    ;  uncertainty theta = 0.004275, k = 0.074707
        26        27        28     1      111.086220      657.660306    ;  uncertainty theta = 0.002053, k = 0.024838
        26        27        48     1      108.696632      400.336006    ;  uncertainty theta = 0.001346, k = 0.027504
        26        27        49     1      108.696632      400.336006    ;  uncertainty theta = 0.001346, k = 0.027504
        27        26        46     1      109.593018      406.073812    ;  uncertainty theta = 0.000997, k = 0.072220
        27        26        47     1      109.593018      406.073812    ;  uncertainty theta = 0.000997, k = 0.072220
        27        28        29     1      111.409042      460.084383    ;  uncertainty theta = 0.001807, k = 0.185181
        27        28        50     1      106.120628      400.279729    ;  uncertainty theta = 0.000884, k = 0.144727
        28        27        48     1      108.312660      447.732275    ;  uncertainty theta = 0.002123, k = 0.031753
        28        27        49     1      108.312660      447.732275    ;  uncertainty theta = 0.002123, k = 0.031753
        28        29        30     1      111.086220      657.660434    ;  uncertainty theta = 0.002053, k = 0.024839
        28        29        51     1      108.312660      447.732275    ;  uncertainty theta = 0.002123, k = 0.031753
        28        29        52     1      108.312660      447.732275    ;  uncertainty theta = 0.002123, k = 0.031753
        29        28        50     1      106.120628      400.279761    ;  uncertainty theta = 0.000884, k = 0.144727
        29        30        53     1      109.593018      406.073876    ;  uncertainty theta = 0.000997, k = 0.072220
        29        30        54     1      109.593018      406.073876    ;  uncertainty theta = 0.000997, k = 0.072220
        30        29        51     1      108.696632      400.336006    ;  uncertainty theta = 0.001346, k = 0.027503
        30        29        52     1      108.696632      400.336006    ;  uncertainty theta = 0.001346, k = 0.027503
        35        10        36     1      104.257248      312.827994    ;  uncertainty theta = 0.003792, k = 0.040478
        43        25        44     1      107.724464      320.089311    ;  uncertainty theta = 0.001790, k = 0.014894
        43        25        45     1      107.724464      320.089311    ;  uncertainty theta = 0.001790, k = 0.014894
        44        25        45     1      107.724472      320.089279    ;  uncertainty theta = 0.001790, k = 0.014894
        46        26        47     1      105.789261      320.245662    ;  uncertainty theta = 0.000575, k = 0.050973
        48        27        49     1      105.834427      315.106319    ;  uncertainty theta = 0.003044, k = 0.049401
        51        29        52     1      105.834427      315.106319    ;  uncertainty theta = 0.003044, k = 0.049401
        53        30        54     1      105.789261      320.245726    ;  uncertainty theta = 0.000575, k = 0.050973

[ dihedrals ] ; propers for gromacs 4.5 or higher, use funct 9
;       ai        aj        ak        al funct           phase               k        pn
         1         2         6         5     9        0.000000        0.114168         1    ;  uncertainty k = 0.400630
         1         2         6         5     9      180.000000       13.101365         2    ;  uncertainty k = 0.163089
         1         2         6         5     9        0.000000       -1.326856         3    ;  uncertainty k = 0.375426
         1         2         6         5     9      180.000000        0.889699         4    ;  uncertainty k = 0.156444
         1         2         6         7     9        0.000000        0.339866         1    ;  uncertainty k = 0.223773
         1         2         6         7     9      180.000000        8.094599         2    ;  uncertainty k = 0.397018
         1         2         6         7     9        0.000000        0.670707         3    ;  uncertainty k = 0.453456
         1         2         6         7     9      180.000000        1.255989         4    ;  uncertainty k = 0.164517
         1         4         3         5     9        0.000000       -0.018274         1    ;  uncertainty k = 0.156287
         1         4         3         5     9      180.000000       16.566035         2    ;  uncertainty k = 0.261128
         1         4         3         5     9        0.000000       -0.072130         3    ;  uncertainty k = 0.306215
         1         4         3         5     9      180.000000        0.758757         4    ;  uncertainty k = 0.227609
         1         4         3        32     9        0.000000       -0.004646         1    ;  uncertainty k = 0.120224
         1         4         3        32     9      180.000000        9.581368         2    ;  uncertainty k = 0.517756
         1         4         3        32     9        0.000000        1.428143         3    ;  uncertainty k = 0.192157
         1         4         3        32     9      180.000000        1.865139         4    ;  uncertainty k = 0.292971
         1        12        11        26     9        0.000000        3.783560         1    ;  uncertainty k = 1.159413
         1        12        11        26     9      180.000000        8.139211         2    ;  uncertainty k = 0.299082
         1        12        11        26     9        0.000000        1.538543         3    ;  uncertainty k = 0.252381
         1        12        11        26     9      180.000000       -0.043379         4    ;  uncertainty k = 0.109931
         1        12        11        30     9        0.000000        3.783562         1    ;  uncertainty k = 1.159414
         1        12        11        30     9      180.000000        8.139211         2    ;  uncertainty k = 0.299081
         1        12        11        30     9        0.000000        1.538542         3    ;  uncertainty k = 0.252380
         1        12        11        30     9      180.000000       -0.043379         4    ;  uncertainty k = 0.109931
         2         1         4         3     9        0.000000       -0.135770         1    ;  uncertainty k = 0.193077
         2         1         4         3     9      180.000000        9.269598         2    ;  uncertainty k = 0.435835
         2         1         4         3     9        0.000000       -0.415766         3    ;  uncertainty k = 0.454348
         2         1         4         3     9      180.000000        1.143050         4    ;  uncertainty k = 0.231068
         2         1         4        33     9        0.000000        0.084366         1    ;  uncertainty k = 0.401438
         2         1         4        33     9      180.000000        6.616183         2    ;  uncertainty k = 0.386100
         2         1         4        33     9        0.000000        1.168480         3    ;  uncertainty k = 0.248739
         2         1         4        33     9      180.000000        1.578233         4    ;  uncertainty k = 0.192921
         2         1        12        11     9        0.000000        0.093943         1    ;  uncertainty k = 0.646522
         2         1        12        11     9      180.000000        4.426673         2    ;  uncertainty k = 0.266114
         2         1        12        11     9        0.000000        0.156423         3    ;  uncertainty k = 0.208456
         2         1        12        11     9      180.000000        0.208151         4    ;  uncertainty k = 0.037034
         2         1        12        13     9        0.000000       -0.274150         1    ;  uncertainty k = 0.582245
         2         1        12        13     9      180.000000        4.793247         2    ;  uncertainty k = 0.370361
         2         1        12        13     9        0.000000        0.332267         3    ;  uncertainty k = 0.103714
         2         1        12        13     9      180.000000        0.209695         4    ;  uncertainty k = 0.064639
         2         6         5         3     9        0.000000       -0.334447         1    ;  uncertainty k = 0.448091
         2         6         5         3     9      180.000000        7.260189         2    ;  uncertainty k = 0.627599
         2         6         5         3     9        0.000000        0.295747         3    ;  uncertainty k = 0.202959
         2         6         5         3     9      180.000000        0.991299         4    ;  uncertainty k = 0.378039
         2         6         5         9     9        0.000000        0.045320         1    ;  uncertainty k = 0.670361
         2         6         5         9     9      180.000000        8.307582         2    ;  uncertainty k = 0.366123
         2         6         5         9     9        0.000000       -0.117528         3    ;  uncertainty k = 0.458780
         2         6         5         9     9      180.000000        1.238711         4    ;  uncertainty k = 0.350911
         2         6         7         8     9        0.000000        0.805908         1    ;  uncertainty k = 0.453682
         2         6         7         8     9      180.000000        6.308794         2    ;  uncertainty k = 0.277815
         2         6         7         8     9        0.000000        0.222441         3    ;  uncertainty k = 0.744438
         2         6         7         8     9      180.000000        0.843555         4    ;  uncertainty k = 0.117882
         2         6         7        10     9        0.000000       -0.743219         1    ;  uncertainty k = 0.947556
         2         6         7        10     9      180.000000        3.853511         2    ;  uncertainty k = 0.729853
         2         6         7        10     9        0.000000        1.345549         3    ;  uncertainty k = 0.279010
         2         6         7        10     9      180.000000        0.114434         4    ;  uncertainty k = 0.184457
         3         4         1        12     9        0.000000        0.152000         1    ;  uncertainty k = 0.603796
         3         4         1        12     9      180.000000        7.872674         2    ;  uncertainty k = 0.853611
         3         4         1        12     9        0.000000        1.511377         3    ;  uncertainty k = 0.320965
         3         4         1        12     9      180.000000        1.882864         4    ;  uncertainty k = 0.274425
         3         5         6         7     9        0.000000        0.073502         1    ;  uncertainty k = 0.426305
         3         5         6         7     9      180.000000        6.799352         2    ;  uncertainty k = 0.319363
         3         5         6         7     9        0.000000        0.202869         3    ;  uncertainty k = 0.459133
         3         5         6         7     9      180.000000        1.323805         4    ;  uncertainty k = 0.331706
         3         5         9         8     9        0.000000        0.918845         1    ;  uncertainty k = 1.130511
         3         5         9         8     9      180.000000        6.864003         2    ;  uncertainty k = 0.531330
         3         5         9         8     9        0.000000        0.596990         3    ;  uncertainty k = 0.631513
         3         5         9         8     9      180.000000        0.347738         4    ;  uncertainty k = 0.198326
         3         5         9        34     9        0.000000        1.690649         1    ;  uncertainty k = 1.039373
         3         5         9        34     9      180.000000        1.748494         2    ;  uncertainty k = 0.558406
         3         5         9        34     9        0.000000        1.351466         3    ;  uncertainty k = 0.540188
         3         5         9        34     9      180.000000        0.076045         4    ;  uncertainty k = 0.152535
         4         1         2         6     9        0.000000       -0.090295         1    ;  uncertainty k = 0.375437
         4         1         2         6     9      180.000000       12.765709         2    ;  uncertainty k = 0.486933
         4         1         2         6     9        0.000000       -0.068952         3    ;  uncertainty k = 0.410457
         4         1         2         6     9      180.000000        1.050646         4    ;  uncertainty k = 0.393141
         4         1         2        31     9        0.000000        0.172976         1    ;  uncertainty k = 0.295786
         4         1         2        31     9      180.000000        8.001743         2    ;  uncertainty k = 0.401635
         4         1         2        31     9        0.000000        1.313345         3    ;  uncertainty k = 0.310928
         4         1         2        31     9      180.000000        1.711826         4    ;  uncertainty k = 0.215821
         4         1        12        11     9        0.000000        0.341071         1    ;  uncertainty k = 0.484316
         4         1        12        11     9      180.000000        4.482227         2    ;  uncertainty k = 0.120449
         4         1        12        11     9        0.000000        0.270758         3    ;  uncertainty k = 0.130304
         4         1        12        11     9      180.000000        0.234919         4    ;  uncertainty k = 0.077771
         4         1        12        13     9        0.000000       -1.073504         1    ;  uncertainty k = 0.469036
         4         1        12        13     9      180.000000        4.587754         2    ;  uncertainty k = 0.166812
         4         1        12        13     9        0.000000        0.308824         3    ;  uncertainty k = 0.155325
         4         1        12        13     9      180.000000        0.253054         4    ;  uncertainty k = 0.027136
         4         3         5         6     9        0.000000       -0.040968         1    ;  uncertainty k = 0.366106
         4         3         5         6     9      180.000000       12.268127         2    ;  uncertainty k = 0.125087
         4         3         5         6     9        0.000000       -1.467091         3    ;  uncertainty k = 0.487223
         4         3         5         6     9      180.000000        0.780245         4    ;  uncertainty k = 0.232480
         4         3         5         9     9        0.000000        0.093952         1    ;  uncertainty k = 0.364129
         4         3         5         9     9      180.000000       10.200485         2    ;  uncertainty k = 0.714204
         4         3         5         9     9        0.000000        0.739687         3    ;  uncertainty k = 0.237563
         4         3         5         9     9      180.000000        1.157670         4    ;  uncertainty k = 0.279012
         5         3         4        33     9        0.000000       -0.014002         1    ;  uncertainty k = 0.255558
         5         3         4        33     9      180.000000       11.536208         2    ;  uncertainty k = 0.321075
         5         3         4        33     9        0.000000        1.440239         3    ;  uncertainty k = 0.236534
         5         3         4        33     9      180.000000        1.548208         4    ;  uncertainty k = 0.240922
         5         6         2        31     9        0.000000        0.024185         1    ;  uncertainty k = 0.453278
         5         6         2        31     9      180.000000        7.545339         2    ;  uncertainty k = 1.075185
         5         6         2        31     9        0.000000        1.285799         3    ;  uncertainty k = 0.308924
         5         6         2        31     9      180.000000        1.181019         4    ;  uncertainty k = 0.379033
         5         6         7         8     9        0.000000        0.525867         1    ;  uncertainty k = 0.570002
         5         6         7         8     9      180.000000       13.142979         2    ;  uncertainty k = 1.261367
         5         6         7         8     9        0.000000      -10.880303         3    ;  uncertainty k = 2.047409
         5         6         7         8     9      180.000000        2.118586         4    ;  uncertainty k = 0.614720
         5         6         7        10     9        0.000000        1.372304         1    ;  uncertainty k = 1.073250
         5         6         7        10     9      180.000000        8.413549         2    ;  uncertainty k = 0.582072
         5         6         7        10     9        0.000000        1.817713         3    ;  uncertainty k = 0.808144
         5         6         7        10     9      180.000000        0.293226         4    ;  uncertainty k = 0.318186
         5         9         8         7     9        0.000000       -0.732794         1    ;  uncertainty k = 0.954835
         5         9         8         7     9      180.000000       16.926646         2    ;  uncertainty k = 0.598355
         5         9         8         7     9        0.000000       -4.757043         3    ;  uncertainty k = 1.054235
         5         9         8         7     9      180.000000        1.043401         4    ;  uncertainty k = 0.539952
         6         2         1        12     9        0.000000       -0.010708         1    ;  uncertainty k = 0.411347
         6         2         1        12     9      180.000000       11.324415         2    ;  uncertainty k = 0.618869
         6         2         1        12     9        0.000000        1.596098         3    ;  uncertainty k = 0.224625
         6         2         1        12     9      180.000000        1.794482         4    ;  uncertainty k = 0.326946
         6         5         3        32     9        0.000000       -0.083684         1    ;  uncertainty k = 0.463770
         6         5         3        32     9      180.000000        6.593222         2    ;  uncertainty k = 1.123438
         6         5         3        32     9        0.000000        1.279844         3    ;  uncertainty k = 0.172570
         6         5         3        32     9      180.000000        1.081272         4    ;  uncertainty k = 0.497176
         6         5         9         8     9        0.000000        0.166889         1    ;  uncertainty k = 0.510841
         6         5         9         8     9      180.000000       17.332561         2    ;  uncertainty k = 1.048212
         6         5         9         8     9        0.000000       -8.645499         3    ;  uncertainty k = 1.667307
         6         5         9         8     9      180.000000        0.785420         4    ;  uncertainty k = 0.544461
         6         5         9        34     9        0.000000        4.170387         1    ;  uncertainty k = 2.154189
         6         5         9        34     9      180.000000        6.075247         2    ;  uncertainty k = 1.347766
         6         5         9        34     9        0.000000        1.446415         3    ;  uncertainty k = 0.313954
         6         5         9        34     9      180.000000        0.003122         4    ;  uncertainty k = 0.145351
         6         7         8         9     9        0.000000       -0.389726         1    ;  uncertainty k = 0.617898
         6         7         8         9     9      180.000000       24.970804         2    ;  uncertainty k = 0.243830
         6         7         8         9     9        0.000000       -4.374218         3    ;  uncertainty k = 0.967646
         6         7         8         9     9      180.000000        1.989026         4    ;  uncertainty k = 0.343091
         6         7        10        14     9        0.000000       -0.274118         1    ;  uncertainty k = 0.573834
         6         7        10        14     9      180.000000        0.984655         2    ;  uncertainty k = 0.500063
         6         7        10        14     9        0.000000        1.009033         3    ;  uncertainty k = 0.171024
         6         7        10        14     9      180.000000        0.179022         4    ;  uncertainty k = 0.109120
         6         7        10        35     9        0.000000       -1.175856         1    ;  uncertainty k = 0.289262
         6         7        10        35     9      180.000000        1.770809         2    ;  uncertainty k = 0.488944
         6         7        10        35     9        0.000000        0.843233         3    ;  uncertainty k = 0.170446
         6         7        10        35     9      180.000000        0.104870         4    ;  uncertainty k = 0.072089
         6         7        10        36     9        0.000000       -1.175856         1    ;  uncertainty k = 0.289262
         6         7        10        36     9      180.000000        1.770809         2    ;  uncertainty k = 0.488944
         6         7        10        36     9        0.000000        0.843233         3    ;  uncertainty k = 0.170446
         6         7        10        36     9      180.000000        0.104870         4    ;  uncertainty k = 0.072089
         7         6         2        31     9        0.000000       -0.076969         1    ;  uncertainty k = 0.350576
         7         6         2        31     9      180.000000        5.472984         2    ;  uncertainty k = 0.766063
         7         6         2        31     9        0.000000        1.149393         3    ;  uncertainty k = 0.214939
         7         6         2        31     9      180.000000        0.663569         4    ;  uncertainty k = 0.308368
         7         6         5         9     9        0.000000       -0.339482         1    ;  uncertainty k = 0.324768
         7         6         5         9     9      180.000000       12.221432         2    ;  uncertainty k = 0.664962
         7         6         5         9     9        0.000000       -3.638232         3    ;  uncertainty k = 1.596743
         7         6         5         9     9      180.000000        1.622757         4    ;  uncertainty k = 0.572247
         7         8         9        34     9        0.000000        4.144135         1    ;  uncertainty k = 2.338578
         7         8         9        34     9      180.000000       12.929218         2    ;  uncertainty k = 0.107569
         7         8         9        34     9        0.000000        1.684855         3    ;  uncertainty k = 1.042986
         7         8         9        34     9      180.000000       -0.435064         4    ;  uncertainty k = 0.243227
         7        10        14        15     9        0.000000        0.615450         1    ;  uncertainty k = 0.167630
         7        10        14        15     9      180.000000        1.853983         2    ;  uncertainty k = 0.188927
         7        10        14        15     9        0.000000        0.526773         3    ;  uncertainty k = 0.173391
         7        10        14        15     9      180.000000        0.244261         4    ;  uncertainty k = 0.069919
         7        10        14        19     9        0.000000        0.615450         1    ;  uncertainty k = 0.167630
         7        10        14        19     9      180.000000        1.853983         2    ;  uncertainty k = 0.188927
         7        10        14        19     9        0.000000        0.526773         3    ;  uncertainty k = 0.173391
         7        10        14        19     9      180.000000        0.244261         4    ;  uncertainty k = 0.069919
         8         7        10        14     9        0.000000        1.031421         1    ;  uncertainty k = 0.400690
         8         7        10        14     9      180.000000        1.557547         2    ;  uncertainty k = 0.289374
         8         7        10        14     9        0.000000        0.020179         3    ;  uncertainty k = 0.160875
         8         7        10        14     9      180.000000        0.136006         4    ;  uncertainty k = 0.098308
         8         7        10        35     9        0.000000        1.780982         1    ;  uncertainty k = 0.113031
         8         7        10        35     9      180.000000        2.205549         2    ;  uncertainty k = 0.265227
         8         7        10        35     9        0.000000        0.158854         3    ;  uncertainty k = 0.096052
         8         7        10        35     9      180.000000        0.111225         4    ;  uncertainty k = 0.047919
         8         7        10        36     9        0.000000        1.780982         1    ;  uncertainty k = 0.113031
         8         7        10        36     9      180.000000        2.205549         2    ;  uncertainty k = 0.265227
         8         7        10        36     9        0.000000        0.158854         3    ;  uncertainty k = 0.096052
         8         7        10        36     9      180.000000        0.111225         4    ;  uncertainty k = 0.047919
         9         5         3        32     9        0.000000        0.443818         1    ;  uncertainty k = 0.416412
         9         5         3        32     9      180.000000        5.644180         2    ;  uncertainty k = 0.843734
         9         5         3        32     9        0.000000        1.135891         3    ;  uncertainty k = 0.131199
         9         5         3        32     9      180.000000        0.743710         4    ;  uncertainty k = 0.339048
         9         8         7        10     9        0.000000       -0.553410         1    ;  uncertainty k = 0.837657
         9         8         7        10     9      180.000000       25.077413         2    ;  uncertainty k = 0.175016
         9         8         7        10     9        0.000000        2.419201         3    ;  uncertainty k = 0.621653
         9         8         7        10     9      180.000000        1.110046         4    ;  uncertainty k = 0.279838
        10        14        15        16     9        0.000000        0.169204         1    ;  uncertainty k = 0.242807
        10        14        15        16     9      180.000000        8.593729         2    ;  uncertainty k = 0.401443
        10        14        15        16     9        0.000000        1.459163         3    ;  uncertainty k = 0.363057
        10        14        15        16     9      180.000000        1.890470         4    ;  uncertainty k = 0.111180
        10        14        15        37     9        0.000000       -0.145242         1    ;  uncertainty k = 0.181744
        10        14        15        37     9      180.000000        7.615666         2    ;  uncertainty k = 0.278473
        10        14        15        37     9        0.000000        0.580734         3    ;  uncertainty k = 0.342497
        10        14        15        37     9      180.000000        0.989521         4    ;  uncertainty k = 0.234579
        10        14        19        18     9        0.000000        0.169204         1    ;  uncertainty k = 0.242807
        10        14        19        18     9      180.000000        8.593729         2    ;  uncertainty k = 0.401443
        10        14        19        18     9        0.000000        1.459163         3    ;  uncertainty k = 0.363057
        10        14        19        18     9      180.000000        1.890470         4    ;  uncertainty k = 0.111180
        10        14        19        40     9        0.000000       -0.145242         1    ;  uncertainty k = 0.181744
        10        14        19        40     9      180.000000        7.615666         2    ;  uncertainty k = 0.278473
        10        14        19        40     9        0.000000        0.580734         3    ;  uncertainty k = 0.342497
        10        14        19        40     9      180.000000        0.989521         4    ;  uncertainty k = 0.234579
        11        26        27        28     9        0.000000        4.247417         1    ;  uncertainty k = 1.655170
        11        26        27        28     9      180.000000       -6.192805         2    ;  uncertainty k = 0.833509
        11        26        27        28     9        0.000000        3.142329         3    ;  uncertainty k = 0.652353
        11        26        27        28     9      180.000000       -0.003679         4    ;  uncertainty k = 0.356747
        11        26        27        48     9        0.000000        4.541417         1    ;  uncertainty k = 0.166220
        11        26        27        48     9      180.000000       -4.113061         2    ;  uncertainty k = 0.791146
        11        26        27        48     9        0.000000        0.201097         3    ;  uncertainty k = 0.133946
        11        26        27        48     9      180.000000        0.441736         4    ;  uncertainty k = 0.246923
        11        26        27        49     9        0.000000        4.541417         1    ;  uncertainty k = 0.166220
        11        26        27        49     9      180.000000       -4.113061         2    ;  uncertainty k = 0.791146
        11        26        27        49     9        0.000000        0.201097         3    ;  uncertainty k = 0.133946
        11        26        27        49     9      180.000000        0.441736         4    ;  uncertainty k = 0.246923
        11        30        29        28     9        0.000000        4.247414         1    ;  uncertainty k = 1.655169
        11        30        29        28     9      180.000000       -6.192806         2    ;  uncertainty k = 0.833507
        11        30        29        28     9        0.000000        3.142329         3    ;  uncertainty k = 0.652354
        11        30        29        28     9      180.000000       -0.003679         4    ;  uncertainty k = 0.356748
        11        30        29        51     9        0.000000        4.541419         1    ;  uncertainty k = 0.166221
        11        30        29        51     9      180.000000       -4.113061         2    ;  uncertainty k = 0.791151
        11        30        29        51     9        0.000000        0.201097         3    ;  uncertainty k = 0.133947
        11        30        29        51     9      180.000000        0.441736         4    ;  uncertainty k = 0.246923
        11        30        29        52     9        0.000000        4.541419         1    ;  uncertainty k = 0.166221
        11        30        29        52     9      180.000000       -4.113061         2    ;  uncertainty k = 0.791151
        11        30        29        52     9        0.000000        0.201097         3    ;  uncertainty k = 0.133947
        11        30        29        52     9      180.000000        0.441736         4    ;  uncertainty k = 0.246923
        12         1         2        31     9        0.000000       -0.141899         1    ;  uncertainty k = 0.427293
        12         1         2        31     9      180.000000        8.348430         2    ;  uncertainty k = 0.327131
        12         1         2        31     9        0.000000        1.029484         3    ;  uncertainty k = 0.245757
        12         1         2        31     9      180.000000        1.227946         4    ;  uncertainty k = 0.301634
        12         1         4        33     9        0.000000       -0.092182         1    ;  uncertainty k = 0.353947
        12         1         4        33     9      180.000000        7.644257         2    ;  uncertainty k = 0.304472
        12         1         4        33     9        0.000000        0.951508         3    ;  uncertainty k = 0.316512
        12         1         4        33     9      180.000000        1.058110         4    ;  uncertainty k = 0.280932
        12        11        26        27     9        0.000000        0.185129         1    ;  uncertainty k = 0.762286
        12        11        26        27     9      180.000000        0.126125         2    ;  uncertainty k = 0.183019
        12        11        26        27     9        0.000000       -0.276738         3    ;  uncertainty k = 0.160220
        12        11        26        27     9      180.000000        0.204878         4    ;  uncertainty k = 0.049750
        12        11        26        46     9        0.000000        1.359929         1    ;  uncertainty k = 0.383639
        12        11        26        46     9      180.000000       -0.275201         2    ;  uncertainty k = 0.116588
        12        11        26        46     9        0.000000        0.076180         3    ;  uncertainty k = 0.064905
        12        11        26        46     9      180.000000        0.192635         4    ;  uncertainty k = 0.057541
        12        11        26        47     9        0.000000        1.359929         1    ;  uncertainty k = 0.383639
        12        11        26        47     9      180.000000       -0.275201         2    ;  uncertainty k = 0.116588
        12        11        26        47     9        0.000000        0.076180         3    ;  uncertainty k = 0.064905
        12        11        26        47     9      180.000000        0.192635         4    ;  uncertainty k = 0.057541
        12        11        30        29     9        0.000000        0.185130         1    ;  uncertainty k = 0.762283
        12        11        30        29     9      180.000000        0.126125         2    ;  uncertainty k = 0.183019
        12        11        30        29     9        0.000000       -0.276738         3    ;  uncertainty k = 0.160220
        12        11        30        29     9      180.000000        0.204878         4    ;  uncertainty k = 0.049750
        12        11        30        53     9        0.000000        1.359930         1    ;  uncertainty k = 0.383638
        12        11        30        53     9      180.000000       -0.275202         2    ;  uncertainty k = 0.116588
        12        11        30        53     9        0.000000        0.076179         3    ;  uncertainty k = 0.064905
        12        11        30        53     9      180.000000        0.192634         4    ;  uncertainty k = 0.057541
        12        11        30        54     9        0.000000        1.359930         1    ;  uncertainty k = 0.383638
        12        11        30        54     9      180.000000       -0.275202         2    ;  uncertainty k = 0.116588
        12        11        30        54     9        0.000000        0.076179         3    ;  uncertainty k = 0.064905
        12        11        30        54     9      180.000000        0.192634         4    ;  uncertainty k = 0.057541
        13        12        11        26     9        0.000000        4.091439         1    ;  uncertainty k = 0.903165
        13        12        11        26     9      180.000000       16.326029         2    ;  uncertainty k = 0.082102
        13        12        11        26     9        0.000000        0.391116         3    ;  uncertainty k = 0.312160
        13        12        11        26     9      180.000000       -0.651565         4    ;  uncertainty k = 0.107412
        13        12        11        30     9        0.000000        4.091437         1    ;  uncertainty k = 0.903165
        13        12        11        30     9      180.000000       16.326032         2    ;  uncertainty k = 0.082103
        13        12        11        30     9        0.000000        0.391116         3    ;  uncertainty k = 0.312160
        13        12        11        30     9      180.000000       -0.651565         4    ;  uncertainty k = 0.107413
        14        15        16        17     9        0.000000       -0.087057         1    ;  uncertainty k = 0.154901
        14        15        16        17     9      180.000000       13.600436         2    ;  uncertainty k = 0.230971
        14        15        16        17     9        0.000000       -0.751784         3    ;  uncertainty k = 0.436421
        14        15        16        17     9      180.000000        0.777514         4    ;  uncertainty k = 0.245178
        14        15        16        38     9        0.000000        0.010829         1    ;  uncertainty k = 0.163132
        14        15        16        38     9      180.000000        7.805433         2    ;  uncertainty k = 0.422071
        14        15        16        38     9        0.000000        1.391790         3    ;  uncertainty k = 0.234314
        14        15        16        38     9      180.000000        1.880931         4    ;  uncertainty k = 0.189420
        14        19        18        17     9        0.000000       -0.087057         1    ;  uncertainty k = 0.154901
        14        19        18        17     9      180.000000       13.600436         2    ;  uncertainty k = 0.230971
        14        19        18        17     9        0.000000       -0.751784         3    ;  uncertainty k = 0.436421
        14        19        18        17     9      180.000000        0.777514         4    ;  uncertainty k = 0.245178
        14        19        18        39     9        0.000000        0.010829         1    ;  uncertainty k = 0.163132
        14        19        18        39     9      180.000000        7.805433         2    ;  uncertainty k = 0.422071
        14        19        18        39     9        0.000000        1.391790         3    ;  uncertainty k = 0.234314
        14        19        18        39     9      180.000000        1.880931         4    ;  uncertainty k = 0.189420
        15        14        10        35     9        0.000000       -0.300138         1    ;  uncertainty k = 0.153189
        15        14        10        35     9      180.000000        1.928373         2    ;  uncertainty k = 0.130920
        15        14        10        35     9        0.000000        0.360376         3    ;  uncertainty k = 0.118491
        15        14        10        35     9      180.000000        0.117080         4    ;  uncertainty k = 0.032968
        15        14        10        36     9        0.000000       -0.300138         1    ;  uncertainty k = 0.153189
        15        14        10        36     9      180.000000        1.928373         2    ;  uncertainty k = 0.130920
        15        14        10        36     9        0.000000        0.360376         3    ;  uncertainty k = 0.118491
        15        14        10        36     9      180.000000        0.117080         4    ;  uncertainty k = 0.032968
        15        14        19        18     9        0.000000       -0.141019         1    ;  uncertainty k = 0.190132
        15        14        19        18     9      180.000000       11.565169         2    ;  uncertainty k = 0.450751
        15        14        19        18     9        0.000000       -0.482803         3    ;  uncertainty k = 0.323947
        15        14        19        18     9      180.000000        0.820385         4    ;  uncertainty k = 0.428180
        15        14        19        40     9        0.000000        0.161510         1    ;  uncertainty k = 0.189285
        15        14        19        40     9      180.000000        7.143530         2    ;  uncertainty k = 0.548274
        15        14        19        40     9        0.000000        1.383620         3    ;  uncertainty k = 0.306740
        15        14        19        40     9      180.000000        1.646182         4    ;  uncertainty k = 0.144812
        15        16        17        18     9        0.000000        0.099530         1    ;  uncertainty k = 0.198850
        15        16        17        18     9      180.000000       10.864272         2    ;  uncertainty k = 0.250101
        15        16        17        18     9        0.000000       -0.460426         3    ;  uncertainty k = 0.291547
        15        16        17        18     9      180.000000        0.910602         4    ;  uncertainty k = 0.279798
        15        16        17        20     9        0.000000       -0.069350         1    ;  uncertainty k = 0.292775
        15        16        17        20     9      180.000000        8.942093         2    ;  uncertainty k = 0.563576
        15        16        17        20     9        0.000000        1.225126         3    ;  uncertainty k = 0.296630
        15        16        17        20     9      180.000000        1.608135         4    ;  uncertainty k = 0.239057
        16        15        14        19     9        0.000000       -0.141019         1    ;  uncertainty k = 0.190132
        16        15        14        19     9      180.000000       11.565169         2    ;  uncertainty k = 0.450751
        16        15        14        19     9        0.000000       -0.482803         3    ;  uncertainty k = 0.323947
        16        15        14        19     9      180.000000        0.820385         4    ;  uncertainty k = 0.428180
        16        17        18        19     9        0.000000        0.099530         1    ;  uncertainty k = 0.198850
        16        17        18        19     9      180.000000       10.864272         2    ;  uncertainty k = 0.250101
        16        17        18        19     9        0.000000       -0.460426         3    ;  uncertainty k = 0.291547
        16        17        18        19     9      180.000000        0.910602         4    ;  uncertainty k = 0.279798
        16        17        18        39     9        0.000000        0.071629         1    ;  uncertainty k = 0.210521
        16        17        18        39     9      180.000000        6.731320         2    ;  uncertainty k = 0.652358
        16        17        18        39     9        0.000000        1.402558         3    ;  uncertainty k = 0.275743
        16        17        18        39     9      180.000000        1.629461         4    ;  uncertainty k = 0.263941
        16        17        20        21     9        0.000000        0.364742         1    ;  uncertainty k = 0.617618
        16        17        20        21     9      180.000000        2.957626         2    ;  uncertainty k = 0.176252
        16        17        20        21     9        0.000000        0.337574         3    ;  uncertainty k = 0.277333
        16        17        20        21     9      180.000000       -0.075996         4    ;  uncertainty k = 0.052358
        16        17        20        24     9        0.000000        0.212085         1    ;  uncertainty k = 0.583246
        16        17        20        24     9      180.000000        2.756721         2    ;  uncertainty k = 0.102989
        16        17        20        24     9        0.000000        0.399155         3    ;  uncertainty k = 0.207054
        16        17        20        24     9      180.000000       -0.145894         4    ;  uncertainty k = 0.054997
        17        16        15        37     9        0.000000        0.051679         1    ;  uncertainty k = 0.047053
        17        16        15        37     9      180.000000        8.110356         2    ;  uncertainty k = 0.308213
        17        16        15        37     9        0.000000        1.348836         3    ;  uncertainty k = 0.262064
        17        16        15        37     9      180.000000        1.847919         4    ;  uncertainty k = 0.146536
        17        18        19        40     9        0.000000        0.051679         1    ;  uncertainty k = 0.047053
        17        18        19        40     9      180.000000        8.110356         2    ;  uncertainty k = 0.308213
        17        18        19        40     9        0.000000        1.348836         3    ;  uncertainty k = 0.262064
        17        18        19        40     9      180.000000        1.847919         4    ;  uncertainty k = 0.146536
        17        20        21        22     9        0.000000        0.730829         1    ;  uncertainty k = 0.745969
        17        20        21        22     9      180.000000       14.124868         2    ;  uncertainty k = 0.381349
        17        20        21        22     9        0.000000        1.366411         3    ;  uncertainty k = 0.224812
        17        20        21        22     9      180.000000        0.828718         4    ;  uncertainty k = 0.243932
        17        20        21        41     9        0.000000        0.487086         1    ;  uncertainty k = 0.482659
        17        20        21        41     9      180.000000        6.408018         2    ;  uncertainty k = 0.855931
        17        20        21        41     9        0.000000        1.305884         3    ;  uncertainty k = 0.462347
        17        20        21        41     9      180.000000        0.400447         4    ;  uncertainty k = 0.122562
        17        20        24        23     9        0.000000        0.856900         1    ;  uncertainty k = 1.194888
        17        20        24        23     9      180.000000       12.441670         2    ;  uncertainty k = 0.564932
        17        20        24        23     9        0.000000        1.830358         3    ;  uncertainty k = 0.514365
        17        20        24        23     9      180.000000        0.550073         4    ;  uncertainty k = 0.201764
        17        20        24        42     9        0.000000        0.304653         1    ;  uncertainty k = 0.808439
        17        20        24        42     9      180.000000        5.213596         2    ;  uncertainty k = 0.592555
        17        20        24        42     9        0.000000        1.354869         3    ;  uncertainty k = 0.262334
        17        20        24        42     9      180.000000        0.295532         4    ;  uncertainty k = 0.033191
        18        17        16        38     9        0.000000        0.071629         1    ;  uncertainty k = 0.210521
        18        17        16        38     9      180.000000        6.731320         2    ;  uncertainty k = 0.652358
        18        17        16        38     9        0.000000        1.402558         3    ;  uncertainty k = 0.275743
        18        17        16        38     9      180.000000        1.629461         4    ;  uncertainty k = 0.263941
        18        17        20        21     9        0.000000        0.364742         1    ;  uncertainty k = 0.617618
        18        17        20        21     9      180.000000        2.957626         2    ;  uncertainty k = 0.176252
        18        17        20        21     9        0.000000        0.337574         3    ;  uncertainty k = 0.277333
        18        17        20        21     9      180.000000       -0.075996         4    ;  uncertainty k = 0.052358
        18        17        20        24     9        0.000000        0.212085         1    ;  uncertainty k = 0.583246
        18        17        20        24     9      180.000000        2.756721         2    ;  uncertainty k = 0.102989
        18        17        20        24     9        0.000000        0.399155         3    ;  uncertainty k = 0.207054
        18        17        20        24     9      180.000000       -0.145894         4    ;  uncertainty k = 0.054997
        19        14        10        35     9        0.000000       -0.300138         1    ;  uncertainty k = 0.153189
        19        14        10        35     9      180.000000        1.928373         2    ;  uncertainty k = 0.130920
        19        14        10        35     9        0.000000        0.360376         3    ;  uncertainty k = 0.118491
        19        14        10        35     9      180.000000        0.117080         4    ;  uncertainty k = 0.032968
        19        14        10        36     9        0.000000       -0.300138         1    ;  uncertainty k = 0.153189
        19        14        10        36     9      180.000000        1.928373         2    ;  uncertainty k = 0.130920
        19        14        10        36     9        0.000000        0.360376         3    ;  uncertainty k = 0.118491
        19        14        10        36     9      180.000000        0.117080         4    ;  uncertainty k = 0.032968
        19        14        15        37     9        0.000000        0.161510         1    ;  uncertainty k = 0.189285
        19        14        15        37     9      180.000000        7.143530         2    ;  uncertainty k = 0.548274
        19        14        15        37     9        0.000000        1.383620         3    ;  uncertainty k = 0.306740
        19        14        15        37     9      180.000000        1.646182         4    ;  uncertainty k = 0.144812
        19        18        17        20     9        0.000000       -0.069350         1    ;  uncertainty k = 0.292775
        19        18        17        20     9      180.000000        8.942093         2    ;  uncertainty k = 0.563576
        19        18        17        20     9        0.000000        1.225126         3    ;  uncertainty k = 0.296630
        19        18        17        20     9      180.000000        1.608135         4    ;  uncertainty k = 0.239057
        20        17        16        38     9        0.000000       -0.274120         1    ;  uncertainty k = 0.256075
        20        17        16        38     9      180.000000        6.927144         2    ;  uncertainty k = 0.360004
        20        17        16        38     9        0.000000        0.845886         3    ;  uncertainty k = 0.114326
        20        17        16        38     9      180.000000        1.148769         4    ;  uncertainty k = 0.209269
        20        17        18        39     9        0.000000       -0.274120         1    ;  uncertainty k = 0.256075
        20        17        18        39     9      180.000000        6.927144         2    ;  uncertainty k = 0.360004
        20        17        18        39     9        0.000000        0.845886         3    ;  uncertainty k = 0.114326
        20        17        18        39     9      180.000000        1.148769         4    ;  uncertainty k = 0.209269
        20        21        22        23     9        0.000000       -0.316526         1    ;  uncertainty k = 1.047711
        20        21        22        23     9      180.000000       17.284046         2    ;  uncertainty k = 0.688330
        20        21        22        23     9        0.000000       -9.057288         3    ;  uncertainty k = 0.901701
        20        21        22        23     9      180.000000        1.215837         4    ;  uncertainty k = 0.532722
        20        21        22        25     9        0.000000        1.392889         1    ;  uncertainty k = 1.290774
        20        21        22        25     9      180.000000        9.638848         2    ;  uncertainty k = 0.368010
        20        21        22        25     9        0.000000        1.944195         3    ;  uncertainty k = 0.374373
        20        21        22        25     9      180.000000       -0.106447         4    ;  uncertainty k = 0.068874
        20        24        23        22     9        0.000000       -0.058010         1    ;  uncertainty k = 0.625462
        20        24        23        22     9      180.000000       24.452638         2    ;  uncertainty k = 0.460560
        20        24        23        22     9        0.000000       -7.646340         3    ;  uncertainty k = 0.486543
        20        24        23        22     9      180.000000        2.227719         4    ;  uncertainty k = 0.719303
        21        20        24        23     9        0.000000       -0.355455         1    ;  uncertainty k = 0.508595
        21        20        24        23     9      180.000000       15.046675         2    ;  uncertainty k = 1.070272
        21        20        24        23     9        0.000000       -9.005960         3    ;  uncertainty k = 0.840801
        21        20        24        23     9      180.000000        1.826438         4    ;  uncertainty k = 0.522282
        21        20        24        42     9        0.000000       -0.031464         1    ;  uncertainty k = 0.354506
        21        20        24        42     9      180.000000        8.072054         2    ;  uncertainty k = 0.597935
        21        20        24        42     9        0.000000        1.249978         3    ;  uncertainty k = 0.335798
        21        20        24        42     9      180.000000        0.512738         4    ;  uncertainty k = 0.162738
        21        22        23        24     9        0.000000       -0.225287         1    ;  uncertainty k = 0.828367
        21        22        23        24     9      180.000000       16.689018         2    ;  uncertainty k = 0.422253
        21        22        23        24     9        0.000000       -7.488213         3    ;  uncertainty k = 1.300321
        21        22        23        24     9      180.000000        1.602126         4    ;  uncertainty k = 0.425607
        21        22        25        43     9        0.000000       -0.009533         1    ;  uncertainty k = 0.351891
        21        22        25        43     9      180.000000       -1.118668         2    ;  uncertainty k = 0.175719
        21        22        25        43     9        0.000000        0.788902         3    ;  uncertainty k = 0.017444
        21        22        25        43     9      180.000000        0.208637         4    ;  uncertainty k = 0.050244
        21        22        25        44     9        0.000000       -0.009533         1    ;  uncertainty k = 0.351891
        21        22        25        44     9      180.000000       -1.118668         2    ;  uncertainty k = 0.175719
        21        22        25        44     9        0.000000        0.788902         3    ;  uncertainty k = 0.017444
        21        22        25        44     9      180.000000        0.208637         4    ;  uncertainty k = 0.050244
        21        22        25        45     9        0.000000       -0.009533         1    ;  uncertainty k = 0.351891
        21        22        25        45     9      180.000000       -1.118668         2    ;  uncertainty k = 0.175719
        21        22        25        45     9        0.000000        0.788902         3    ;  uncertainty k = 0.017444
        21        22        25        45     9      180.000000        0.208637         4    ;  uncertainty k = 0.050244
        22        21        20        24     9        0.000000        0.138355         1    ;  uncertainty k = 0.250165
        22        21        20        24     9      180.000000       18.966874         2    ;  uncertainty k = 0.230930
        22        21        20        24     9        0.000000       -9.822058         3    ;  uncertainty k = 0.542344
        22        21        20        24     9      180.000000        1.616629         4    ;  uncertainty k = 0.658377
        22        23        24        42     9        0.000000        0.455448         1    ;  uncertainty k = 0.742365
        22        23        24        42     9      180.000000       22.168886         2    ;  uncertainty k = 0.393002
        22        23        24        42     9        0.000000        1.308522         3    ;  uncertainty k = 0.565188
        22        23        24        42     9      180.000000        1.249378         4    ;  uncertainty k = 0.583038
        23        22        21        41     9        0.000000        0.954944         1    ;  uncertainty k = 0.636276
        23        22        21        41     9      180.000000       11.894606         2    ;  uncertainty k = 0.460933
        23        22        21        41     9        0.000000        1.730548         3    ;  uncertainty k = 0.518861
        23        22        21        41     9      180.000000        0.048447         4    ;  uncertainty k = 0.167333
        23        22        25        43     9        0.000000        1.398760         1    ;  uncertainty k = 0.579544
        23        22        25        43     9      180.000000       -1.134020         2    ;  uncertainty k = 0.131941
        23        22        25        43     9        0.000000        0.742560         3    ;  uncertainty k = 0.044341
        23        22        25        43     9      180.000000        0.251257         4    ;  uncertainty k = 0.037756
        23        22        25        44     9        0.000000        1.398760         1    ;  uncertainty k = 0.579544
        23        22        25        44     9      180.000000       -1.134020         2    ;  uncertainty k = 0.131941
        23        22        25        44     9        0.000000        0.742560         3    ;  uncertainty k = 0.044341
        23        22        25        44     9      180.000000        0.251257         4    ;  uncertainty k = 0.037756
        23        22        25        45     9        0.000000        1.398760         1    ;  uncertainty k = 0.579544
        23        22        25        45     9      180.000000       -1.134020         2    ;  uncertainty k = 0.131941
        23        22        25        45     9        0.000000        0.742560         3    ;  uncertainty k = 0.044341
        23        22        25        45     9      180.000000        0.251257         4    ;  uncertainty k = 0.037756
        24        20        21        41     9        0.000000        0.015437         1    ;  uncertainty k = 0.258046
        24        20        21        41     9      180.000000       10.338563         2    ;  uncertainty k = 0.277932
        24        20        21        41     9        0.000000        1.639008         3    ;  uncertainty k = 0.357903
        24        20        21        41     9      180.000000        0.594000         4    ;  uncertainty k = 0.198130
        24        23        22        25     9        0.000000        0.933315         1    ;  uncertainty k = 1.275516
        24        23        22        25     9      180.000000       13.272692         2    ;  uncertainty k = 0.326665
        24        23        22        25     9        0.000000        1.823279         3    ;  uncertainty k = 0.443014
        24        23        22        25     9      180.000000       -0.164134         4    ;  uncertainty k = 0.298893
        25        22        21        41     9        0.000000       -0.476541         1    ;  uncertainty k = 0.254768
        25        22        21        41     9      180.000000        3.142291         2    ;  uncertainty k = 0.652802
        25        22        21        41     9        0.000000        1.097292         3    ;  uncertainty k = 0.480723
        25        22        21        41     9      180.000000        0.022420         4    ;  uncertainty k = 0.193416
        26        11        30        29     9        0.000000       -5.458544         1    ;  uncertainty k = 1.561811
        26        11        30        29     9      180.000000        0.317497         2    ;  uncertainty k = 0.136659
        26        11        30        29     9        0.000000        1.502736         3    ;  uncertainty k = 0.341948
        26        11        30        29     9      180.000000       -0.460368         4    ;  uncertainty k = 0.261375
        26        11        30        53     9        0.000000       -5.410555         1    ;  uncertainty k = 0.915876
        26        11        30        53     9      180.000000        1.124416         2    ;  uncertainty k = 0.266228
        26        11        30        53     9        0.000000        1.063776         3    ;  uncertainty k = 0.059855
        26        11        30        53     9      180.000000       -0.261089         4    ;  uncertainty k = 0.204498
        26        11        30        54     9        0.000000       -5.410555         1    ;  uncertainty k = 0.915876
        26        11        30        54     9      180.000000        1.124416         2    ;  uncertainty k = 0.266228
        26        11        30        54     9        0.000000        1.063776         3    ;  uncertainty k = 0.059855
        26        11        30        54     9      180.000000       -0.261089         4    ;  uncertainty k = 0.204498
        26        27        28        29     9        0.000000       -5.945756         1    ;  uncertainty k = 1.751259
        26        27        28        29     9      180.000000       -1.762206         2    ;  uncertainty k = 0.933075
        26        27        28        29     9        0.000000        1.837085         3    ;  uncertainty k = 0.471018
        26        27        28        29     9      180.000000       -0.863834         4    ;  uncertainty k = 0.412685
        26        27        28        50     9        0.000000        7.030663         1    ;  uncertainty k = 0.498518
        26        27        28        50     9      180.000000       -5.507616         2    ;  uncertainty k = 0.266244
        26        27        28        50     9        0.000000        0.741212         3    ;  uncertainty k = 0.342404
        26        27        28        50     9      180.000000        0.527685         4    ;  uncertainty k = 0.203153
        27        26        11        30     9        0.000000       -5.458544         1    ;  uncertainty k = 1.561811
        27        26        11        30     9      180.000000        0.317498         2    ;  uncertainty k = 0.136659
        27        26        11        30     9        0.000000        1.502736         3    ;  uncertainty k = 0.341947
        27        26        11        30     9      180.000000       -0.460368         4    ;  uncertainty k = 0.261375
        27        28        29        30     9        0.000000       -5.945756         1    ;  uncertainty k = 1.751261
        27        28        29        30     9      180.000000       -1.762205         2    ;  uncertainty k = 0.933076
        27        28        29        30     9        0.000000        1.837085         3    ;  uncertainty k = 0.471018
        27        28        29        30     9      180.000000       -0.863834         4    ;  uncertainty k = 0.412685
        27        28        29        51     9        0.000000       -5.956412         1    ;  uncertainty k = 0.548324
        27        28        29        51     9      180.000000       -0.850206         2    ;  uncertainty k = 0.492768
        27        28        29        51     9        0.000000        1.057542         3    ;  uncertainty k = 0.174545
        27        28        29        51     9      180.000000        0.120639         4    ;  uncertainty k = 0.117979
        27        28        29        52     9        0.000000       -5.956412         1    ;  uncertainty k = 0.548324
        27        28        29        52     9      180.000000       -0.850206         2    ;  uncertainty k = 0.492768
        27        28        29        52     9        0.000000        1.057542         3    ;  uncertainty k = 0.174545
        27        28        29        52     9      180.000000        0.120639         4    ;  uncertainty k = 0.117979
        28        27        26        46     9        0.000000        1.203225         1    ;  uncertainty k = 0.592774
        28        27        26        46     9      180.000000       -0.914022         2    ;  uncertainty k = 0.418241
        28        27        26        46     9        0.000000        0.704206         3    ;  uncertainty k = 0.194176
        28        27        26        46     9      180.000000        0.168962         4    ;  uncertainty k = 0.246820
        28        27        26        47     9        0.000000        1.203225         1    ;  uncertainty k = 0.592774
        28        27        26        47     9      180.000000       -0.914022         2    ;  uncertainty k = 0.418241
        28        27        26        47     9        0.000000        0.704206         3    ;  uncertainty k = 0.194176
        28        27        26        47     9      180.000000        0.168962         4    ;  uncertainty k = 0.246820
        28        29        30        53     9        0.000000        1.203224         1    ;  uncertainty k = 0.592773
        28        29        30        53     9      180.000000       -0.914023         2    ;  uncertainty k = 0.418242
        28        29        30        53     9        0.000000        0.704206         3    ;  uncertainty k = 0.194176
        28        29        30        53     9      180.000000        0.168962         4    ;  uncertainty k = 0.246820
        28        29        30        54     9        0.000000        1.203224         1    ;  uncertainty k = 0.592773
        28        29        30        54     9      180.000000       -0.914023         2    ;  uncertainty k = 0.418242
        28        29        30        54     9        0.000000        0.704206         3    ;  uncertainty k = 0.194176
        28        29        30        54     9      180.000000        0.168962         4    ;  uncertainty k = 0.246820
        29        28        27        48     9        0.000000       -5.956413         1    ;  uncertainty k = 0.548327
        29        28        27        48     9      180.000000       -0.850206         2    ;  uncertainty k = 0.492769
        29        28        27        48     9        0.000000        1.057542         3    ;  uncertainty k = 0.174545
        29        28        27        48     9      180.000000        0.120639         4    ;  uncertainty k = 0.117979
        29        28        27        49     9        0.000000       -5.956413         1    ;  uncertainty k = 0.548327
        29        28        27        49     9      180.000000       -0.850206         2    ;  uncertainty k = 0.492769
        29        28        27        49     9        0.000000        1.057542         3    ;  uncertainty k = 0.174545
        29        28        27        49     9      180.000000        0.120639         4    ;  uncertainty k = 0.117979
        30        11        26        46     9        0.000000       -5.410552         1    ;  uncertainty k = 0.915875
        30        11        26        46     9      180.000000        1.124415         2    ;  uncertainty k = 0.266229
        30        11        26        46     9        0.000000        1.063775         3    ;  uncertainty k = 0.059856
        30        11        26        46     9      180.000000       -0.261088         4    ;  uncertainty k = 0.204497
        30        11        26        47     9        0.000000       -5.410552         1    ;  uncertainty k = 0.915875
        30        11        26        47     9      180.000000        1.124415         2    ;  uncertainty k = 0.266229
        30        11        26        47     9        0.000000        1.063775         3    ;  uncertainty k = 0.059856
        30        11        26        47     9      180.000000       -0.261088         4    ;  uncertainty k = 0.204497
        30        29        28        50     9        0.000000        7.030663         1    ;  uncertainty k = 0.498518
        30        29        28        50     9      180.000000       -5.507615         2    ;  uncertainty k = 0.266245
        30        29        28        50     9        0.000000        0.741212         3    ;  uncertainty k = 0.342403
        30        29        28        50     9      180.000000        0.527685         4    ;  uncertainty k = 0.203153
        32         3         4        33     9        0.000000       -0.057261         1    ;  uncertainty k = 0.402347
        32         3         4        33     9      180.000000        8.099804         2    ;  uncertainty k = 0.269278
        32         3         4        33     9        0.000000       -0.193117         3    ;  uncertainty k = 0.235838
        32         3         4        33     9      180.000000        0.252845         4    ;  uncertainty k = 0.187973
        37        15        16        38     9        0.000000       -0.105048         1    ;  uncertainty k = 0.079024
        37        15        16        38     9      180.000000        7.802567         2    ;  uncertainty k = 0.370707
        37        15        16        38     9        0.000000       -0.520984         3    ;  uncertainty k = 0.249529
        37        15        16        38     9      180.000000        0.209880         4    ;  uncertainty k = 0.188642
        39        18        19        40     9        0.000000       -0.105048         1    ;  uncertainty k = 0.079024
        39        18        19        40     9      180.000000        7.802567         2    ;  uncertainty k = 0.370707
        39        18        19        40     9        0.000000       -0.520984         3    ;  uncertainty k = 0.249529
        39        18        19        40     9      180.000000        0.209880         4    ;  uncertainty k = 0.188642
        46        26        27        48     9        0.000000       -2.100458         1    ;  uncertainty k = 1.188547
        46        26        27        48     9      180.000000        1.204276         2    ;  uncertainty k = 0.644393
        46        26        27        48     9        0.000000       -0.041585         3    ;  uncertainty k = 0.103087
        46        26        27        48     9      180.000000       -0.675011         4    ;  uncertainty k = 0.129824
        46        26        27        49     9        0.000000       -2.100458         1    ;  uncertainty k = 1.188547
        46        26        27        49     9      180.000000        1.204276         2    ;  uncertainty k = 0.644393
        46        26        27        49     9        0.000000       -0.041585         3    ;  uncertainty k = 0.103087
        46        26        27        49     9      180.000000       -0.675011         4    ;  uncertainty k = 0.129824
        47        26        27        48     9        0.000000       -2.100458         1    ;  uncertainty k = 1.188547
        47        26        27        48     9      180.000000        1.204276         2    ;  uncertainty k = 0.644393
        47        26        27        48     9        0.000000       -0.041585         3    ;  uncertainty k = 0.103087
        47        26        27        48     9      180.000000       -0.675011         4    ;  uncertainty k = 0.129824
        47        26        27        49     9        0.000000       -2.100458         1    ;  uncertainty k = 1.188547
        47        26        27        49     9      180.000000        1.204276         2    ;  uncertainty k = 0.644393
        47        26        27        49     9        0.000000       -0.041585         3    ;  uncertainty k = 0.103087
        47        26        27        49     9      180.000000       -0.675011         4    ;  uncertainty k = 0.129824
        48        27        28        50     9        0.000000        2.391929         1    ;  uncertainty k = 0.281529
        48        27        28        50     9      180.000000       -3.046833         2    ;  uncertainty k = 0.188284
        48        27        28        50     9        0.000000        0.060202         3    ;  uncertainty k = 0.133869
        48        27        28        50     9      180.000000        0.166849         4    ;  uncertainty k = 0.165406
        49        27        28        50     9        0.000000        2.391929         1    ;  uncertainty k = 0.281529
        49        27        28        50     9      180.000000       -3.046833         2    ;  uncertainty k = 0.188284
        49        27        28        50     9        0.000000        0.060202         3    ;  uncertainty k = 0.133869
        49        27        28        50     9      180.000000        0.166849         4    ;  uncertainty k = 0.165406
        50        28        29        51     9        0.000000        2.391930         1    ;  uncertainty k = 0.281530
        50        28        29        51     9      180.000000       -3.046830         2    ;  uncertainty k = 0.188285
        50        28        29        51     9        0.000000        0.060201         3    ;  uncertainty k = 0.133870
        50        28        29        51     9      180.000000        0.166849         4    ;  uncertainty k = 0.165406
        50        28        29        52     9        0.000000        2.391930         1    ;  uncertainty k = 0.281530
        50        28        29        52     9      180.000000       -3.046830         2    ;  uncertainty k = 0.188285
        50        28        29        52     9        0.000000        0.060201         3    ;  uncertainty k = 0.133870
        50        28        29        52     9      180.000000        0.166849         4    ;  uncertainty k = 0.165406
        51        29        30        53     9        0.000000       -2.100458         1    ;  uncertainty k = 1.188548
        51        29        30        53     9      180.000000        1.204276         2    ;  uncertainty k = 0.644394
        51        29        30        53     9        0.000000       -0.041585         3    ;  uncertainty k = 0.103086
        51        29        30        53     9      180.000000       -0.675011         4    ;  uncertainty k = 0.129825
        51        29        30        54     9        0.000000       -2.100458         1    ;  uncertainty k = 1.188548
        51        29        30        54     9      180.000000        1.204276         2    ;  uncertainty k = 0.644394
        51        29        30        54     9        0.000000       -0.041585         3    ;  uncertainty k = 0.103086
        51        29        30        54     9      180.000000       -0.675011         4    ;  uncertainty k = 0.129825
        52        29        30        53     9        0.000000       -2.100458         1    ;  uncertainty k = 1.188548
        52        29        30        53     9      180.000000        1.204276         2    ;  uncertainty k = 0.644394
        52        29        30        53     9        0.000000       -0.041585         3    ;  uncertainty k = 0.103086
        52        29        30        53     9      180.000000       -0.675011         4    ;  uncertainty k = 0.129825
        52        29        30        54     9        0.000000       -2.100458         1    ;  uncertainty k = 1.188548
        52        29        30        54     9      180.000000        1.204276         2    ;  uncertainty k = 0.644394
        52        29        30        54     9        0.000000       -0.041585         3    ;  uncertainty k = 0.103086
        52        29        30        54     9      180.000000       -0.675011         4    ;  uncertainty k = 0.129825

[ dihedrals ] ; impropers
;       ai        aj        ak        al funct           phase               k        pn
         1         2         4        12     4      180.000000        7.164450         2    ;  uncertainty k = 0.197591
         1         4        12         2     4      180.000000        7.164450         2    ;  uncertainty k = 0.197591
         1        12         2         4     4      180.000000        7.164450         2    ;  uncertainty k = 0.197591
         2         1         6        31     4      180.000000        5.376058         2    ;  uncertainty k = 0.129153
         2         6        31         1     4      180.000000        5.376058         2    ;  uncertainty k = 0.129153
         2        31         1         6     4      180.000000        5.376058         2    ;  uncertainty k = 0.129153
         3         4         5        32     4      180.000000        2.513918         2    ;  uncertainty k = 0.305124
         3         5        32         4     4      180.000000        2.513918         2    ;  uncertainty k = 0.305124
         3        32         4         5     4      180.000000        2.513918         2    ;  uncertainty k = 0.305124
         4         1         3        33     4      180.000000        4.522570         2    ;  uncertainty k = 0.159872
         4         3        33         1     4      180.000000        4.522570         2    ;  uncertainty k = 0.159872
         4        33         1         3     4      180.000000        4.522570         2    ;  uncertainty k = 0.159872
         5         3         6         9     4      180.000000        1.702059         2    ;  uncertainty k = 0.914475
         5         6         9         3     4      180.000000        1.702059         2    ;  uncertainty k = 0.914475
         5         9         3         6     4      180.000000        1.702059         2    ;  uncertainty k = 0.914475
         7         6         8        10     4      180.000000        7.657720         2    ;  uncertainty k = 0.247735
         7         8        10         6     4      180.000000        7.657720         2    ;  uncertainty k = 0.247735
         7        10         6         8     4      180.000000        7.657720         2    ;  uncertainty k = 0.247735
        12         1        11        13     4      180.000000       51.318864         2    ;  uncertainty k = 0.030268
        12        11        13         1     4      180.000000       51.318864         2    ;  uncertainty k = 0.030268
        12        13         1        11     4      180.000000       51.318864         2    ;  uncertainty k = 0.030268
        14        10        15        19     4      180.000000       13.443225         2    ;  uncertainty k = 0.081656
        14        15        19        10     4      180.000000       13.443225         2    ;  uncertainty k = 0.081656
        14        19        10        15     4      180.000000       13.443225         2    ;  uncertainty k = 0.081656
        15        14        16        37     4      180.000000        4.038197         2    ;  uncertainty k = 0.126249
        15        16        37        14     4      180.000000        4.038197         2    ;  uncertainty k = 0.126249
        15        37        14        16     4      180.000000        4.038197         2    ;  uncertainty k = 0.126249
        16        15        17        38     4      180.000000        3.634538         2    ;  uncertainty k = 0.167362
        16        17        38        15     4      180.000000        3.634538         2    ;  uncertainty k = 0.167362
        16        38        15        17     4      180.000000        3.634538         2    ;  uncertainty k = 0.167362
        17        16        18        20     4      180.000000       14.868719         2    ;  uncertainty k = 0.081810
        17        18        20        16     4      180.000000       14.868719         2    ;  uncertainty k = 0.081810
        17        20        16        18     4      180.000000       14.868719         2    ;  uncertainty k = 0.081810
        18        17        19        39     4      180.000000        3.634538         2    ;  uncertainty k = 0.167362
        18        19        39        17     4      180.000000        3.634538         2    ;  uncertainty k = 0.167362
        18        39        17        19     4      180.000000        3.634538         2    ;  uncertainty k = 0.167362
        19        14        18        40     4      180.000000        4.038197         2    ;  uncertainty k = 0.126249
        19        18        40        14     4      180.000000        4.038197         2    ;  uncertainty k = 0.126249
        19        40        14        18     4      180.000000        4.038197         2    ;  uncertainty k = 0.126249
        20        17        21        24     4      180.000000        2.273628         2    ;  uncertainty k = 0.479725
        20        21        24        17     4      180.000000        2.273628         2    ;  uncertainty k = 0.479725
        20        24        17        21     4      180.000000        2.273628         2    ;  uncertainty k = 0.479725
        21        20        22        41     4      180.000000        0.843030         2    ;  uncertainty k = 0.771056
        21        22        41        20     4      180.000000        0.843030         2    ;  uncertainty k = 0.771056
        21        41        20        22     4      180.000000        0.843030         2    ;  uncertainty k = 0.771056
        24        20        23        42     4      180.000000        0.319029         2    ;  uncertainty k = 0.442787
        24        23        42        20     4      180.000000        0.319029         2    ;  uncertainty k = 0.442787
        24        42        20        23     4      180.000000        0.319029         2    ;  uncertainty k = 0.442787

[ pairs ]
;       ai        aj funct
         1         5     1
         1         7     1
         1        26     1
         1        30     1
         1        32     1
         2         3     1
         2         8     1
         2         9     1
         2        10     1
         2        11     1
         2        13     1
         2        33     1
         3         7     1
         3         8     1
         3        12     1
         3        34     1
         4         6     1
         4         9     1
         4        11     1
         4        13     1
         4        31     1
         5        10     1
         5        31     1
         5        33     1
         6        12     1
         6        14     1
         6        32     1
         6        34     1
         6        35     1
         6        36     1
         7        15     1
         7        19     1
         7        31     1
         7        34     1
         8        14     1
         8        35     1
         8        36     1
         9        10     1
         9        32     1
        10        16     1
        10        18     1
        10        37     1
        10        40     1
        11        28     1
        11        48     1
        11        49     1
        11        51     1
        11        52     1
        12        27     1
        12        29     1
        12        31     1
        12        33     1
        12        46     1
        12        47     1
        12        53     1
        12        54     1
        13        26     1
        13        30     1
        14        17     1
        14        38     1
        14        39     1
        15        18     1
        15        20     1
        15        35     1
        15        36     1
        15        40     1
        16        19     1
        16        21     1
        16        24     1
        16        39     1
        17        22     1
        17        23     1
        17        37     1
        17        40     1
        17        41     1
        17        42     1
        18        21     1
        18        24     1
        18        38     1
        19        20     1
        19        35     1
        19        36     1
        19        37     1
        20        25     1
        20        38     1
        20        39     1
        21        42     1
        21        43     1
        21        44     1
        21        45     1
        22        42     1
        23        41     1
        23        43     1
        23        44     1
        23        45     1
        24        25     1
        24        41     1
        25        41     1
        26        29     1
        26        50     1
        26        53     1
        26        54     1
        27        30     1
        27        51     1
        27        52     1
        28        46     1
        28        47     1
        28        53     1
        28        54     1
        29        48     1
        29        49     1
        30        46     1
        30        47     1
        30        50     1
        32        33     1
        37        38     1
        39        40     1
        46        48     1
        46        49     1
        47        48     1
        47        49     1
        48        50     1
        49        50     1
        50        51     1
        50        52     1
        51        53     1
        51        54     1
        52        53     1
        52        54     1
