; ITP file created by ByteFF-joint-25, 2026-02-17 09:07:22.540654

[ atomtypes ]
;name           bonded.type        at.num        mass        charge   ptype           sigma         epsilon
 c0bf                                   6      0.0000       0.00000       A     3.31533e-01     4.13120e-01    ;  uncertainty sigma = 0.000013, epsilon = 0.000859
 c1bf                                   6      0.0000       0.00000       A     3.31522e-01     4.13213e-01    ;  uncertainty sigma = 0.000006, epsilon = 0.000464
 c2bf                                   6      0.0000       0.00000       A     3.31518e-01     4.13313e-01    ;  uncertainty sigma = 0.000005, epsilon = 0.000810
 c3bf                                   6      0.0000       0.00000       A     3.31533e-01     4.13419e-01    ;  uncertainty sigma = 0.000006, epsilon = 0.000659
 c4bf                                   6      0.0000       0.00000       A     3.31513e-01     4.13127e-01    ;  uncertainty sigma = 0.000006, epsilon = 0.000908
 c5bf                                   6      0.0000       0.00000       A     3.31527e-01     4.13309e-01    ;  uncertainty sigma = 0.000007, epsilon = 0.000583
 c6bf                                   6      0.0000       0.00000       A     3.31510e-01     4.13714e-01    ;  uncertainty sigma = 0.000012, epsilon = 0.000569
 n7bf                                   7      0.0000       0.00000       A     3.38378e-01     3.93289e-01    ;  uncertainty sigma = 0.000011, epsilon = 0.000859
 n8bf                                   7      0.0000       0.00000       A     3.20594e-01     8.54239e-01    ;  uncertainty sigma = 0.000008, epsilon = 0.000871
 c9bf                                   6      0.0000       0.00000       A     3.39770e-01     4.50660e-01    ;  uncertainty sigma = 0.000014, epsilon = 0.000901
 n10bf                                  7      0.0000       0.00000       A     3.18091e-01     6.84000e-01    ;  uncertainty sigma = 0.000010, epsilon = 0.001954
 c11bf                                  6      0.0000       0.00000       A     3.31514e-01     4.13380e-01    ;  uncertainty sigma = 0.000011, epsilon = 0.000797
 o12bf                                  8      0.0000       0.00000       A     3.04805e-01     6.12277e-01    ;  uncertainty sigma = 0.000020, epsilon = 0.001233
 c13bf                                  6      0.0000       0.00000       A     3.31538e-01     4.13216e-01    ;  uncertainty sigma = 0.000005, epsilon = 0.000759
 c14bf                                  6      0.0000       0.00000       A     3.31521e-01     4.13352e-01    ;  uncertainty sigma = 0.000011, epsilon = 0.001038
 c15bf                                  6      0.0000       0.00000       A     3.31501e-01     4.13562e-01    ;  uncertainty sigma = 0.000007, epsilon = 0.000822
 c16bf                                  6      0.0000       0.00000       A     3.31511e-01     4.13323e-01    ;  uncertainty sigma = 0.000004, epsilon = 0.000386
 c17bf                                  6      0.0000       0.00000       A     3.31515e-01     4.13243e-01    ;  uncertainty sigma = 0.000008, epsilon = 0.000423
 c18bf                                  6      0.0000       0.00000       A     3.31521e-01     4.13491e-01    ;  uncertainty sigma = 0.000007, epsilon = 0.000445
 c19bf                                  6      0.0000       0.00000       A     3.31515e-01     4.13245e-01    ;  uncertainty sigma = 0.000006, epsilon = 0.000305
 n20bf                                  7      0.0000       0.00000       A     3.38405e-01     3.93634e-01    ;  uncertainty sigma = 0.000008, epsilon = 0.000679
 n21bf                                  7      0.0000       0.00000       A     3.20609e-01     8.54245e-01    ;  uncertainty sigma = 0.000014, epsilon = 0.001618
 c22bf                                  6      0.0000       0.00000       A     3.39777e-01     4.51192e-01    ;  uncertainty sigma = 0.000009, epsilon = 0.000493
 c23bf                                  6      0.0000       0.00000       A     3.39739e-01     4.50646e-01    ;  uncertainty sigma = 0.000019, epsilon = 0.001081
 c24bf                                  6      0.0000       0.00000       A     3.39788e-01     4.51291e-01    ;  uncertainty sigma = 0.000016, epsilon = 0.001244
 c25bf                                  6      0.0000       0.00000       A     3.39771e-01     4.51026e-01    ;  uncertainty sigma = 0.000004, epsilon = 0.001093
 c26bf                                  6      0.0000       0.00000       A     3.39768e-01     4.51171e-01    ;  uncertainty sigma = 0.000008, epsilon = 0.000598
 f27bf                                  9      0.0000       0.00000       A     3.03412e-01     3.48296e-01    ;  uncertainty sigma = 0.000023, epsilon = 0.001382
 f28bf                                  9      0.0000       0.00000       A     3.03412e-01     3.48296e-01    ;  uncertainty sigma = 0.000023, epsilon = 0.001382
 h29bf                                  1      0.0000       0.00000       A     2.62579e-01     6.71691e-02    ;  uncertainty sigma = 0.000008, epsilon = 0.000709
 h30bf                                  1      0.0000       0.00000       A     2.62571e-01     6.70414e-02    ;  uncertainty sigma = 0.000009, epsilon = 0.000485
 h31bf                                  1      0.0000       0.00000       A     2.62551e-01     6.72223e-02    ;  uncertainty sigma = 0.000011, epsilon = 0.000661
 h32bf                                  1      0.0000       0.00000       A     1.10648e-01     4.14022e-02    ;  uncertainty sigma = 0.000065, epsilon = 0.000771
 h33bf                                  1      0.0000       0.00000       A     2.60077e-01     8.67671e-02    ;  uncertainty sigma = 0.000031, epsilon = 0.000769
 h34bf                                  1      0.0000       0.00000       A     2.60077e-01     8.67671e-02    ;  uncertainty sigma = 0.000031, epsilon = 0.000769
 h35bf                                  1      0.0000       0.00000       A     2.62573e-01     6.70513e-02    ;  uncertainty sigma = 0.000012, epsilon = 0.000419
 h36bf                                  1      0.0000       0.00000       A     2.62570e-01     6.70811e-02    ;  uncertainty sigma = 0.000008, epsilon = 0.000545
 h37bf                                  1      0.0000       0.00000       A     2.62560e-01     6.70766e-02    ;  uncertainty sigma = 0.000008, epsilon = 0.000661
 h38bf                                  1      0.0000       0.00000       A     2.53650e-01     6.72969e-02    ;  uncertainty sigma = 0.000027, epsilon = 0.000384
 h39bf                                  1      0.0000       0.00000       A     2.42200e-01     8.67756e-02    ;  uncertainty sigma = 0.000018, epsilon = 0.000504
 h40bf                                  1      0.0000       0.00000       A     2.42200e-01     8.67756e-02    ;  uncertainty sigma = 0.000018, epsilon = 0.000504
 h41bf                                  1      0.0000       0.00000       A     2.42200e-01     8.67756e-02    ;  uncertainty sigma = 0.000018, epsilon = 0.000504
 h42bf                                  1      0.0000       0.00000       A     2.42197e-01     8.64204e-02    ;  uncertainty sigma = 0.000021, epsilon = 0.000821
 h43bf                                  1      0.0000       0.00000       A     2.42197e-01     8.64204e-02    ;  uncertainty sigma = 0.000021, epsilon = 0.000821
 h44bf                                  1      0.0000       0.00000       A     2.60053e-01     8.66450e-02    ;  uncertainty sigma = 0.000022, epsilon = 0.000532
 h45bf                                  1      0.0000       0.00000       A     2.60053e-01     8.66450e-02    ;  uncertainty sigma = 0.000022, epsilon = 0.000532
 h46bf                                  1      0.0000       0.00000       A     2.42196e-01     8.63423e-02    ;  uncertainty sigma = 0.000003, epsilon = 0.000599
 h47bf                                  1      0.0000       0.00000       A     2.42196e-01     8.63423e-02    ;  uncertainty sigma = 0.000003, epsilon = 0.000599

[ moleculetype ]
;name             nrexcl
 MOL                   3

[ atoms ]
;       nr            type      resi   res      atom      cgnr      charge          mass ; qtot
         1            c0bf         1   UNL        c0         1    -0.18815       12.0110 ; qtot   -0.188
         2            c1bf         1   UNL        c1         2    -0.00333       12.0110 ; qtot   -0.191
         3            c2bf         1   UNL        c2         3    -0.16433       12.0110 ; qtot   -0.356
         4            c3bf         1   UNL        c3         4    -0.05845       12.0110 ; qtot   -0.414
         5            c4bf         1   UNL        c4         5    -0.00079       12.0110 ; qtot   -0.415
         6            c5bf         1   UNL        c5         6    -0.23707       12.0110 ; qtot   -0.652
         7            c6bf         1   UNL        c6         7     0.37217       12.0110 ; qtot   -0.280
         8            n7bf         1   UNL        n7         8    -0.50882       14.0070 ; qtot   -0.789
         9            n8bf         1   UNL        n8         9    -0.03606       14.0070 ; qtot   -0.825
        10            c9bf         1   UNL        c9        10    -0.04285       12.0110 ; qtot   -0.868
        11           n10bf         1   UNL       n10        11    -0.48570       14.0070 ; qtot   -1.353
        12           c11bf         1   UNL       c11        12     0.68642       12.0110 ; qtot   -0.667
        13           o12bf         1   UNL       o12        13    -0.59312       15.9990 ; qtot   -1.260
        14           c13bf         1   UNL       c13        14    -0.12484       12.0110 ; qtot   -1.385
        15           c14bf         1   UNL       c14        15    -0.04511       12.0110 ; qtot   -1.430
        16           c15bf         1   UNL       c15        16    -0.23109       12.0110 ; qtot   -1.661
        17           c16bf         1   UNL       c16        17    -0.02934       12.0110 ; qtot   -1.690
        18           c17bf         1   UNL       c17        18    -0.15075       12.0110 ; qtot   -1.841
        19           c18bf         1   UNL       c18        19    -0.08408       12.0110 ; qtot   -1.925
        20           c19bf         1   UNL       c19        20     0.35572       12.0110 ; qtot   -1.570
        21           n20bf         1   UNL       n20        21    -0.51263       14.0070 ; qtot   -2.082
        22           n21bf         1   UNL       n21        22     0.08156       14.0070 ; qtot   -2.001
        23           c22bf         1   UNL       c22        23     0.05157       12.0110 ; qtot   -1.949
        24           c23bf         1   UNL       c23        24     0.05886       12.0110 ; qtot   -1.890
        25           c24bf         1   UNL       c24        25     0.39924       12.0110 ; qtot   -1.491
        26           c25bf         1   UNL       c25        26    -0.14158       12.0110 ; qtot   -1.633
        27           c26bf         1   UNL       c26        27     0.10331       12.0110 ; qtot   -1.529
        28           f27bf         1   UNL       f27        28    -0.23212       18.9980 ; qtot   -1.761
        29           f28bf         1   UNL       f28        29    -0.23212       18.9980 ; qtot   -1.993
        30           h29bf         1   UNL       h29        30     0.15375        1.0080 ; qtot   -1.840
        31           h30bf         1   UNL       h30        31     0.14365        1.0080 ; qtot   -1.696
        32           h31bf         1   UNL       h31        32     0.14710        1.0080 ; qtot   -1.549
        33           h32bf         1   UNL       h32        33     0.32635        1.0080 ; qtot   -1.223
        34           h33bf         1   UNL       h33        34     0.06237        1.0080 ; qtot   -1.160
        35           h34bf         1   UNL       h34        35     0.06237        1.0080 ; qtot   -1.098
        36           h35bf         1   UNL       h35        36     0.14114        1.0080 ; qtot   -0.957
        37           h36bf         1   UNL       h36        37     0.13808        1.0080 ; qtot   -0.819
        38           h37bf         1   UNL       h37        38     0.13508        1.0080 ; qtot   -0.684
        39           h38bf         1   UNL       h38        39     0.04907        1.0080 ; qtot   -0.635
        40           h39bf         1   UNL       h39        40     0.05623        1.0080 ; qtot   -0.578
        41           h40bf         1   UNL       h40        41     0.05623        1.0080 ; qtot   -0.522
        42           h41bf         1   UNL       h41        42     0.05623        1.0080 ; qtot   -0.466
        43           h42bf         1   UNL       h42        43     0.08334        1.0080 ; qtot   -0.382
        44           h43bf         1   UNL       h43        44     0.08334        1.0080 ; qtot   -0.299
        45           h44bf         1   UNL       h44        45     0.08412        1.0080 ; qtot   -0.215
        46           h45bf         1   UNL       h45        46     0.08412        1.0080 ; qtot   -0.131
        47           h46bf         1   UNL       h46        47     0.06547        1.0080 ; qtot   -0.065
        48           h47bf         1   UNL       h47        48     0.06544        1.0080 ; qtot    0.000

[ bonds ]
;       ai        aj funct               r               k
         1         2     1        0.139269   356326.514111    ;  uncertainty r = 0.000113, k = 5.444281
         1         4     1        0.142173   331369.812158    ;  uncertainty r = 0.000113, k = 5.081111
         1        12     1        0.149632   257295.876758    ;  uncertainty r = 0.000053, k = 15.013842
         2         6     1        0.140009   362401.154004    ;  uncertainty r = 0.000069, k = 5.435879
         2        30     1        0.108662   332411.496387    ;  uncertainty r = 0.000026, k = 1.829626
         3         4     1        0.138476   368064.569824    ;  uncertainty r = 0.000036, k = 3.724481
         3         5     1        0.140230   361304.488379    ;  uncertainty r = 0.000057, k = 5.463780
         3        31     1        0.108856   335451.510498    ;  uncertainty r = 0.000008, k = 1.619630
         4        32     1        0.108637   331950.960156    ;  uncertainty r = 0.000014, k = 2.316018
         5         6     1        0.141751   401528.295801    ;  uncertainty r = 0.000055, k = 7.890353
         5         9     1        0.137355   299898.542529    ;  uncertainty r = 0.000054, k = 10.387935
         6         7     1        0.144232   227873.091895    ;  uncertainty r = 0.000105, k = 7.591188
         7         8     1        0.132794   464042.935254    ;  uncertainty r = 0.000108, k = 8.320606
         7        10     1        0.150186   236656.759424    ;  uncertainty r = 0.000066, k = 3.903695
         8         9     1        0.136819   297875.211816    ;  uncertainty r = 0.000034, k = 11.449749
         9        33     1        0.101020   416476.391699    ;  uncertainty r = 0.000031, k = 2.687214
        10        14     1        0.151852   234345.293506    ;  uncertainty r = 0.000055, k = 5.924888
        10        34     1        0.109655   309009.033984    ;  uncertainty r = 0.000022, k = 1.344390
        10        35     1        0.109655   309009.033984    ;  uncertainty r = 0.000022, k = 1.344390
        11        12     1        0.137538   331897.766357    ;  uncertainty r = 0.000040, k = 10.424084
        11        24     1        0.146484   239788.349609    ;  uncertainty r = 0.000051, k = 11.610770
        11        27     1        0.147566   237680.210156    ;  uncertainty r = 0.000073, k = 4.592065
        12        13     1        0.123691   759414.488867    ;  uncertainty r = 0.000045, k = 4.157908
        14        15     1        0.138878   355681.804248    ;  uncertainty r = 0.000078, k = 4.999732
        14        19     1        0.141853   329614.621094    ;  uncertainty r = 0.000053, k = 3.742422
        15        16     1        0.140610   362340.809814    ;  uncertainty r = 0.000048, k = 2.617317
        15        36     1        0.108865   333059.730371    ;  uncertainty r = 0.000031, k = 0.836915
        16        17     1        0.141822   408951.218457    ;  uncertainty r = 0.000074, k = 10.080650
        16        20     1        0.143279   239541.712207    ;  uncertainty r = 0.000047, k = 17.246369
        17        18     1        0.140312   358538.283154    ;  uncertainty r = 0.000024, k = 4.438997
        17        22     1        0.137029   268521.606982    ;  uncertainty r = 0.000070, k = 6.075996
        18        19     1        0.138774   365693.500293    ;  uncertainty r = 0.000069, k = 5.039267
        18        37     1        0.108813   336980.595996    ;  uncertainty r = 0.000030, k = 1.562408
        19        38     1        0.108844   334143.984961    ;  uncertainty r = 0.000020, k = 1.114894
        20        21     1        0.132586   472090.955273    ;  uncertainty r = 0.000019, k = 5.450469
        20        39     1        0.108414   339507.237598    ;  uncertainty r = 0.000020, k = 3.182844
        21        22     1        0.136613   279811.384277    ;  uncertainty r = 0.000032, k = 6.120866
        22        23     1        0.144822   254675.667187    ;  uncertainty r = 0.000011, k = 6.797011
        23        40     1        0.109372   311001.796777    ;  uncertainty r = 0.000009, k = 1.495199
        23        41     1        0.109372   311001.796777    ;  uncertainty r = 0.000009, k = 1.495165
        23        42     1        0.109372   311001.796777    ;  uncertainty r = 0.000009, k = 1.495165
        24        25     1        0.152892   209289.954468    ;  uncertainty r = 0.000052, k = 15.447339
        24        43     1        0.109370   311285.105469    ;  uncertainty r = 0.000040, k = 2.368906
        24        44     1        0.109370   311285.105469    ;  uncertainty r = 0.000040, k = 2.368906
        25        26     1        0.152357   205049.338696    ;  uncertainty r = 0.000067, k = 14.999359
        25        28     1        0.137878   310239.233154    ;  uncertainty r = 0.000080, k = 7.097844
        25        29     1        0.137878   310239.233154    ;  uncertainty r = 0.000080, k = 7.097844
        26        27     1        0.153471   225543.290332    ;  uncertainty r = 0.000046, k = 9.281337
        26        45     1        0.109245   310810.064160    ;  uncertainty r = 0.000015, k = 2.236443
        26        46     1        0.109245   310810.064160    ;  uncertainty r = 0.000015, k = 2.236443
        27        47     1        0.109317   308329.287207    ;  uncertainty r = 0.000017, k = 1.584969
        27        48     1        0.109317   308329.287207    ;  uncertainty r = 0.000017, k = 1.584969

[ angles ]
;       ai        aj        ak funct           theta             cth
         1         2         6     1      119.495583      551.177455    ;  uncertainty theta = 0.004545, k = 0.081020
         1         2        30     1      119.822350      272.225011    ;  uncertainty theta = 0.004020, k = 0.059864
         1         4         3     1      124.069092      524.940150    ;  uncertainty theta = 0.002807, k = 0.057167
         1         4        32     1      118.642151      273.669901    ;  uncertainty theta = 0.003254, k = 0.063761
         1        12        11     1      113.639061      423.813803    ;  uncertainty theta = 0.005096, k = 0.170462
         1        12        13     1      125.187950      531.440781    ;  uncertainty theta = 0.003816, k = 0.199042
         2         1         4     1      123.669983      469.805690    ;  uncertainty theta = 0.003884, k = 0.065472
         2         1        12     1      119.190468      328.483008    ;  uncertainty theta = 0.001804, k = 0.346019
         2         6         5     1      118.137985      403.603703    ;  uncertainty theta = 0.003829, k = 0.226300
         2         6         7     1      131.017273      339.905470    ;  uncertainty theta = 0.005361, k = 0.226016
         3         4        32     1      118.812294      285.349936    ;  uncertainty theta = 0.001776, k = 0.045213
         3         5         6     1      120.131676      383.220206    ;  uncertainty theta = 0.005180, k = 0.110701
         3         5         9     1      130.187103      397.017331    ;  uncertainty theta = 0.003233, k = 0.091251
         4         1        12     1      118.960472      346.604779    ;  uncertainty theta = 0.003565, k = 0.274922
         4         3         5     1      116.772377      523.054841    ;  uncertainty theta = 0.003154, k = 0.065504
         4         3        31     1      121.400986      281.842446    ;  uncertainty theta = 0.001036, k = 0.033246
         5         3        31     1      122.778053      290.506390    ;  uncertainty theta = 0.001546, k = 0.112722
         5         6         7     1      104.000626      707.963240    ;  uncertainty theta = 0.005060, k = 0.132760
         5         9         8     1      108.842224      996.723721    ;  uncertainty theta = 0.004081, k = 0.105419
         5         9        33     1      115.986206      285.859753    ;  uncertainty theta = 0.007695, k = 0.071788
         6         2        30     1      121.157204      289.002254    ;  uncertainty theta = 0.003884, k = 0.077841
         6         5         9     1      105.266380      700.805188    ;  uncertainty theta = 0.002628, k = 0.047826
         6         7         8     1      112.625565      860.547086    ;  uncertainty theta = 0.001663, k = 0.092267
         6         7        10     1      127.258644      340.451102    ;  uncertainty theta = 0.004445, k = 0.143829
         7         8         9     1      109.341934      911.155252    ;  uncertainty theta = 0.003499, k = 0.133312
         7        10        14     1      111.392555      536.308792    ;  uncertainty theta = 0.002460, k = 0.088519
         7        10        34     1      107.143959      404.578742    ;  uncertainty theta = 0.002686, k = 0.090739
         7        10        35     1      107.143959      404.578742    ;  uncertainty theta = 0.002686, k = 0.090739
         8         7        10     1      121.567871      407.510402    ;  uncertainty theta = 0.004731, k = 0.115348
         8         9        33     1      108.270935      348.057521    ;  uncertainty theta = 0.007607, k = 0.026261
        10        14        15     1      120.627419      417.702645    ;  uncertainty theta = 0.002664, k = 0.132336
        10        14        19     1      120.019066      426.041405    ;  uncertainty theta = 0.001582, k = 0.065678
        11        12        13     1      124.214256      722.086347    ;  uncertainty theta = 0.002391, k = 0.119801
        11        24        25     1      105.591415      743.258207    ;  uncertainty theta = 0.005536, k = 0.212417
        11        24        43     1      110.455727      451.916083    ;  uncertainty theta = 0.001823, k = 0.105308
        11        24        44     1      110.455727      451.916083    ;  uncertainty theta = 0.001823, k = 0.105308
        11        27        26     1      105.927200      810.011572    ;  uncertainty theta = 0.001382, k = 0.084067
        11        27        47     1      109.442429      457.775733    ;  uncertainty theta = 0.000937, k = 0.102346
        11        27        48     1      109.442429      457.775733    ;  uncertainty theta = 0.000937, k = 0.102346
        12        11        24     1      117.314491      373.468031    ;  uncertainty theta = 0.004172, k = 0.082048
        12        11        27     1      117.739609      364.731051    ;  uncertainty theta = 0.002095, k = 0.074138
        14        10        34     1      107.888550      399.523926    ;  uncertainty theta = 0.002530, k = 0.043709
        14        10        35     1      107.888550      399.523926    ;  uncertainty theta = 0.002530, k = 0.043709
        14        15        16     1      119.289772      558.193712    ;  uncertainty theta = 0.003219, k = 0.122129
        14        15        36     1      119.584335      269.982630    ;  uncertainty theta = 0.002413, k = 0.116556
        14        19        18     1      123.962013      512.155858    ;  uncertainty theta = 0.003468, k = 0.054940
        14        19        38     1      118.398865      272.960544    ;  uncertainty theta = 0.001458, k = 0.038725
        15        14        19     1      121.663498      462.508015    ;  uncertainty theta = 0.001823, k = 0.105066
        15        16        17     1      118.102539      400.506754    ;  uncertainty theta = 0.004595, k = 0.180009
        15        16        20     1      132.179718      359.717319    ;  uncertainty theta = 0.006200, k = 0.128760
        16        15        36     1      121.214096      298.178982    ;  uncertainty theta = 0.003395, k = 0.061731
        16        17        18     1      120.913010      374.999108    ;  uncertainty theta = 0.004884, k = 0.054475
        16        17        22     1      106.404091      697.540333    ;  uncertainty theta = 0.004689, k = 0.150230
        16        20        21     1      111.952271      924.544486    ;  uncertainty theta = 0.003164, k = 0.105679
        16        20        39     1      126.710922      247.103917    ;  uncertainty theta = 0.002209, k = 0.157386
        17        16        20     1      103.710167      705.662985    ;  uncertainty theta = 0.004424, k = 0.082111
        17        18        19     1      117.165916      531.174876    ;  uncertainty theta = 0.004124, k = 0.097049
        17        18        37     1      122.596191      288.134279    ;  uncertainty theta = 0.002016, k = 0.124041
        17        22        21     1      109.755417      962.555644    ;  uncertainty theta = 0.004363, k = 0.117872
        17        22        23     1      121.588524      397.546301    ;  uncertainty theta = 0.004284, k = 0.038130
        18        17        22     1      128.426102      374.228653    ;  uncertainty theta = 0.002264, k = 0.126874
        18        19        38     1      118.810913      287.863171    ;  uncertainty theta = 0.002838, k = 0.040854
        19        18        37     1      121.119118      280.780198    ;  uncertainty theta = 0.001843, k = 0.055624
        20        21        22     1      109.082703      918.912851    ;  uncertainty theta = 0.002451, k = 0.089301
        21        20        39     1      118.620132      291.417937    ;  uncertainty theta = 0.003326, k = 0.060507
        21        22        23     1      115.846268      451.679961    ;  uncertainty theta = 0.003722, k = 0.096729
        22        23        40     1      108.738235      473.260510    ;  uncertainty theta = 0.001513, k = 0.071563
        22        23        41     1      108.738235      473.260510    ;  uncertainty theta = 0.001513, k = 0.071563
        22        23        42     1      108.738235      473.260510    ;  uncertainty theta = 0.001513, k = 0.071563
        24        11        27     1      115.405197      546.248091    ;  uncertainty theta = 0.006236, k = 0.282762
        24        25        26     1      109.759872      670.355186    ;  uncertainty theta = 0.005961, k = 0.187549
        24        25        28     1      111.123108      634.964647    ;  uncertainty theta = 0.003710, k = 0.040781
        24        25        29     1      111.123108      634.964647    ;  uncertainty theta = 0.003710, k = 0.040781
        25        24        43     1      108.203514      392.417140    ;  uncertainty theta = 0.001629, k = 0.096011
        25        24        44     1      108.203514      392.417140    ;  uncertainty theta = 0.001629, k = 0.096011
        25        26        27     1      105.023941      684.591805    ;  uncertainty theta = 0.002478, k = 0.104815
        25        26        45     1      107.473129      390.889734    ;  uncertainty theta = 0.002028, k = 0.108638
        25        26        46     1      107.473129      390.889734    ;  uncertainty theta = 0.002028, k = 0.108638
        26        25        28     1      112.387573      655.112022    ;  uncertainty theta = 0.003928, k = 0.031339
        26        25        29     1      112.387573      655.112022    ;  uncertainty theta = 0.003928, k = 0.031339
        26        27        47     1      110.039711      401.043863    ;  uncertainty theta = 0.001570, k = 0.048264
        26        27        48     1      110.039711      401.043863    ;  uncertainty theta = 0.001570, k = 0.048264
        27        26        45     1      110.302170      390.615848    ;  uncertainty theta = 0.002085, k = 0.026640
        27        26        46     1      110.302170      390.615848    ;  uncertainty theta = 0.002085, k = 0.026640
        28        25        29     1      107.149155      772.736969    ;  uncertainty theta = 0.001753, k = 0.123971
        34        10        35     1      104.231224      312.600330    ;  uncertainty theta = 0.003830, k = 0.046404
        40        23        41     1      107.639565      320.364250    ;  uncertainty theta = 0.001662, k = 0.012143
        40        23        42     1      107.639565      320.364250    ;  uncertainty theta = 0.001662, k = 0.012143
        41        23        42     1      107.639565      320.364250    ;  uncertainty theta = 0.001662, k = 0.012143
        43        24        44     1      106.446945      303.977598    ;  uncertainty theta = 0.002757, k = 0.080899
        45        26        46     1      106.901611      297.261402    ;  uncertainty theta = 0.003156, k = 0.079735
        47        27        48     1      105.585190      306.801747    ;  uncertainty theta = 0.002166, k = 0.075850

[ dihedrals ] ; propers for gromacs 4.5 or higher, use funct 9
;       ai        aj        ak        al funct           phase               k        pn
         1         2         6         5     9        0.000000        0.098297         1    ;  uncertainty k = 0.401100
         1         2         6         5     9      180.000000       13.140550         2    ;  uncertainty k = 0.147462
         1         2         6         5     9        0.000000       -1.332638         3    ;  uncertainty k = 0.343243
         1         2         6         5     9      180.000000        0.882232         4    ;  uncertainty k = 0.172742
         1         2         6         7     9        0.000000        0.357044         1    ;  uncertainty k = 0.221635
         1         2         6         7     9      180.000000        8.129881         2    ;  uncertainty k = 0.370292
         1         2         6         7     9        0.000000        0.669270         3    ;  uncertainty k = 0.420904
         1         2         6         7     9      180.000000        1.254120         4    ;  uncertainty k = 0.161921
         1         4         3         5     9        0.000000       -0.028315         1    ;  uncertainty k = 0.150136
         1         4         3         5     9      180.000000       16.554377         2    ;  uncertainty k = 0.266182
         1         4         3         5     9        0.000000       -0.066744         3    ;  uncertainty k = 0.310178
         1         4         3         5     9      180.000000        0.761753         4    ;  uncertainty k = 0.223272
         1         4         3        31     9        0.000000       -0.016702         1    ;  uncertainty k = 0.086834
         1         4         3        31     9      180.000000        9.609576         2    ;  uncertainty k = 0.514823
         1         4         3        31     9        0.000000        1.438139         3    ;  uncertainty k = 0.192329
         1         4         3        31     9      180.000000        1.870440         4    ;  uncertainty k = 0.292574
         1        12        11        24     9        0.000000        2.467892         1    ;  uncertainty k = 1.296609
         1        12        11        24     9      180.000000        9.347694         2    ;  uncertainty k = 0.228391
         1        12        11        24     9        0.000000        1.606822         3    ;  uncertainty k = 0.113878
         1        12        11        24     9      180.000000       -0.077725         4    ;  uncertainty k = 0.140228
         1        12        11        27     9        0.000000        2.620650         1    ;  uncertainty k = 1.425574
         1        12        11        27     9      180.000000        9.285139         2    ;  uncertainty k = 0.251037
         1        12        11        27     9        0.000000        1.649097         3    ;  uncertainty k = 0.182776
         1        12        11        27     9      180.000000       -0.053530         4    ;  uncertainty k = 0.106361
         2         1         4         3     9        0.000000       -0.128860         1    ;  uncertainty k = 0.222345
         2         1         4         3     9      180.000000        9.097968         2    ;  uncertainty k = 0.442576
         2         1         4         3     9        0.000000       -0.408635         3    ;  uncertainty k = 0.449286
         2         1         4         3     9      180.000000        1.159308         4    ;  uncertainty k = 0.230243
         2         1         4        32     9        0.000000        0.091990         1    ;  uncertainty k = 0.414378
         2         1         4        32     9      180.000000        6.524500         2    ;  uncertainty k = 0.389830
         2         1         4        32     9        0.000000        1.153225         3    ;  uncertainty k = 0.257391
         2         1         4        32     9      180.000000        1.577547         4    ;  uncertainty k = 0.185071
         2         1        12        11     9        0.000000        0.049289         1    ;  uncertainty k = 0.692567
         2         1        12        11     9      180.000000        5.235287         2    ;  uncertainty k = 0.225067
         2         1        12        11     9        0.000000        0.021841         3    ;  uncertainty k = 0.169126
         2         1        12        11     9      180.000000        0.395249         4    ;  uncertainty k = 0.081564
         2         1        12        13     9        0.000000       -0.402123         1    ;  uncertainty k = 0.323210
         2         1        12        13     9      180.000000        5.054639         2    ;  uncertainty k = 0.422786
         2         1        12        13     9        0.000000        0.370167         3    ;  uncertainty k = 0.051321
         2         1        12        13     9      180.000000        0.238224         4    ;  uncertainty k = 0.034814
         2         6         5         3     9        0.000000       -0.332521         1    ;  uncertainty k = 0.444498
         2         6         5         3     9      180.000000        7.263124         2    ;  uncertainty k = 0.632581
         2         6         5         3     9        0.000000        0.287920         3    ;  uncertainty k = 0.210575
         2         6         5         3     9      180.000000        0.995567         4    ;  uncertainty k = 0.377771
         2         6         5         9     9        0.000000        0.044493         1    ;  uncertainty k = 0.663729
         2         6         5         9     9      180.000000        8.265910         2    ;  uncertainty k = 0.351008
         2         6         5         9     9        0.000000       -0.118367         3    ;  uncertainty k = 0.459127
         2         6         5         9     9      180.000000        1.239742         4    ;  uncertainty k = 0.346633
         2         6         7         8     9        0.000000        0.796741         1    ;  uncertainty k = 0.424890
         2         6         7         8     9      180.000000        6.292448         2    ;  uncertainty k = 0.274786
         2         6         7         8     9        0.000000        0.221598         3    ;  uncertainty k = 0.755185
         2         6         7         8     9      180.000000        0.838978         4    ;  uncertainty k = 0.119809
         2         6         7        10     9        0.000000       -0.745126         1    ;  uncertainty k = 0.963946
         2         6         7        10     9      180.000000        3.846429         2    ;  uncertainty k = 0.717121
         2         6         7        10     9        0.000000        1.336451         3    ;  uncertainty k = 0.272651
         2         6         7        10     9      180.000000        0.109892         4    ;  uncertainty k = 0.183921
         3         4         1        12     9        0.000000        0.144391         1    ;  uncertainty k = 0.657172
         3         4         1        12     9      180.000000        7.778774         2    ;  uncertainty k = 0.837804
         3         4         1        12     9        0.000000        1.507130         3    ;  uncertainty k = 0.333814
         3         4         1        12     9      180.000000        1.872367         4    ;  uncertainty k = 0.261910
         3         5         6         7     9        0.000000        0.070795         1    ;  uncertainty k = 0.424585
         3         5         6         7     9      180.000000        6.784509         2    ;  uncertainty k = 0.315120
         3         5         6         7     9        0.000000        0.202215         3    ;  uncertainty k = 0.456901
         3         5         6         7     9      180.000000        1.325149         4    ;  uncertainty k = 0.332469
         3         5         9         8     9        0.000000        0.904159         1    ;  uncertainty k = 1.117302
         3         5         9         8     9      180.000000        6.890496         2    ;  uncertainty k = 0.548909
         3         5         9         8     9        0.000000        0.584628         3    ;  uncertainty k = 0.645711
         3         5         9         8     9      180.000000        0.349060         4    ;  uncertainty k = 0.198096
         3         5         9        33     9        0.000000        1.687873         1    ;  uncertainty k = 1.038512
         3         5         9        33     9      180.000000        1.750707         2    ;  uncertainty k = 0.558295
         3         5         9        33     9        0.000000        1.348028         3    ;  uncertainty k = 0.539675
         3         5         9        33     9      180.000000        0.077204         4    ;  uncertainty k = 0.149616
         4         1         2         6     9        0.000000       -0.084754         1    ;  uncertainty k = 0.373551
         4         1         2         6     9      180.000000       12.727110         2    ;  uncertainty k = 0.474843
         4         1         2         6     9        0.000000       -0.055119         3    ;  uncertainty k = 0.401926
         4         1         2         6     9      180.000000        1.063695         4    ;  uncertainty k = 0.394405
         4         1         2        30     9        0.000000        0.189589         1    ;  uncertainty k = 0.281268
         4         1         2        30     9      180.000000        7.948731         2    ;  uncertainty k = 0.399663
         4         1         2        30     9        0.000000        1.314046         3    ;  uncertainty k = 0.299219
         4         1         2        30     9      180.000000        1.718436         4    ;  uncertainty k = 0.224198
         4         1        12        11     9        0.000000        0.391605         1    ;  uncertainty k = 0.499208
         4         1        12        11     9      180.000000        5.302614         2    ;  uncertainty k = 0.175514
         4         1        12        11     9        0.000000        0.177665         3    ;  uncertainty k = 0.125726
         4         1        12        11     9      180.000000        0.416424         4    ;  uncertainty k = 0.097246
         4         1        12        13     9        0.000000       -1.128252         1    ;  uncertainty k = 0.548435
         4         1        12        13     9      180.000000        4.827271         2    ;  uncertainty k = 0.220965
         4         1        12        13     9        0.000000        0.356393         3    ;  uncertainty k = 0.107547
         4         1        12        13     9      180.000000        0.292839         4    ;  uncertainty k = 0.045905
         4         3         5         6     9        0.000000       -0.034659         1    ;  uncertainty k = 0.360415
         4         3         5         6     9      180.000000       12.236188         2    ;  uncertainty k = 0.138045
         4         3         5         6     9        0.000000       -1.480534         3    ;  uncertainty k = 0.480612
         4         3         5         6     9      180.000000        0.783287         4    ;  uncertainty k = 0.234013
         4         3         5         9     9        0.000000        0.090951         1    ;  uncertainty k = 0.350065
         4         3         5         9     9      180.000000       10.209920         2    ;  uncertainty k = 0.689654
         4         3         5         9     9        0.000000        0.741006         3    ;  uncertainty k = 0.241850
         4         3         5         9     9      180.000000        1.152626         4    ;  uncertainty k = 0.275239
         5         3         4        32     9        0.000000       -0.003176         1    ;  uncertainty k = 0.256368
         5         3         4        32     9      180.000000       11.530554         2    ;  uncertainty k = 0.331819
         5         3         4        32     9        0.000000        1.441824         3    ;  uncertainty k = 0.228941
         5         3         4        32     9      180.000000        1.557421         4    ;  uncertainty k = 0.249588
         5         6         2        30     9        0.000000        0.018432         1    ;  uncertainty k = 0.444361
         5         6         2        30     9      180.000000        7.561871         2    ;  uncertainty k = 1.082207
         5         6         2        30     9        0.000000        1.288699         3    ;  uncertainty k = 0.304042
         5         6         2        30     9      180.000000        1.183352         4    ;  uncertainty k = 0.376508
         5         6         7         8     9        0.000000        0.527232         1    ;  uncertainty k = 0.572971
         5         6         7         8     9      180.000000       13.181921         2    ;  uncertainty k = 1.245854
         5         6         7         8     9        0.000000      -10.883555         3    ;  uncertainty k = 2.052505
         5         6         7         8     9      180.000000        2.107062         4    ;  uncertainty k = 0.615325
         5         6         7        10     9        0.000000        1.362349         1    ;  uncertainty k = 1.059763
         5         6         7        10     9      180.000000        8.418909         2    ;  uncertainty k = 0.574150
         5         6         7        10     9        0.000000        1.819503         3    ;  uncertainty k = 0.804677
         5         6         7        10     9      180.000000        0.295366         4    ;  uncertainty k = 0.322141
         5         9         8         7     9        0.000000       -0.735377         1    ;  uncertainty k = 0.955210
         5         9         8         7     9      180.000000       16.921826         2    ;  uncertainty k = 0.597359
         5         9         8         7     9        0.000000       -4.758182         3    ;  uncertainty k = 1.060596
         5         9         8         7     9      180.000000        1.042894         4    ;  uncertainty k = 0.541181
         6         2         1        12     9        0.000000       -0.035302         1    ;  uncertainty k = 0.354769
         6         2         1        12     9      180.000000       11.424212         2    ;  uncertainty k = 0.649865
         6         2         1        12     9        0.000000        1.564338         3    ;  uncertainty k = 0.211302
         6         2         1        12     9      180.000000        1.767456         4    ;  uncertainty k = 0.319070
         6         5         3        31     9        0.000000       -0.077164         1    ;  uncertainty k = 0.452071
         6         5         3        31     9      180.000000        6.577347         2    ;  uncertainty k = 1.128287
         6         5         3        31     9        0.000000        1.283072         3    ;  uncertainty k = 0.174334
         6         5         3        31     9      180.000000        1.084209         4    ;  uncertainty k = 0.497588
         6         5         9         8     9        0.000000        0.180691         1    ;  uncertainty k = 0.518187
         6         5         9         8     9      180.000000       17.346453         2    ;  uncertainty k = 1.042874
         6         5         9         8     9        0.000000       -8.651906         3    ;  uncertainty k = 1.677288
         6         5         9         8     9      180.000000        0.783243         4    ;  uncertainty k = 0.545704
         6         5         9        33     9        0.000000        4.171678         1    ;  uncertainty k = 2.145703
         6         5         9        33     9      180.000000        6.072190         2    ;  uncertainty k = 1.354860
         6         5         9        33     9        0.000000        1.445945         3    ;  uncertainty k = 0.312869
         6         5         9        33     9      180.000000        0.001093         4    ;  uncertainty k = 0.144361
         6         7         8         9     9        0.000000       -0.387378         1    ;  uncertainty k = 0.611524
         6         7         8         9     9      180.000000       24.975568         2    ;  uncertainty k = 0.245280
         6         7         8         9     9        0.000000       -4.369246         3    ;  uncertainty k = 0.961913
         6         7         8         9     9      180.000000        1.987764         4    ;  uncertainty k = 0.346061
         6         7        10        14     9        0.000000       -0.221516         1    ;  uncertainty k = 0.584984
         6         7        10        14     9      180.000000        1.002701         2    ;  uncertainty k = 0.493574
         6         7        10        14     9        0.000000        1.025364         3    ;  uncertainty k = 0.202360
         6         7        10        14     9      180.000000        0.177002         4    ;  uncertainty k = 0.138772
         6         7        10        34     9        0.000000       -1.176871         1    ;  uncertainty k = 0.297030
         6         7        10        34     9      180.000000        1.776415         2    ;  uncertainty k = 0.484109
         6         7        10        34     9        0.000000        0.838106         3    ;  uncertainty k = 0.164724
         6         7        10        34     9      180.000000        0.103848         4    ;  uncertainty k = 0.070046
         6         7        10        35     9        0.000000       -1.176871         1    ;  uncertainty k = 0.297030
         6         7        10        35     9      180.000000        1.776415         2    ;  uncertainty k = 0.484109
         6         7        10        35     9        0.000000        0.838106         3    ;  uncertainty k = 0.164724
         6         7        10        35     9      180.000000        0.103848         4    ;  uncertainty k = 0.070046
         7         6         2        30     9        0.000000       -0.076152         1    ;  uncertainty k = 0.362871
         7         6         2        30     9      180.000000        5.482932         2    ;  uncertainty k = 0.761832
         7         6         2        30     9        0.000000        1.146640         3    ;  uncertainty k = 0.213669
         7         6         2        30     9      180.000000        0.666449         4    ;  uncertainty k = 0.308540
         7         6         5         9     9        0.000000       -0.341857         1    ;  uncertainty k = 0.320705
         7         6         5         9     9      180.000000       12.217889         2    ;  uncertainty k = 0.670528
         7         6         5         9     9        0.000000       -3.642582         3    ;  uncertainty k = 1.595331
         7         6         5         9     9      180.000000        1.623223         4    ;  uncertainty k = 0.578250
         7         8         9        33     9        0.000000        4.146951         1    ;  uncertainty k = 2.343420
         7         8         9        33     9      180.000000       12.933883         2    ;  uncertainty k = 0.107932
         7         8         9        33     9        0.000000        1.688928         3    ;  uncertainty k = 1.037473
         7         8         9        33     9      180.000000       -0.435126         4    ;  uncertainty k = 0.238097
         7        10        14        15     9        0.000000        1.125767         1    ;  uncertainty k = 0.280968
         7        10        14        15     9      180.000000        1.582624         2    ;  uncertainty k = 0.145585
         7        10        14        15     9        0.000000        0.251099         3    ;  uncertainty k = 0.119564
         7        10        14        15     9      180.000000        0.218169         4    ;  uncertainty k = 0.100669
         7        10        14        19     9        0.000000        0.677225         1    ;  uncertainty k = 0.230016
         7        10        14        19     9      180.000000        1.476972         2    ;  uncertainty k = 0.184467
         7        10        14        19     9        0.000000        0.624089         3    ;  uncertainty k = 0.171843
         7        10        14        19     9      180.000000        0.245812         4    ;  uncertainty k = 0.039097
         8         7        10        14     9        0.000000        1.063376         1    ;  uncertainty k = 0.422390
         8         7        10        14     9      180.000000        1.551769         2    ;  uncertainty k = 0.326914
         8         7        10        14     9        0.000000        0.022498         3    ;  uncertainty k = 0.191423
         8         7        10        14     9      180.000000        0.137975         4    ;  uncertainty k = 0.090538
         8         7        10        34     9        0.000000        1.790050         1    ;  uncertainty k = 0.115920
         8         7        10        34     9      180.000000        2.198230         2    ;  uncertainty k = 0.276881
         8         7        10        34     9        0.000000        0.156678         3    ;  uncertainty k = 0.099927
         8         7        10        34     9      180.000000        0.109872         4    ;  uncertainty k = 0.046931
         8         7        10        35     9        0.000000        1.790050         1    ;  uncertainty k = 0.115920
         8         7        10        35     9      180.000000        2.198230         2    ;  uncertainty k = 0.276881
         8         7        10        35     9        0.000000        0.156678         3    ;  uncertainty k = 0.099927
         8         7        10        35     9      180.000000        0.109872         4    ;  uncertainty k = 0.046931
         9         5         3        31     9        0.000000        0.443772         1    ;  uncertainty k = 0.411918
         9         5         3        31     9      180.000000        5.637188         2    ;  uncertainty k = 0.838744
         9         5         3        31     9        0.000000        1.135669         3    ;  uncertainty k = 0.131512
         9         5         3        31     9      180.000000        0.743146         4    ;  uncertainty k = 0.337267
         9         8         7        10     9        0.000000       -0.553032         1    ;  uncertainty k = 0.833109
         9         8         7        10     9      180.000000       25.085254         2    ;  uncertainty k = 0.174677
         9         8         7        10     9        0.000000        2.411761         3    ;  uncertainty k = 0.636073
         9         8         7        10     9      180.000000        1.106762         4    ;  uncertainty k = 0.274894
        10        14        15        16     9        0.000000        0.038705         1    ;  uncertainty k = 0.266105
        10        14        15        16     9      180.000000       13.093215         2    ;  uncertainty k = 0.498414
        10        14        15        16     9        0.000000        1.487596         3    ;  uncertainty k = 0.355839
        10        14        15        16     9      180.000000        1.560890         4    ;  uncertainty k = 0.271117
        10        14        15        36     9        0.000000       -0.287399         1    ;  uncertainty k = 0.412690
        10        14        15        36     9      180.000000        8.431864         2    ;  uncertainty k = 0.502915
        10        14        15        36     9        0.000000        0.776193         3    ;  uncertainty k = 0.217286
        10        14        15        36     9      180.000000        1.104994         4    ;  uncertainty k = 0.244963
        10        14        19        18     9        0.000000        0.192731         1    ;  uncertainty k = 0.412248
        10        14        19        18     9      180.000000        8.048822         2    ;  uncertainty k = 0.422487
        10        14        19        18     9        0.000000        1.417732         3    ;  uncertainty k = 0.273506
        10        14        19        18     9      180.000000        1.844498         4    ;  uncertainty k = 0.086365
        10        14        19        38     9        0.000000       -0.187189         1    ;  uncertainty k = 0.180149
        10        14        19        38     9      180.000000        7.468031         2    ;  uncertainty k = 0.337412
        10        14        19        38     9        0.000000        0.616001         3    ;  uncertainty k = 0.320174
        10        14        19        38     9      180.000000        0.952562         4    ;  uncertainty k = 0.283690
        11        24        25        26     9        0.000000        1.622103         1    ;  uncertainty k = 1.373660
        11        24        25        26     9      180.000000        1.914259         2    ;  uncertainty k = 1.125808
        11        24        25        26     9        0.000000        0.670966         3    ;  uncertainty k = 0.267434
        11        24        25        26     9      180.000000       -0.422268         4    ;  uncertainty k = 0.329782
        11        24        25        28     9        0.000000       -0.933191         1    ;  uncertainty k = 2.200806
        11        24        25        28     9      180.000000        0.421773         2    ;  uncertainty k = 1.012860
        11        24        25        28     9        0.000000        1.727615         3    ;  uncertainty k = 0.354552
        11        24        25        28     9      180.000000        0.148300         4    ;  uncertainty k = 0.147978
        11        24        25        29     9        0.000000       -0.933191         1    ;  uncertainty k = 2.200806
        11        24        25        29     9      180.000000        0.421773         2    ;  uncertainty k = 1.012860
        11        24        25        29     9        0.000000        1.727615         3    ;  uncertainty k = 0.354552
        11        24        25        29     9      180.000000        0.148300         4    ;  uncertainty k = 0.147978
        11        27        26        25     9        0.000000       -0.305368         1    ;  uncertainty k = 1.044274
        11        27        26        25     9      180.000000        1.915330         2    ;  uncertainty k = 1.607623
        11        27        26        25     9        0.000000        0.459930         3    ;  uncertainty k = 0.398957
        11        27        26        25     9      180.000000       -1.655291         4    ;  uncertainty k = 0.446073
        11        27        26        45     9        0.000000       -1.380743         1    ;  uncertainty k = 0.407046
        11        27        26        45     9      180.000000       -0.069373         2    ;  uncertainty k = 0.362423
        11        27        26        45     9        0.000000        1.121929         3    ;  uncertainty k = 0.239501
        11        27        26        45     9      180.000000        0.088947         4    ;  uncertainty k = 0.064325
        11        27        26        46     9        0.000000       -1.380743         1    ;  uncertainty k = 0.407046
        11        27        26        46     9      180.000000       -0.069373         2    ;  uncertainty k = 0.362423
        11        27        26        46     9        0.000000        1.121929         3    ;  uncertainty k = 0.239501
        11        27        26        46     9      180.000000        0.088947         4    ;  uncertainty k = 0.064325
        12         1         2        30     9        0.000000       -0.124063         1    ;  uncertainty k = 0.285752
        12         1         2        30     9      180.000000        8.429730         2    ;  uncertainty k = 0.325000
        12         1         2        30     9        0.000000        1.016755         3    ;  uncertainty k = 0.223514
        12         1         2        30     9      180.000000        1.197269         4    ;  uncertainty k = 0.258522
        12         1         4        32     9        0.000000       -0.080173         1    ;  uncertainty k = 0.261900
        12         1         4        32     9      180.000000        7.619208         2    ;  uncertainty k = 0.294178
        12         1         4        32     9        0.000000        0.938671         3    ;  uncertainty k = 0.315415
        12         1         4        32     9      180.000000        1.030234         4    ;  uncertainty k = 0.301658
        12        11        24        25     9        0.000000        0.501986         1    ;  uncertainty k = 0.355179
        12        11        24        25     9      180.000000       -0.080840         2    ;  uncertainty k = 0.422188
        12        11        24        25     9        0.000000       -0.132988         3    ;  uncertainty k = 0.095206
        12        11        24        25     9      180.000000        0.564720         4    ;  uncertainty k = 0.229130
        12        11        24        43     9        0.000000        1.269899         1    ;  uncertainty k = 0.661204
        12        11        24        43     9      180.000000        0.134043         2    ;  uncertainty k = 0.086778
        12        11        24        43     9        0.000000       -0.092411         3    ;  uncertainty k = 0.058579
        12        11        24        43     9      180.000000        0.251153         4    ;  uncertainty k = 0.070146
        12        11        24        44     9        0.000000        1.269899         1    ;  uncertainty k = 0.661204
        12        11        24        44     9      180.000000        0.134043         2    ;  uncertainty k = 0.086778
        12        11        24        44     9        0.000000       -0.092411         3    ;  uncertainty k = 0.058579
        12        11        24        44     9      180.000000        0.251153         4    ;  uncertainty k = 0.070146
        12        11        27        26     9        0.000000       -0.753443         1    ;  uncertainty k = 0.297512
        12        11        27        26     9      180.000000       -0.059056         2    ;  uncertainty k = 0.499718
        12        11        27        26     9        0.000000        0.278009         3    ;  uncertainty k = 0.126499
        12        11        27        26     9      180.000000        0.550631         4    ;  uncertainty k = 0.272764
        12        11        27        47     9        0.000000        1.211603         1    ;  uncertainty k = 0.609002
        12        11        27        47     9      180.000000        0.077529         2    ;  uncertainty k = 0.158239
        12        11        27        47     9        0.000000        0.009822         3    ;  uncertainty k = 0.046431
        12        11        27        47     9      180.000000        0.247198         4    ;  uncertainty k = 0.068929
        12        11        27        48     9        0.000000        1.211603         1    ;  uncertainty k = 0.609002
        12        11        27        48     9      180.000000        0.077529         2    ;  uncertainty k = 0.158239
        12        11        27        48     9        0.000000        0.009822         3    ;  uncertainty k = 0.046431
        12        11        27        48     9      180.000000        0.247198         4    ;  uncertainty k = 0.068929
        13        12        11        24     9        0.000000        5.364532         1    ;  uncertainty k = 0.279247
        13        12        11        24     9      180.000000       16.566460         2    ;  uncertainty k = 0.065535
        13        12        11        24     9        0.000000        0.341918         3    ;  uncertainty k = 0.210224
        13        12        11        24     9      180.000000       -0.620764         4    ;  uncertainty k = 0.102972
        13        12        11        27     9        0.000000        5.529225         1    ;  uncertainty k = 0.414146
        13        12        11        27     9      180.000000       16.466017         2    ;  uncertainty k = 0.136184
        13        12        11        27     9        0.000000        0.309687         3    ;  uncertainty k = 0.279376
        13        12        11        27     9      180.000000       -0.730256         4    ;  uncertainty k = 0.247167
        14        15        16        17     9        0.000000       -0.101862         1    ;  uncertainty k = 0.169313
        14        15        16        17     9      180.000000       12.991302         2    ;  uncertainty k = 0.476587
        14        15        16        17     9        0.000000       -1.732895         3    ;  uncertainty k = 0.340023
        14        15        16        17     9      180.000000        0.695341         4    ;  uncertainty k = 0.241743
        14        15        16        20     9        0.000000        0.139169         1    ;  uncertainty k = 0.457234
        14        15        16        20     9      180.000000        8.483018         2    ;  uncertainty k = 0.733767
        14        15        16        20     9        0.000000        0.699852         3    ;  uncertainty k = 0.090578
        14        15        16        20     9      180.000000        1.299040         4    ;  uncertainty k = 0.213478
        14        19        18        17     9        0.000000       -0.102670         1    ;  uncertainty k = 0.280862
        14        19        18        17     9      180.000000       16.467570         2    ;  uncertainty k = 0.346024
        14        19        18        17     9        0.000000       -0.207119         3    ;  uncertainty k = 0.328953
        14        19        18        17     9      180.000000        0.673461         4    ;  uncertainty k = 0.319019
        14        19        18        37     9        0.000000        0.103911         1    ;  uncertainty k = 0.190063
        14        19        18        37     9      180.000000        8.956584         2    ;  uncertainty k = 0.757560
        14        19        18        37     9        0.000000        1.507355         3    ;  uncertainty k = 0.273219
        14        19        18        37     9      180.000000        1.906657         4    ;  uncertainty k = 0.273730
        15        14        10        34     9        0.000000       -0.000331         1    ;  uncertainty k = 0.225003
        15        14        10        34     9      180.000000        1.932428         2    ;  uncertainty k = 0.158645
        15        14        10        34     9        0.000000        0.218015         3    ;  uncertainty k = 0.084966
        15        14        10        34     9      180.000000        0.123746         4    ;  uncertainty k = 0.043544
        15        14        10        35     9        0.000000       -0.000331         1    ;  uncertainty k = 0.225003
        15        14        10        35     9      180.000000        1.932428         2    ;  uncertainty k = 0.158645
        15        14        10        35     9        0.000000        0.218015         3    ;  uncertainty k = 0.084966
        15        14        10        35     9      180.000000        0.123746         4    ;  uncertainty k = 0.043544
        15        14        19        18     9        0.000000       -0.227330         1    ;  uncertainty k = 0.233809
        15        14        19        18     9      180.000000        9.261510         2    ;  uncertainty k = 0.588907
        15        14        19        18     9        0.000000       -0.143212         3    ;  uncertainty k = 0.383335
        15        14        19        18     9      180.000000        0.985403         4    ;  uncertainty k = 0.420727
        15        14        19        38     9        0.000000        0.056558         1    ;  uncertainty k = 0.300962
        15        14        19        38     9      180.000000        6.430301         2    ;  uncertainty k = 0.637807
        15        14        19        38     9        0.000000        1.290209         3    ;  uncertainty k = 0.152621
        15        14        19        38     9      180.000000        1.431233         4    ;  uncertainty k = 0.182124
        15        16        17        18     9        0.000000       -0.410645         1    ;  uncertainty k = 0.826512
        15        16        17        18     9      180.000000        7.281658         2    ;  uncertainty k = 0.662964
        15        16        17        18     9        0.000000        0.191517         3    ;  uncertainty k = 0.184137
        15        16        17        18     9      180.000000        0.979182         4    ;  uncertainty k = 0.372782
        15        16        17        22     9        0.000000        0.232637         1    ;  uncertainty k = 0.491634
        15        16        17        22     9      180.000000        8.129819         2    ;  uncertainty k = 0.286193
        15        16        17        22     9        0.000000       -0.317646         3    ;  uncertainty k = 0.623602
        15        16        17        22     9      180.000000        1.319709         4    ;  uncertainty k = 0.365003
        15        16        20        21     9        0.000000        0.675466         1    ;  uncertainty k = 0.606888
        15        16        20        21     9      180.000000        6.936882         2    ;  uncertainty k = 0.262209
        15        16        20        21     9        0.000000        0.046029         3    ;  uncertainty k = 0.357842
        15        16        20        21     9      180.000000        0.945387         4    ;  uncertainty k = 0.107834
        15        16        20        39     9        0.000000        0.681140         1    ;  uncertainty k = 0.842681
        15        16        20        39     9      180.000000        3.548898         2    ;  uncertainty k = 0.782668
        15        16        20        39     9        0.000000        1.215927         3    ;  uncertainty k = 0.313571
        15        16        20        39     9      180.000000        0.047952         4    ;  uncertainty k = 0.100056
        16        15        14        19     9        0.000000       -0.044415         1    ;  uncertainty k = 0.351541
        16        15        14        19     9      180.000000       14.119757         2    ;  uncertainty k = 0.271502
        16        15        14        19     9        0.000000        0.120915         3    ;  uncertainty k = 0.313371
        16        15        14        19     9      180.000000        0.844806         4    ;  uncertainty k = 0.390805
        16        17        18        19     9        0.000000       -0.064799         1    ;  uncertainty k = 0.253686
        16        17        18        19     9      180.000000       12.103544         2    ;  uncertainty k = 0.077826
        16        17        18        19     9        0.000000       -1.424985         3    ;  uncertainty k = 0.374545
        16        17        18        19     9      180.000000        0.850079         4    ;  uncertainty k = 0.230311
        16        17        18        37     9        0.000000        0.057304         1    ;  uncertainty k = 0.355373
        16        17        18        37     9      180.000000        6.673478         2    ;  uncertainty k = 1.123455
        16        17        18        37     9        0.000000        1.323951         3    ;  uncertainty k = 0.122433
        16        17        18        37     9      180.000000        1.105256         4    ;  uncertainty k = 0.527474
        16        17        22        21     9        0.000000        0.326555         1    ;  uncertainty k = 1.046882
        16        17        22        21     9      180.000000       16.548643         2    ;  uncertainty k = 0.946064
        16        17        22        21     9        0.000000       -8.163234         3    ;  uncertainty k = 1.084986
        16        17        22        21     9      180.000000        0.972536         4    ;  uncertainty k = 0.714777
        16        17        22        23     9        0.000000        2.230341         1    ;  uncertainty k = 1.075264
        16        17        22        23     9      180.000000        5.890919         2    ;  uncertainty k = 0.515478
        16        17        22        23     9        0.000000        1.689983         3    ;  uncertainty k = 0.317749
        16        17        22        23     9      180.000000        0.111283         4    ;  uncertainty k = 0.133782
        16        20        21        22     9        0.000000       -0.003176         1    ;  uncertainty k = 0.604235
        16        20        21        22     9      180.000000       25.554538         2    ;  uncertainty k = 0.141760
        16        20        21        22     9        0.000000       -5.215032         3    ;  uncertainty k = 0.783445
        16        20        21        22     9      180.000000        1.985625         4    ;  uncertainty k = 0.644665
        17        16        15        36     9        0.000000        0.193683         1    ;  uncertainty k = 0.394948
        17        16        15        36     9      180.000000        7.595848         2    ;  uncertainty k = 0.980795
        17        16        15        36     9        0.000000        1.361019         3    ;  uncertainty k = 0.322361
        17        16        15        36     9      180.000000        1.117394         4    ;  uncertainty k = 0.434028
        17        16        20        21     9        0.000000        0.420027         1    ;  uncertainty k = 1.061189
        17        16        20        21     9      180.000000       14.182550         2    ;  uncertainty k = 0.925722
        17        16        20        21     9        0.000000      -12.090491         3    ;  uncertainty k = 2.542934
        17        16        20        21     9      180.000000        2.140843         4    ;  uncertainty k = 0.486474
        17        16        20        39     9        0.000000        0.138428         1    ;  uncertainty k = 0.379857
        17        16        20        39     9      180.000000        7.467898         2    ;  uncertainty k = 0.884542
        17        16        20        39     9        0.000000        1.325364         3    ;  uncertainty k = 0.388242
        17        16        20        39     9      180.000000        0.373438         4    ;  uncertainty k = 0.184576
        17        18        19        38     9        0.000000       -0.011095         1    ;  uncertainty k = 0.267475
        17        18        19        38     9      180.000000       11.327250         2    ;  uncertainty k = 0.524910
        17        18        19        38     9        0.000000        1.493658         3    ;  uncertainty k = 0.268860
        17        18        19        38     9      180.000000        1.590448         4    ;  uncertainty k = 0.261766
        17        22        21        20     9        0.000000       -0.394668         1    ;  uncertainty k = 0.721044
        17        22        21        20     9      180.000000       17.537063         2    ;  uncertainty k = 0.450040
        17        22        21        20     9        0.000000       -4.898956         3    ;  uncertainty k = 1.441715
        17        22        21        20     9      180.000000        1.194024         4    ;  uncertainty k = 0.533101
        17        22        23        40     9        0.000000       -0.489294         1    ;  uncertainty k = 0.243611
        17        22        23        40     9      180.000000       -1.085804         2    ;  uncertainty k = 0.137923
        17        22        23        40     9        0.000000        0.931565         3    ;  uncertainty k = 0.048217
        17        22        23        40     9      180.000000        0.203686         4    ;  uncertainty k = 0.044796
        17        22        23        41     9        0.000000       -0.489294         1    ;  uncertainty k = 0.243611
        17        22        23        41     9      180.000000       -1.085804         2    ;  uncertainty k = 0.137923
        17        22        23        41     9        0.000000        0.931565         3    ;  uncertainty k = 0.048217
        17        22        23        41     9      180.000000        0.203686         4    ;  uncertainty k = 0.044796
        17        22        23        42     9        0.000000       -0.489294         1    ;  uncertainty k = 0.243611
        17        22        23        42     9      180.000000       -1.085804         2    ;  uncertainty k = 0.137923
        17        22        23        42     9        0.000000        0.931565         3    ;  uncertainty k = 0.048217
        17        22        23        42     9      180.000000        0.203686         4    ;  uncertainty k = 0.044796
        18        17        16        20     9        0.000000        0.244117         1    ;  uncertainty k = 0.321940
        18        17        16        20     9      180.000000        7.307248         2    ;  uncertainty k = 0.450607
        18        17        16        20     9        0.000000        0.254148         3    ;  uncertainty k = 0.502524
        18        17        16        20     9      180.000000        1.252045         4    ;  uncertainty k = 0.287501
        18        17        22        21     9        0.000000        0.719962         1    ;  uncertainty k = 0.424042
        18        17        22        21     9      180.000000        7.145078         2    ;  uncertainty k = 0.692952
        18        17        22        21     9        0.000000        0.852898         3    ;  uncertainty k = 0.516826
        18        17        22        21     9      180.000000        0.421082         4    ;  uncertainty k = 0.185551
        18        17        22        23     9        0.000000        0.461981         1    ;  uncertainty k = 1.367392
        18        17        22        23     9      180.000000        2.766598         2    ;  uncertainty k = 0.660685
        18        17        22        23     9        0.000000        0.888021         3    ;  uncertainty k = 0.440575
        18        17        22        23     9      180.000000        0.136911         4    ;  uncertainty k = 0.129749
        19        14        10        34     9        0.000000       -0.456836         1    ;  uncertainty k = 0.126952
        19        14        10        34     9      180.000000        1.872407         2    ;  uncertainty k = 0.142970
        19        14        10        34     9        0.000000        0.459454         3    ;  uncertainty k = 0.101697
        19        14        10        34     9      180.000000        0.129664         4    ;  uncertainty k = 0.027178
        19        14        10        35     9        0.000000       -0.456836         1    ;  uncertainty k = 0.126952
        19        14        10        35     9      180.000000        1.872407         2    ;  uncertainty k = 0.142970
        19        14        10        35     9        0.000000        0.459454         3    ;  uncertainty k = 0.101697
        19        14        10        35     9      180.000000        0.129664         4    ;  uncertainty k = 0.027178
        19        14        15        36     9        0.000000        0.203348         1    ;  uncertainty k = 0.263080
        19        14        15        36     9      180.000000        8.139088         2    ;  uncertainty k = 0.508367
        19        14        15        36     9        0.000000        1.528921         3    ;  uncertainty k = 0.280870
        19        14        15        36     9      180.000000        1.728635         4    ;  uncertainty k = 0.156758
        19        18        17        22     9        0.000000        0.333591         1    ;  uncertainty k = 0.472737
        19        18        17        22     9      180.000000       10.048033         2    ;  uncertainty k = 0.552503
        19        18        17        22     9        0.000000        0.609414         3    ;  uncertainty k = 0.193602
        19        18        17        22     9      180.000000        1.110894         4    ;  uncertainty k = 0.213654
        20        16        15        36     9        0.000000        0.114119         1    ;  uncertainty k = 0.290170
        20        16        15        36     9      180.000000        5.795153         2    ;  uncertainty k = 0.663669
        20        16        15        36     9        0.000000        1.052469         3    ;  uncertainty k = 0.199053
        20        16        15        36     9      180.000000        0.612592         4    ;  uncertainty k = 0.322539
        20        16        17        22     9        0.000000       -0.619384         1    ;  uncertainty k = 0.488356
        20        16        17        22     9      180.000000       12.214457         2    ;  uncertainty k = 0.853832
        20        16        17        22     9        0.000000       -4.230451         3    ;  uncertainty k = 1.480560
        20        16        17        22     9      180.000000        1.663895         4    ;  uncertainty k = 0.624334
        20        21        22        23     9        0.000000        0.936433         1    ;  uncertainty k = 1.503572
        20        21        22        23     9      180.000000       12.507479         2    ;  uncertainty k = 0.275252
        20        21        22        23     9        0.000000        1.689891         3    ;  uncertainty k = 0.505928
        20        21        22        23     9      180.000000       -0.273392         4    ;  uncertainty k = 0.338458
        21        22        23        40     9        0.000000        1.238092         1    ;  uncertainty k = 0.404136
        21        22        23        40     9      180.000000       -1.136905         2    ;  uncertainty k = 0.174775
        21        22        23        40     9        0.000000        0.694966         3    ;  uncertainty k = 0.014972
        21        22        23        40     9      180.000000        0.226668         4    ;  uncertainty k = 0.044479
        21        22        23        41     9        0.000000        1.238092         1    ;  uncertainty k = 0.404136
        21        22        23        41     9      180.000000       -1.136905         2    ;  uncertainty k = 0.174775
        21        22        23        41     9        0.000000        0.694966         3    ;  uncertainty k = 0.014972
        21        22        23        41     9      180.000000        0.226668         4    ;  uncertainty k = 0.044479
        21        22        23        42     9        0.000000        1.238092         1    ;  uncertainty k = 0.404136
        21        22        23        42     9      180.000000       -1.136905         2    ;  uncertainty k = 0.174775
        21        22        23        42     9        0.000000        0.694966         3    ;  uncertainty k = 0.014972
        21        22        23        42     9      180.000000        0.226668         4    ;  uncertainty k = 0.044479
        22        17        18        37     9        0.000000        0.415030         1    ;  uncertainty k = 0.446575
        22        17        18        37     9      180.000000        5.279248         2    ;  uncertainty k = 0.531067
        22        17        18        37     9        0.000000        1.118463         3    ;  uncertainty k = 0.220467
        22        17        18        37     9      180.000000        0.729073         4    ;  uncertainty k = 0.390554
        22        21        20        39     9        0.000000        0.386883         1    ;  uncertainty k = 0.582456
        22        21        20        39     9      180.000000       23.653157         2    ;  uncertainty k = 0.465475
        22        21        20        39     9        0.000000        1.548933         3    ;  uncertainty k = 0.853249
        22        21        20        39     9      180.000000        1.212527         4    ;  uncertainty k = 0.504246
        24        11        27        26     9        0.000000        0.455700         1    ;  uncertainty k = 0.956044
        24        11        27        26     9      180.000000        0.746592         2    ;  uncertainty k = 0.652115
        24        11        27        26     9        0.000000        0.887744         3    ;  uncertainty k = 0.123175
        24        11        27        26     9      180.000000        0.181291         4    ;  uncertainty k = 0.224280
        24        11        27        47     9        0.000000       -2.054756         1    ;  uncertainty k = 0.417113
        24        11        27        47     9      180.000000        1.247638         2    ;  uncertainty k = 0.401656
        24        11        27        47     9        0.000000        1.375045         3    ;  uncertainty k = 0.146213
        24        11        27        47     9      180.000000        0.318573         4    ;  uncertainty k = 0.091320
        24        11        27        48     9        0.000000       -2.054756         1    ;  uncertainty k = 0.417113
        24        11        27        48     9      180.000000        1.247638         2    ;  uncertainty k = 0.401656
        24        11        27        48     9        0.000000        1.375045         3    ;  uncertainty k = 0.146213
        24        11        27        48     9      180.000000        0.318573         4    ;  uncertainty k = 0.091320
        24        25        26        27     9        0.000000       -1.853940         1    ;  uncertainty k = 0.894086
        24        25        26        27     9      180.000000        6.642873         2    ;  uncertainty k = 0.503518
        24        25        26        27     9        0.000000       -0.403572         3    ;  uncertainty k = 0.338511
        24        25        26        27     9      180.000000       -0.789465         4    ;  uncertainty k = 0.257253
        24        25        26        45     9        0.000000       -0.858631         1    ;  uncertainty k = 0.367924
        24        25        26        45     9      180.000000       -0.110727         2    ;  uncertainty k = 0.225484
        24        25        26        45     9        0.000000        0.115467         3    ;  uncertainty k = 0.148206
        24        25        26        45     9      180.000000        0.104091         4    ;  uncertainty k = 0.040338
        24        25        26        46     9        0.000000       -0.858631         1    ;  uncertainty k = 0.367924
        24        25        26        46     9      180.000000       -0.110727         2    ;  uncertainty k = 0.225484
        24        25        26        46     9        0.000000        0.115467         3    ;  uncertainty k = 0.148206
        24        25        26        46     9      180.000000        0.104091         4    ;  uncertainty k = 0.040338
        25        24        11        27     9        0.000000        0.277503         1    ;  uncertainty k = 1.263212
        25        24        11        27     9      180.000000       -0.301387         2    ;  uncertainty k = 0.608055
        25        24        11        27     9        0.000000        0.449559         3    ;  uncertainty k = 0.286414
        25        24        11        27     9      180.000000        0.092386         4    ;  uncertainty k = 0.191928
        25        26        27        47     9        0.000000        0.967874         1    ;  uncertainty k = 0.203905
        25        26        27        47     9      180.000000       -1.473231         2    ;  uncertainty k = 0.363156
        25        26        27        47     9        0.000000       -0.231378         3    ;  uncertainty k = 0.196323
        25        26        27        47     9      180.000000        0.045407         4    ;  uncertainty k = 0.166563
        25        26        27        48     9        0.000000        0.967874         1    ;  uncertainty k = 0.203905
        25        26        27        48     9      180.000000       -1.473231         2    ;  uncertainty k = 0.363156
        25        26        27        48     9        0.000000       -0.231378         3    ;  uncertainty k = 0.196323
        25        26        27        48     9      180.000000        0.045407         4    ;  uncertainty k = 0.166563
        26        25        24        43     9        0.000000       -0.020733         1    ;  uncertainty k = 0.684133
        26        25        24        43     9      180.000000       -0.921695         2    ;  uncertainty k = 0.491922
        26        25        24        43     9        0.000000       -0.470058         3    ;  uncertainty k = 0.238448
        26        25        24        43     9      180.000000       -0.050126         4    ;  uncertainty k = 0.110002
        26        25        24        44     9        0.000000       -0.020733         1    ;  uncertainty k = 0.684133
        26        25        24        44     9      180.000000       -0.921695         2    ;  uncertainty k = 0.491922
        26        25        24        44     9        0.000000       -0.470058         3    ;  uncertainty k = 0.238448
        26        25        24        44     9      180.000000       -0.050126         4    ;  uncertainty k = 0.110002
        27        11        24        43     9        0.000000       -1.956321         1    ;  uncertainty k = 0.480532
        27        11        24        43     9      180.000000        1.184674         2    ;  uncertainty k = 0.621116
        27        11        24        43     9        0.000000        1.182130         3    ;  uncertainty k = 0.055068
        27        11        24        43     9      180.000000        0.304014         4    ;  uncertainty k = 0.072294
        27        11        24        44     9        0.000000       -1.956321         1    ;  uncertainty k = 0.480532
        27        11        24        44     9      180.000000        1.184674         2    ;  uncertainty k = 0.621116
        27        11        24        44     9        0.000000        1.182130         3    ;  uncertainty k = 0.055068
        27        11        24        44     9      180.000000        0.304014         4    ;  uncertainty k = 0.072294
        27        26        25        28     9        0.000000       -2.155393         1    ;  uncertainty k = 1.740867
        27        26        25        28     9      180.000000        1.237020         2    ;  uncertainty k = 0.393187
        27        26        25        28     9        0.000000        0.624643         3    ;  uncertainty k = 0.148023
        27        26        25        28     9      180.000000       -0.002705         4    ;  uncertainty k = 0.204694
        27        26        25        29     9        0.000000       -2.155393         1    ;  uncertainty k = 1.740867
        27        26        25        29     9      180.000000        1.237020         2    ;  uncertainty k = 0.393187
        27        26        25        29     9        0.000000        0.624643         3    ;  uncertainty k = 0.148023
        27        26        25        29     9      180.000000       -0.002705         4    ;  uncertainty k = 0.204694
        28        25        24        43     9        0.000000        0.078704         1    ;  uncertainty k = 0.399290
        28        25        24        43     9      180.000000       -0.522117         2    ;  uncertainty k = 0.385484
        28        25        24        43     9        0.000000        0.624500         3    ;  uncertainty k = 0.232756
        28        25        24        43     9      180.000000       -0.098926         4    ;  uncertainty k = 0.138241
        28        25        24        44     9        0.000000        0.078704         1    ;  uncertainty k = 0.399290
        28        25        24        44     9      180.000000       -0.522117         2    ;  uncertainty k = 0.385484
        28        25        24        44     9        0.000000        0.624500         3    ;  uncertainty k = 0.232756
        28        25        24        44     9      180.000000       -0.098926         4    ;  uncertainty k = 0.138241
        28        25        26        45     9        0.000000        0.342243         1    ;  uncertainty k = 0.526825
        28        25        26        45     9      180.000000       -0.629814         2    ;  uncertainty k = 0.145996
        28        25        26        45     9        0.000000        0.905520         3    ;  uncertainty k = 0.159288
        28        25        26        45     9      180.000000        0.038180         4    ;  uncertainty k = 0.033564
        28        25        26        46     9        0.000000        0.342243         1    ;  uncertainty k = 0.526825
        28        25        26        46     9      180.000000       -0.629814         2    ;  uncertainty k = 0.145996
        28        25        26        46     9        0.000000        0.905520         3    ;  uncertainty k = 0.159288
        28        25        26        46     9      180.000000        0.038180         4    ;  uncertainty k = 0.033564
        29        25        24        43     9        0.000000        0.078704         1    ;  uncertainty k = 0.399290
        29        25        24        43     9      180.000000       -0.522117         2    ;  uncertainty k = 0.385484
        29        25        24        43     9        0.000000        0.624500         3    ;  uncertainty k = 0.232756
        29        25        24        43     9      180.000000       -0.098926         4    ;  uncertainty k = 0.138241
        29        25        24        44     9        0.000000        0.078704         1    ;  uncertainty k = 0.399290
        29        25        24        44     9      180.000000       -0.522117         2    ;  uncertainty k = 0.385484
        29        25        24        44     9        0.000000        0.624500         3    ;  uncertainty k = 0.232756
        29        25        24        44     9      180.000000       -0.098926         4    ;  uncertainty k = 0.138241
        29        25        26        45     9        0.000000        0.342243         1    ;  uncertainty k = 0.526825
        29        25        26        45     9      180.000000       -0.629814         2    ;  uncertainty k = 0.145996
        29        25        26        45     9        0.000000        0.905520         3    ;  uncertainty k = 0.159288
        29        25        26        45     9      180.000000        0.038180         4    ;  uncertainty k = 0.033564
        29        25        26        46     9        0.000000        0.342243         1    ;  uncertainty k = 0.526825
        29        25        26        46     9      180.000000       -0.629814         2    ;  uncertainty k = 0.145996
        29        25        26        46     9        0.000000        0.905520         3    ;  uncertainty k = 0.159288
        29        25        26        46     9      180.000000        0.038180         4    ;  uncertainty k = 0.033564
        31         3         4        32     9        0.000000       -0.070401         1    ;  uncertainty k = 0.392760
        31         3         4        32     9      180.000000        8.108007         2    ;  uncertainty k = 0.274255
        31         3         4        32     9        0.000000       -0.194331         3    ;  uncertainty k = 0.222078
        31         3         4        32     9      180.000000        0.252535         4    ;  uncertainty k = 0.184095
        37        18        19        38     9        0.000000        0.021574         1    ;  uncertainty k = 0.254750
        37        18        19        38     9      180.000000        7.940473         2    ;  uncertainty k = 0.282301
        37        18        19        38     9        0.000000       -0.305359         3    ;  uncertainty k = 0.285246
        37        18        19        38     9      180.000000        0.205736         4    ;  uncertainty k = 0.224949
        45        26        27        47     9        0.000000        0.679240         1    ;  uncertainty k = 0.484611
        45        26        27        47     9      180.000000       -0.198650         2    ;  uncertainty k = 0.218968
        45        26        27        47     9        0.000000        0.414229         3    ;  uncertainty k = 0.108348
        45        26        27        47     9      180.000000        0.028294         4    ;  uncertainty k = 0.033497
        45        26        27        48     9        0.000000        0.679240         1    ;  uncertainty k = 0.484611
        45        26        27        48     9      180.000000       -0.198650         2    ;  uncertainty k = 0.218968
        45        26        27        48     9        0.000000        0.414229         3    ;  uncertainty k = 0.108348
        45        26        27        48     9      180.000000        0.028294         4    ;  uncertainty k = 0.033497
        46        26        27        47     9        0.000000        0.679240         1    ;  uncertainty k = 0.484611
        46        26        27        47     9      180.000000       -0.198650         2    ;  uncertainty k = 0.218968
        46        26        27        47     9        0.000000        0.414229         3    ;  uncertainty k = 0.108348
        46        26        27        47     9      180.000000        0.028294         4    ;  uncertainty k = 0.033497
        46        26        27        48     9        0.000000        0.679240         1    ;  uncertainty k = 0.484611
        46        26        27        48     9      180.000000       -0.198650         2    ;  uncertainty k = 0.218968
        46        26        27        48     9        0.000000        0.414229         3    ;  uncertainty k = 0.108348
        46        26        27        48     9      180.000000        0.028294         4    ;  uncertainty k = 0.033497

[ dihedrals ] ; impropers
;       ai        aj        ak        al funct           phase               k        pn
         1         2         4        12     4      180.000000        7.543421         2    ;  uncertainty k = 0.174318
         1         4        12         2     4      180.000000        7.543421         2    ;  uncertainty k = 0.174318
         1        12         2         4     4      180.000000        7.543421         2    ;  uncertainty k = 0.174318
         2         1         6        30     4      180.000000        5.327360         2    ;  uncertainty k = 0.132593
         2         6        30         1     4      180.000000        5.327360         2    ;  uncertainty k = 0.132593
         2        30         1         6     4      180.000000        5.327360         2    ;  uncertainty k = 0.132593
         3         4         5        31     4      180.000000        2.497169         2    ;  uncertainty k = 0.291920
         3         5        31         4     4      180.000000        2.497169         2    ;  uncertainty k = 0.291920
         3        31         4         5     4      180.000000        2.497169         2    ;  uncertainty k = 0.291920
         4         1         3        32     4      180.000000        4.557277         2    ;  uncertainty k = 0.155000
         4         3        32         1     4      180.000000        4.557277         2    ;  uncertainty k = 0.155000
         4        32         1         3     4      180.000000        4.557277         2    ;  uncertainty k = 0.155000
         5         3         6         9     4      180.000000        1.643055         2    ;  uncertainty k = 0.919604
         5         6         9         3     4      180.000000        1.643055         2    ;  uncertainty k = 0.919604
         5         9         3         6     4      180.000000        1.643055         2    ;  uncertainty k = 0.919604
         7         6         8        10     4      180.000000        7.664944         2    ;  uncertainty k = 0.249457
         7         8        10         6     4      180.000000        7.664944         2    ;  uncertainty k = 0.249457
         7        10         6         8     4      180.000000        7.664944         2    ;  uncertainty k = 0.249457
        12         1        11        13     4      180.000000       51.328829         2    ;  uncertainty k = 0.018379
        12        11        13         1     4      180.000000       51.328829         2    ;  uncertainty k = 0.018379
        12        13         1        11     4      180.000000       51.328829         2    ;  uncertainty k = 0.018379
        14        10        15        19     4      180.000000       12.040859         2    ;  uncertainty k = 0.089348
        14        15        19        10     4      180.000000       12.040859         2    ;  uncertainty k = 0.089348
        14        19        10        15     4      180.000000       12.040859         2    ;  uncertainty k = 0.089348
        15        14        16        36     4      180.000000        5.186097         2    ;  uncertainty k = 0.102924
        15        16        36        14     4      180.000000        5.186097         2    ;  uncertainty k = 0.102924
        15        36        14        16     4      180.000000        5.186097         2    ;  uncertainty k = 0.102924
        17        16        18        22     4      180.000000        1.037213         2    ;  uncertainty k = 0.607921
        17        18        22        16     4      180.000000        1.037213         2    ;  uncertainty k = 0.607921
        17        22        16        18     4      180.000000        1.037213         2    ;  uncertainty k = 0.607921
        18        17        19        37     4      180.000000        2.743229         2    ;  uncertainty k = 0.237096
        18        19        37        17     4      180.000000        2.743229         2    ;  uncertainty k = 0.237096
        18        37        17        19     4      180.000000        2.743229         2    ;  uncertainty k = 0.237096
        19        14        18        38     4      180.000000        4.557972         2    ;  uncertainty k = 0.061218
        19        18        38        14     4      180.000000        4.557972         2    ;  uncertainty k = 0.061218
        19        38        14        18     4      180.000000        4.557972         2    ;  uncertainty k = 0.061218
        20        16        21        39     4      180.000000        1.306172         2    ;  uncertainty k = 0.301994
        20        21        39        16     4      180.000000        1.306172         2    ;  uncertainty k = 0.301994
        20        39        16        21     4      180.000000        1.306172         2    ;  uncertainty k = 0.301994

[ pairs ]
;       ai        aj funct
         1         5     1
         1         7     1
         1        24     1
         1        27     1
         1        31     1
         2         3     1
         2         8     1
         2         9     1
         2        10     1
         2        11     1
         2        13     1
         2        32     1
         3         7     1
         3         8     1
         3        12     1
         3        33     1
         4         6     1
         4         9     1
         4        11     1
         4        13     1
         4        30     1
         5        10     1
         5        30     1
         5        32     1
         6        12     1
         6        14     1
         6        31     1
         6        33     1
         6        34     1
         6        35     1
         7        15     1
         7        19     1
         7        30     1
         7        33     1
         8        14     1
         8        34     1
         8        35     1
         9        10     1
         9        31     1
        10        16     1
        10        18     1
        10        36     1
        10        38     1
        11        28     1
        11        29     1
        11        45     1
        11        46     1
        12        25     1
        12        26     1
        12        30     1
        12        32     1
        12        43     1
        12        44     1
        12        47     1
        12        48     1
        13        24     1
        13        27     1
        14        17     1
        14        20     1
        14        37     1
        15        18     1
        15        21     1
        15        22     1
        15        34     1
        15        35     1
        15        38     1
        15        39     1
        16        19     1
        16        23     1
        16        37     1
        17        36     1
        17        38     1
        17        39     1
        17        40     1
        17        41     1
        17        42     1
        18        20     1
        18        21     1
        18        23     1
        19        22     1
        19        34     1
        19        35     1
        19        36     1
        20        23     1
        20        36     1
        21        40     1
        21        41     1
        21        42     1
        22        37     1
        22        39     1
        24        45     1
        24        46     1
        24        47     1
        24        48     1
        25        47     1
        25        48     1
        26        43     1
        26        44     1
        27        28     1
        27        29     1
        27        43     1
        27        44     1
        28        43     1
        28        44     1
        28        45     1
        28        46     1
        29        43     1
        29        44     1
        29        45     1
        29        46     1
        31        32     1
        37        38     1
        45        47     1
        45        48     1
        46        47     1
        46        48     1
