; ITP file created by ByteFF-joint-25, 2026-02-17 09:06:38.646791

[ atomtypes ]
;name           bonded.type        at.num        mass        charge   ptype           sigma         epsilon
 c0bf                                   6      0.0000       0.00000       A     3.31557e-01     4.13208e-01    ;  uncertainty sigma = 0.000014, epsilon = 0.000725
 c1bf                                   6      0.0000       0.00000       A     3.31521e-01     4.13154e-01    ;  uncertainty sigma = 0.000007, epsilon = 0.000504
 c2bf                                   6      0.0000       0.00000       A     3.31518e-01     4.13309e-01    ;  uncertainty sigma = 0.000005, epsilon = 0.000825
 c3bf                                   6      0.0000       0.00000       A     3.31528e-01     4.13473e-01    ;  uncertainty sigma = 0.000007, epsilon = 0.000723
 c4bf                                   6      0.0000       0.00000       A     3.31513e-01     4.13127e-01    ;  uncertainty sigma = 0.000006, epsilon = 0.000908
 c5bf                                   6      0.0000       0.00000       A     3.31528e-01     4.13314e-01    ;  uncertainty sigma = 0.000008, epsilon = 0.000591
 c6bf                                   6      0.0000       0.00000       A     3.31510e-01     4.13714e-01    ;  uncertainty sigma = 0.000012, epsilon = 0.000569
 n7bf                                   7      0.0000       0.00000       A     3.38378e-01     3.93289e-01    ;  uncertainty sigma = 0.000011, epsilon = 0.000859
 n8bf                                   7      0.0000       0.00000       A     3.20594e-01     8.54239e-01    ;  uncertainty sigma = 0.000008, epsilon = 0.000871
 c9bf                                   6      0.0000       0.00000       A     3.39770e-01     4.50660e-01    ;  uncertainty sigma = 0.000014, epsilon = 0.000901
 n10bf                                  7      0.0000       0.00000       A     3.18102e-01     6.84209e-01    ;  uncertainty sigma = 0.000023, epsilon = 0.001253
 c11bf                                  6      0.0000       0.00000       A     3.31495e-01     4.13901e-01    ;  uncertainty sigma = 0.000015, epsilon = 0.000784
 o12bf                                  8      0.0000       0.00000       A     3.04826e-01     6.12797e-01    ;  uncertainty sigma = 0.000012, epsilon = 0.001105
 c13bf                                  6      0.0000       0.00000       A     3.31538e-01     4.13216e-01    ;  uncertainty sigma = 0.000005, epsilon = 0.000759
 c14bf                                  6      0.0000       0.00000       A     3.31521e-01     4.13352e-01    ;  uncertainty sigma = 0.000011, epsilon = 0.001038
 c15bf                                  6      0.0000       0.00000       A     3.31501e-01     4.13562e-01    ;  uncertainty sigma = 0.000007, epsilon = 0.000822
 c16bf                                  6      0.0000       0.00000       A     3.31511e-01     4.13323e-01    ;  uncertainty sigma = 0.000004, epsilon = 0.000386
 c17bf                                  6      0.0000       0.00000       A     3.31515e-01     4.13243e-01    ;  uncertainty sigma = 0.000008, epsilon = 0.000423
 c18bf                                  6      0.0000       0.00000       A     3.31521e-01     4.13491e-01    ;  uncertainty sigma = 0.000007, epsilon = 0.000445
 c19bf                                  6      0.0000       0.00000       A     3.31515e-01     4.13245e-01    ;  uncertainty sigma = 0.000006, epsilon = 0.000305
 n20bf                                  7      0.0000       0.00000       A     3.38405e-01     3.93634e-01    ;  uncertainty sigma = 0.000008, epsilon = 0.000679
 n21bf                                  7      0.0000       0.00000       A     3.20609e-01     8.54245e-01    ;  uncertainty sigma = 0.000014, epsilon = 0.001618
 c22bf                                  6      0.0000       0.00000       A     3.39777e-01     4.51192e-01    ;  uncertainty sigma = 0.000009, epsilon = 0.000493
 c23bf                                  6      0.0000       0.00000       A     3.39771e-01     4.51125e-01    ;  uncertainty sigma = 0.000011, epsilon = 0.001189
 c24bf                                  6      0.0000       0.00000       A     3.39828e-01     4.51153e-01    ;  uncertainty sigma = 0.000018, epsilon = 0.000756
 c25bf                                  6      0.0000       0.00000       A     3.39771e-01     4.51125e-01    ;  uncertainty sigma = 0.000011, epsilon = 0.001189
 o26bf                                  8      0.0000       0.00000       A     3.15635e-01     3.06749e-01    ;  uncertainty sigma = 0.000034, epsilon = 0.003255
 c27bf                                  6      0.0000       0.00000       A     3.39807e-01     4.50939e-01    ;  uncertainty sigma = 0.000007, epsilon = 0.000681
 h28bf                                  1      0.0000       0.00000       A     2.62578e-01     6.71601e-02    ;  uncertainty sigma = 0.000011, epsilon = 0.000803
 h29bf                                  1      0.0000       0.00000       A     2.62571e-01     6.70414e-02    ;  uncertainty sigma = 0.000009, epsilon = 0.000485
 h30bf                                  1      0.0000       0.00000       A     2.62555e-01     6.72036e-02    ;  uncertainty sigma = 0.000009, epsilon = 0.000652
 h31bf                                  1      0.0000       0.00000       A     1.10648e-01     4.14022e-02    ;  uncertainty sigma = 0.000065, epsilon = 0.000771
 h32bf                                  1      0.0000       0.00000       A     2.60077e-01     8.67671e-02    ;  uncertainty sigma = 0.000031, epsilon = 0.000769
 h33bf                                  1      0.0000       0.00000       A     2.60077e-01     8.67671e-02    ;  uncertainty sigma = 0.000031, epsilon = 0.000769
 h34bf                                  1      0.0000       0.00000       A     2.62573e-01     6.70513e-02    ;  uncertainty sigma = 0.000012, epsilon = 0.000419
 h35bf                                  1      0.0000       0.00000       A     2.62570e-01     6.70812e-02    ;  uncertainty sigma = 0.000008, epsilon = 0.000545
 h36bf                                  1      0.0000       0.00000       A     2.62560e-01     6.70765e-02    ;  uncertainty sigma = 0.000008, epsilon = 0.000661
 h37bf                                  1      0.0000       0.00000       A     2.53650e-01     6.72969e-02    ;  uncertainty sigma = 0.000027, epsilon = 0.000384
 h38bf                                  1      0.0000       0.00000       A     2.42200e-01     8.67756e-02    ;  uncertainty sigma = 0.000018, epsilon = 0.000504
 h39bf                                  1      0.0000       0.00000       A     2.42200e-01     8.67756e-02    ;  uncertainty sigma = 0.000018, epsilon = 0.000504
 h40bf                                  1      0.0000       0.00000       A     2.42200e-01     8.67756e-02    ;  uncertainty sigma = 0.000018, epsilon = 0.000504
 h41bf                                  1      0.0000       0.00000       A     2.42189e-01     8.63959e-02    ;  uncertainty sigma = 0.000027, epsilon = 0.000861
 h42bf                                  1      0.0000       0.00000       A     2.42189e-01     8.63959e-02    ;  uncertainty sigma = 0.000027, epsilon = 0.000861
 h43bf                                  1      0.0000       0.00000       A     2.42126e-01     8.63315e-02    ;  uncertainty sigma = 0.000045, epsilon = 0.001386
 h44bf                                  1      0.0000       0.00000       A     2.42189e-01     8.63959e-02    ;  uncertainty sigma = 0.000027, epsilon = 0.000861
 h45bf                                  1      0.0000       0.00000       A     2.42189e-01     8.63959e-02    ;  uncertainty sigma = 0.000027, epsilon = 0.000861
 h46bf                                  1      0.0000       0.00000       A     2.42179e-01     8.68347e-02    ;  uncertainty sigma = 0.000010, epsilon = 0.000523
 h47bf                                  1      0.0000       0.00000       A     2.42179e-01     8.68347e-02    ;  uncertainty sigma = 0.000010, epsilon = 0.000523
 h48bf                                  1      0.0000       0.00000       A     2.42179e-01     8.68349e-02    ;  uncertainty sigma = 0.000010, epsilon = 0.000523

[ moleculetype ]
;name             nrexcl
 MOL                   3

[ atoms ]
;       nr            type      resi   res      atom      cgnr      charge          mass ; qtot
         1            c0bf         1   UNL        c0         1    -0.19096       12.0110 ; qtot   -0.191
         2            c1bf         1   UNL        c1         2     0.00104       12.0110 ; qtot   -0.190
         3            c2bf         1   UNL        c2         3    -0.16589       12.0110 ; qtot   -0.356
         4            c3bf         1   UNL        c3         4    -0.05531       12.0110 ; qtot   -0.411
         5            c4bf         1   UNL        c4         5     0.00012       12.0110 ; qtot   -0.411
         6            c5bf         1   UNL        c5         6    -0.23778       12.0110 ; qtot   -0.649
         7            c6bf         1   UNL        c6         7     0.37242       12.0110 ; qtot   -0.276
         8            n7bf         1   UNL        n7         8    -0.50882       14.0070 ; qtot   -0.785
         9            n8bf         1   UNL        n8         9    -0.03606       14.0070 ; qtot   -0.821
        10            c9bf         1   UNL        c9        10    -0.04285       12.0110 ; qtot   -0.864
        11           n10bf         1   UNL       n10        11    -0.46482       14.0070 ; qtot   -1.329
        12           c11bf         1   UNL       c11        12     0.67759       12.0110 ; qtot   -0.651
        13           o12bf         1   UNL       o12        13    -0.58814       15.9990 ; qtot   -1.239
        14           c13bf         1   UNL       c13        14    -0.12484       12.0110 ; qtot   -1.364
        15           c14bf         1   UNL       c14        15    -0.04511       12.0110 ; qtot   -1.409
        16           c15bf         1   UNL       c15        16    -0.23109       12.0110 ; qtot   -1.641
        17           c16bf         1   UNL       c16        17    -0.02934       12.0110 ; qtot   -1.670
        18           c17bf         1   UNL       c17        18    -0.15075       12.0110 ; qtot   -1.821
        19           c18bf         1   UNL       c18        19    -0.08408       12.0110 ; qtot   -1.905
        20           c19bf         1   UNL       c19        20     0.35572       12.0110 ; qtot   -1.549
        21           n20bf         1   UNL       n20        21    -0.51263       14.0070 ; qtot   -2.062
        22           n21bf         1   UNL       n21        22     0.08156       14.0070 ; qtot   -1.980
        23           c22bf         1   UNL       c22        23     0.05157       12.0110 ; qtot   -1.928
        24           c23bf         1   UNL       c23        24     0.06855       12.0110 ; qtot   -1.860
        25           c24bf         1   UNL       c24        25     0.10063       12.0110 ; qtot   -1.759
        26           c25bf         1   UNL       c25        26     0.06855       12.0110 ; qtot   -1.691
        27           o26bf         1   UNL       o26        27    -0.40043       15.9990 ; qtot   -2.091
        28           c27bf         1   UNL       c27        28     0.11703       12.0110 ; qtot   -1.974
        29           h28bf         1   UNL       h28        29     0.15476        1.0080 ; qtot   -1.819
        30           h29bf         1   UNL       h29        30     0.14369        1.0080 ; qtot   -1.676
        31           h30bf         1   UNL       h30        31     0.14819        1.0080 ; qtot   -1.527
        32           h31bf         1   UNL       h31        32     0.32635        1.0080 ; qtot   -1.201
        33           h32bf         1   UNL       h32        33     0.06237        1.0080 ; qtot   -1.139
        34           h33bf         1   UNL       h33        34     0.06237        1.0080 ; qtot   -1.076
        35           h34bf         1   UNL       h34        35     0.14114        1.0080 ; qtot   -0.935
        36           h35bf         1   UNL       h35        36     0.13808        1.0080 ; qtot   -0.797
        37           h36bf         1   UNL       h36        37     0.13508        1.0080 ; qtot   -0.662
        38           h37bf         1   UNL       h37        38     0.04907        1.0080 ; qtot   -0.613
        39           h38bf         1   UNL       h38        39     0.05623        1.0080 ; qtot   -0.557
        40           h39bf         1   UNL       h39        40     0.05623        1.0080 ; qtot   -0.501
        41           h40bf         1   UNL       h40        41     0.05623        1.0080 ; qtot   -0.444
        42           h41bf         1   UNL       h41        42     0.06938        1.0080 ; qtot   -0.375
        43           h42bf         1   UNL       h42        43     0.06938        1.0080 ; qtot   -0.306
        44           h43bf         1   UNL       h43        44     0.06482        1.0080 ; qtot   -0.241
        45           h44bf         1   UNL       h44        45     0.06938        1.0080 ; qtot   -0.171
        46           h45bf         1   UNL       h45        46     0.06938        1.0080 ; qtot   -0.102
        47           h46bf         1   UNL       h46        47     0.03400        1.0080 ; qtot   -0.068
        48           h47bf         1   UNL       h47        48     0.03400        1.0080 ; qtot   -0.034
        49           h48bf         1   UNL       h48        49     0.03399        1.0080 ; qtot    0.000

[ bonds ]
;       ai        aj funct               r               k
         1         2     1        0.139301   357890.610986    ;  uncertainty r = 0.000133, k = 5.519643
         1         4     1        0.142213   330938.822363    ;  uncertainty r = 0.000133, k = 4.579559
         1        12     1        0.149374   251531.921338    ;  uncertainty r = 0.000023, k = 6.261574
         2         6     1        0.139999   363006.485645    ;  uncertainty r = 0.000069, k = 6.271874
         2        29     1        0.108653   332478.301465    ;  uncertainty r = 0.000034, k = 2.064899
         3         4     1        0.138457   368323.567188    ;  uncertainty r = 0.000033, k = 4.272000
         3         5     1        0.140241   361457.762109    ;  uncertainty r = 0.000056, k = 6.051144
         3        30     1        0.108853   335453.757764    ;  uncertainty r = 0.000006, k = 1.637827
         4        31     1        0.108622   332072.108203    ;  uncertainty r = 0.000013, k = 2.491243
         5         6     1        0.141748   402033.164453    ;  uncertainty r = 0.000053, k = 8.102804
         5         9     1        0.137355   299898.542529    ;  uncertainty r = 0.000054, k = 10.387935
         6         7     1        0.144237   227879.935840    ;  uncertainty r = 0.000102, k = 6.894467
         7         8     1        0.132794   464042.935254    ;  uncertainty r = 0.000108, k = 8.320606
         7        10     1        0.150186   236656.759424    ;  uncertainty r = 0.000066, k = 3.903695
         8         9     1        0.136819   297875.211816    ;  uncertainty r = 0.000034, k = 11.449749
         9        32     1        0.101020   416476.391699    ;  uncertainty r = 0.000031, k = 2.687214
        10        14     1        0.151852   234345.293506    ;  uncertainty r = 0.000055, k = 5.924888
        10        33     1        0.109655   309009.033984    ;  uncertainty r = 0.000022, k = 1.344390
        10        34     1        0.109655   309009.033984    ;  uncertainty r = 0.000022, k = 1.344390
        11        12     1        0.137424   289698.025098    ;  uncertainty r = 0.000115, k = 19.224206
        11        24     1        0.147886   278652.254883    ;  uncertainty r = 0.000060, k = 3.981929
        11        26     1        0.147886   278652.229346    ;  uncertainty r = 0.000060, k = 3.981920
        12        13     1        0.123715   753163.157715    ;  uncertainty r = 0.000044, k = 8.106821
        14        15     1        0.138878   355681.804248    ;  uncertainty r = 0.000078, k = 4.999732
        14        19     1        0.141853   329614.621094    ;  uncertainty r = 0.000053, k = 3.742422
        15        16     1        0.140610   362340.809814    ;  uncertainty r = 0.000048, k = 2.617317
        15        35     1        0.108865   333059.730371    ;  uncertainty r = 0.000031, k = 0.836914
        16        17     1        0.141822   408951.218457    ;  uncertainty r = 0.000074, k = 10.080650
        16        20     1        0.143279   239541.712207    ;  uncertainty r = 0.000047, k = 17.246369
        17        18     1        0.140312   358538.283154    ;  uncertainty r = 0.000024, k = 4.438997
        17        22     1        0.137029   268521.606982    ;  uncertainty r = 0.000070, k = 6.075996
        18        19     1        0.138774   365693.500293    ;  uncertainty r = 0.000069, k = 5.039267
        18        36     1        0.108813   336980.595996    ;  uncertainty r = 0.000030, k = 1.562422
        19        37     1        0.108844   334144.010498    ;  uncertainty r = 0.000020, k = 1.114922
        20        21     1        0.132586   472090.955273    ;  uncertainty r = 0.000019, k = 5.450469
        20        38     1        0.108414   339507.237598    ;  uncertainty r = 0.000020, k = 3.182844
        21        22     1        0.136613   279811.384277    ;  uncertainty r = 0.000032, k = 6.120866
        22        23     1        0.144822   254675.667187    ;  uncertainty r = 0.000011, k = 6.797011
        23        39     1        0.109372   311001.796777    ;  uncertainty r = 0.000009, k = 1.495199
        23        40     1        0.109372   311001.796777    ;  uncertainty r = 0.000009, k = 1.495199
        23        41     1        0.109372   311001.796777    ;  uncertainty r = 0.000009, k = 1.495165
        24        25     1        0.155273   208063.522021    ;  uncertainty r = 0.000054, k = 10.590030
        24        42     1        0.109420   306325.747754    ;  uncertainty r = 0.000028, k = 2.718938
        24        43     1        0.109420   306325.747754    ;  uncertainty r = 0.000028, k = 2.718938
        25        26     1        0.155273   208063.534790    ;  uncertainty r = 0.000054, k = 10.590039
        25        27     1        0.140251   271458.961914    ;  uncertainty r = 0.000104, k = 16.122548
        25        44     1        0.109719   308422.191211    ;  uncertainty r = 0.000101, k = 3.782319
        26        45     1        0.109420   306325.747754    ;  uncertainty r = 0.000028, k = 2.718955
        26        46     1        0.109420   306325.747754    ;  uncertainty r = 0.000028, k = 2.718955
        27        28     1        0.142151   254341.922705    ;  uncertainty r = 0.000116, k = 8.267875
        28        47     1        0.109790   310921.942236    ;  uncertainty r = 0.000028, k = 1.142112
        28        48     1        0.109790   310921.942236    ;  uncertainty r = 0.000028, k = 1.142112
        28        49     1        0.109790   310921.942236    ;  uncertainty r = 0.000028, k = 1.142112

[ angles ]
;       ai        aj        ak funct           theta             cth
         1         2         6     1      119.564957      551.541423    ;  uncertainty theta = 0.004821, k = 0.090256
         1         2        29     1      119.553467      272.072938    ;  uncertainty theta = 0.004662, k = 0.063488
         1         4         3     1      124.211426      526.787728    ;  uncertainty theta = 0.003695, k = 0.053717
         1         4        31     1      118.384506      272.564272    ;  uncertainty theta = 0.002351, k = 0.061922
         1        12        11     1      113.259521      432.339750    ;  uncertainty theta = 0.004888, k = 0.181920
         1        12        13     1      125.552147      521.020619    ;  uncertainty theta = 0.003145, k = 0.224544
         2         1         4     1      123.880905      470.789986    ;  uncertainty theta = 0.004285, k = 0.063919
         2         1        12     1      118.612869      335.306109    ;  uncertainty theta = 0.001564, k = 0.327491
         2         6         5     1      118.245811      402.437359    ;  uncertainty theta = 0.004081, k = 0.223322
         2         6         7     1      130.980911      340.582299    ;  uncertainty theta = 0.005266, k = 0.243104
         3         4        31     1      118.879723      285.284083    ;  uncertainty theta = 0.002141, k = 0.043676
         3         5         6     1      120.131310      384.007068    ;  uncertainty theta = 0.004965, k = 0.118436
         3         5         9     1      130.198334      397.392312    ;  uncertainty theta = 0.003255, k = 0.093308
         4         1        12     1      118.524918      353.306515    ;  uncertainty theta = 0.003639, k = 0.234623
         4         3         5     1      116.828529      524.627799    ;  uncertainty theta = 0.003336, k = 0.072829
         4         3        30     1      121.386131      281.712462    ;  uncertainty theta = 0.001348, k = 0.030188
         5         3        30     1      122.777321      290.478490    ;  uncertainty theta = 0.001564, k = 0.109602
         5         6         7     1      103.998215      708.434336    ;  uncertainty theta = 0.004962, k = 0.137798
         5         9         8     1      108.842224      996.723721    ;  uncertainty theta = 0.004081, k = 0.105419
         5         9        32     1      115.986206      285.859753    ;  uncertainty theta = 0.007695, k = 0.071788
         6         2        29     1      121.169113      288.657343    ;  uncertainty theta = 0.003728, k = 0.079639
         6         5         9     1      105.274963      700.907018    ;  uncertainty theta = 0.002661, k = 0.052176
         6         7         8     1      112.630661      860.299248    ;  uncertainty theta = 0.001628, k = 0.090026
         6         7        10     1      127.263443      340.079154    ;  uncertainty theta = 0.004431, k = 0.139332
         7         8         9     1      109.341934      911.155252    ;  uncertainty theta = 0.003499, k = 0.133312
         7        10        14     1      111.392555      536.308792    ;  uncertainty theta = 0.002460, k = 0.088519
         7        10        33     1      107.143959      404.578742    ;  uncertainty theta = 0.002686, k = 0.090739
         7        10        34     1      107.143959      404.578742    ;  uncertainty theta = 0.002686, k = 0.090739
         8         7        10     1      121.567871      407.510402    ;  uncertainty theta = 0.004731, k = 0.115348
         8         9        32     1      108.270935      348.057521    ;  uncertainty theta = 0.007607, k = 0.026261
        10        14        15     1      120.627419      417.702645    ;  uncertainty theta = 0.002664, k = 0.132336
        10        14        19     1      120.019066      426.041405    ;  uncertainty theta = 0.001582, k = 0.065678
        11        12        13     1      124.291649      727.484764    ;  uncertainty theta = 0.004549, k = 0.162488
        11        24        25     1       90.170067      940.587792    ;  uncertainty theta = 0.004577, k = 0.052611
        11        24        42     1      112.788963      438.882198    ;  uncertainty theta = 0.002051, k = 0.072400
        11        24        43     1      112.788963      438.882198    ;  uncertainty theta = 0.002051, k = 0.072400
        11        26        25     1       90.170067      940.587792    ;  uncertainty theta = 0.004577, k = 0.052610
        11        26        45     1      112.788963      438.882198    ;  uncertainty theta = 0.002051, k = 0.072400
        11        26        46     1      112.788963      438.882198    ;  uncertainty theta = 0.002051, k = 0.072400
        12        11        24     1      117.808205      396.173362    ;  uncertainty theta = 0.002098, k = 0.163919
        12        11        26     1      117.808205      396.173426    ;  uncertainty theta = 0.002098, k = 0.163919
        14        10        33     1      107.888550      399.523926    ;  uncertainty theta = 0.002530, k = 0.043709
        14        10        34     1      107.888550      399.523926    ;  uncertainty theta = 0.002530, k = 0.043709
        14        15        16     1      119.289772      558.193712    ;  uncertainty theta = 0.003219, k = 0.122129
        14        15        35     1      119.584335      269.982630    ;  uncertainty theta = 0.002413, k = 0.116556
        14        19        18     1      123.962013      512.155858    ;  uncertainty theta = 0.003468, k = 0.054940
        14        19        37     1      118.398865      272.960544    ;  uncertainty theta = 0.001458, k = 0.038725
        15        14        19     1      121.663498      462.508015    ;  uncertainty theta = 0.001823, k = 0.105066
        15        16        17     1      118.102539      400.506754    ;  uncertainty theta = 0.004595, k = 0.180009
        15        16        20     1      132.179718      359.717319    ;  uncertainty theta = 0.006200, k = 0.128760
        16        15        35     1      121.214096      298.178982    ;  uncertainty theta = 0.003395, k = 0.061731
        16        17        18     1      120.913010      374.999108    ;  uncertainty theta = 0.004884, k = 0.054475
        16        17        22     1      106.404091      697.540333    ;  uncertainty theta = 0.004689, k = 0.150230
        16        20        21     1      111.952271      924.544486    ;  uncertainty theta = 0.003164, k = 0.105679
        16        20        38     1      126.710922      247.103917    ;  uncertainty theta = 0.002209, k = 0.157386
        17        16        20     1      103.710167      705.662985    ;  uncertainty theta = 0.004424, k = 0.082111
        17        18        19     1      117.165916      531.174876    ;  uncertainty theta = 0.004124, k = 0.097049
        17        18        36     1      122.596191      288.134279    ;  uncertainty theta = 0.002016, k = 0.124041
        17        22        21     1      109.755417      962.555644    ;  uncertainty theta = 0.004363, k = 0.117872
        17        22        23     1      121.588524      397.546301    ;  uncertainty theta = 0.004284, k = 0.038130
        18        17        22     1      128.426102      374.228653    ;  uncertainty theta = 0.002264, k = 0.126874
        18        19        37     1      118.810913      287.863171    ;  uncertainty theta = 0.002838, k = 0.040854
        19        18        36     1      121.119118      280.780198    ;  uncertainty theta = 0.001843, k = 0.055624
        20        21        22     1      109.082703      918.912851    ;  uncertainty theta = 0.002451, k = 0.089301
        21        20        38     1      118.620132      291.417937    ;  uncertainty theta = 0.003326, k = 0.060507
        21        22        23     1      115.846268      451.679961    ;  uncertainty theta = 0.003722, k = 0.096729
        22        23        39     1      108.738235      473.260510    ;  uncertainty theta = 0.001513, k = 0.071563
        22        23        40     1      108.738235      473.260510    ;  uncertainty theta = 0.001513, k = 0.071563
        22        23        41     1      108.738235      473.260510    ;  uncertainty theta = 0.001513, k = 0.071563
        24        11        26     1       92.264267      628.393502    ;  uncertainty theta = 0.005058, k = 0.114504
        24        25        26     1       87.826523      746.067097    ;  uncertainty theta = 0.006431, k = 0.177655
        24        25        27     1      114.456039      600.891057    ;  uncertainty theta = 0.004709, k = 0.213714
        24        25        44     1      113.634315      409.023188    ;  uncertainty theta = 0.005064, k = 0.112004
        25        24        42     1      113.951538      394.203780    ;  uncertainty theta = 0.001792, k = 0.051681
        25        24        43     1      113.951538      394.203780    ;  uncertainty theta = 0.001792, k = 0.051681
        25        26        45     1      113.951538      394.203780    ;  uncertainty theta = 0.001792, k = 0.051681
        25        26        46     1      113.951538      394.203780    ;  uncertainty theta = 0.001792, k = 0.051681
        25        27        28     1      108.857704      562.642149    ;  uncertainty theta = 0.001881, k = 0.084991
        26        25        27     1      114.456039      600.891057    ;  uncertainty theta = 0.004709, k = 0.213713
        26        25        44     1      113.634315      409.023188    ;  uncertainty theta = 0.005064, k = 0.112004
        27        25        44     1      110.120956      398.840809    ;  uncertainty theta = 0.004854, k = 0.196995
        27        28        47     1      109.565384      461.804595    ;  uncertainty theta = 0.001851, k = 0.048412
        27        28        48     1      109.565384      461.804595    ;  uncertainty theta = 0.001851, k = 0.048412
        27        28        49     1      109.565384      461.804595    ;  uncertainty theta = 0.001851, k = 0.048412
        33        10        34     1      104.231224      312.600330    ;  uncertainty theta = 0.003830, k = 0.046404
        39        23        40     1      107.639565      320.364250    ;  uncertainty theta = 0.001662, k = 0.012143
        39        23        41     1      107.639565      320.364250    ;  uncertainty theta = 0.001662, k = 0.012143
        40        23        41     1      107.639565      320.364250    ;  uncertainty theta = 0.001662, k = 0.012143
        42        24        43     1      109.176193      265.067199    ;  uncertainty theta = 0.002975, k = 0.174994
        45        26        46     1      109.176193      265.067199    ;  uncertainty theta = 0.002975, k = 0.174994
        47        28        48     1      108.546814      326.057844    ;  uncertainty theta = 0.002133, k = 0.023569
        47        28        49     1      108.546814      326.057844    ;  uncertainty theta = 0.002133, k = 0.023569
        48        28        49     1      108.546814      326.057844    ;  uncertainty theta = 0.002133, k = 0.023569

[ dihedrals ] ; propers for gromacs 4.5 or higher, use funct 9
;       ai        aj        ak        al funct           phase               k        pn
         1         2         6         5     9        0.000000        0.116932         1    ;  uncertainty k = 0.484447
         1         2         6         5     9      180.000000       13.046328         2    ;  uncertainty k = 0.159586
         1         2         6         5     9        0.000000       -1.349567         3    ;  uncertainty k = 0.369336
         1         2         6         5     9      180.000000        0.865644         4    ;  uncertainty k = 0.175929
         1         2         6         7     9        0.000000        0.340153         1    ;  uncertainty k = 0.235489
         1         2         6         7     9      180.000000        8.203515         2    ;  uncertainty k = 0.287758
         1         2         6         7     9        0.000000        0.645809         3    ;  uncertainty k = 0.355381
         1         2         6         7     9      180.000000        1.239615         4    ;  uncertainty k = 0.158704
         1         4         3         5     9        0.000000       -0.020454         1    ;  uncertainty k = 0.177017
         1         4         3         5     9      180.000000       16.502772         2    ;  uncertainty k = 0.231440
         1         4         3         5     9        0.000000       -0.101360         3    ;  uncertainty k = 0.365680
         1         4         3         5     9      180.000000        0.752355         4    ;  uncertainty k = 0.234473
         1         4         3        30     9        0.000000       -0.047361         1    ;  uncertainty k = 0.066808
         1         4         3        30     9      180.000000        9.549123         2    ;  uncertainty k = 0.565388
         1         4         3        30     9        0.000000        1.450961         3    ;  uncertainty k = 0.242868
         1         4         3        30     9      180.000000        1.876285         4    ;  uncertainty k = 0.305576
         1        12        11        24     9        0.000000       -1.390353         1    ;  uncertainty k = 0.763185
         1        12        11        24     9      180.000000       15.402013         2    ;  uncertainty k = 0.222574
         1        12        11        24     9        0.000000        3.033992         3    ;  uncertainty k = 0.575145
         1        12        11        24     9      180.000000       -1.518324         4    ;  uncertainty k = 0.406250
         1        12        11        26     9        0.000000       -1.390352         1    ;  uncertainty k = 0.763184
         1        12        11        26     9      180.000000       15.402015         2    ;  uncertainty k = 0.222573
         1        12        11        26     9        0.000000        3.033992         3    ;  uncertainty k = 0.575147
         1        12        11        26     9      180.000000       -1.518325         4    ;  uncertainty k = 0.406249
         2         1         4         3     9        0.000000       -0.087027         1    ;  uncertainty k = 0.244244
         2         1         4         3     9      180.000000        8.932201         2    ;  uncertainty k = 0.444806
         2         1         4         3     9        0.000000       -0.376796         3    ;  uncertainty k = 0.438770
         2         1         4         3     9      180.000000        1.180701         4    ;  uncertainty k = 0.230095
         2         1         4        31     9        0.000000        0.058934         1    ;  uncertainty k = 0.404572
         2         1         4        31     9      180.000000        6.384827         2    ;  uncertainty k = 0.394567
         2         1         4        31     9        0.000000        1.118532         3    ;  uncertainty k = 0.273859
         2         1         4        31     9      180.000000        1.564999         4    ;  uncertainty k = 0.192276
         2         1        12        11     9        0.000000        0.600924         1    ;  uncertainty k = 0.448286
         2         1        12        11     9      180.000000        5.166988         2    ;  uncertainty k = 0.258734
         2         1        12        11     9        0.000000       -0.193949         3    ;  uncertainty k = 0.167706
         2         1        12        11     9      180.000000        0.372028         4    ;  uncertainty k = 0.153137
         2         1        12        13     9        0.000000       -0.310048         1    ;  uncertainty k = 0.203865
         2         1        12        13     9      180.000000        4.605042         2    ;  uncertainty k = 0.409602
         2         1        12        13     9        0.000000        0.419053         3    ;  uncertainty k = 0.135217
         2         1        12        13     9      180.000000        0.155189         4    ;  uncertainty k = 0.057078
         2         6         5         3     9        0.000000       -0.347795         1    ;  uncertainty k = 0.459188
         2         6         5         3     9      180.000000        7.247115         2    ;  uncertainty k = 0.616365
         2         6         5         3     9        0.000000        0.278281         3    ;  uncertainty k = 0.222996
         2         6         5         3     9      180.000000        1.014047         4    ;  uncertainty k = 0.366022
         2         6         5         9     9        0.000000        0.049121         1    ;  uncertainty k = 0.663419
         2         6         5         9     9      180.000000        8.201425         2    ;  uncertainty k = 0.308668
         2         6         5         9     9        0.000000       -0.120608         3    ;  uncertainty k = 0.476881
         2         6         5         9     9      180.000000        1.250492         4    ;  uncertainty k = 0.349358
         2         6         7         8     9        0.000000        0.826162         1    ;  uncertainty k = 0.382528
         2         6         7         8     9      180.000000        6.190620         2    ;  uncertainty k = 0.289155
         2         6         7         8     9        0.000000        0.241510         3    ;  uncertainty k = 0.712790
         2         6         7         8     9      180.000000        0.834464         4    ;  uncertainty k = 0.130881
         2         6         7        10     9        0.000000       -0.771627         1    ;  uncertainty k = 0.927329
         2         6         7        10     9      180.000000        3.863316         2    ;  uncertainty k = 0.694042
         2         6         7        10     9        0.000000        1.329437         3    ;  uncertainty k = 0.278242
         2         6         7        10     9      180.000000        0.103163         4    ;  uncertainty k = 0.182625
         3         4         1        12     9        0.000000        0.119036         1    ;  uncertainty k = 0.655472
         3         4         1        12     9      180.000000        7.971135         2    ;  uncertainty k = 0.812167
         3         4         1        12     9        0.000000        1.463998         3    ;  uncertainty k = 0.294387
         3         4         1        12     9      180.000000        1.834871         4    ;  uncertainty k = 0.240056
         3         5         6         7     9        0.000000        0.059610         1    ;  uncertainty k = 0.442776
         3         5         6         7     9      180.000000        6.768386         2    ;  uncertainty k = 0.307401
         3         5         6         7     9        0.000000        0.195735         3    ;  uncertainty k = 0.448923
         3         5         6         7     9      180.000000        1.329349         4    ;  uncertainty k = 0.331306
         3         5         9         8     9        0.000000        0.886281         1    ;  uncertainty k = 1.098076
         3         5         9         8     9      180.000000        6.930610         2    ;  uncertainty k = 0.573674
         3         5         9         8     9        0.000000        0.566873         3    ;  uncertainty k = 0.666430
         3         5         9         8     9      180.000000        0.350329         4    ;  uncertainty k = 0.198999
         3         5         9        32     9        0.000000        1.684208         1    ;  uncertainty k = 1.042794
         3         5         9        32     9      180.000000        1.768290         2    ;  uncertainty k = 0.539277
         3         5         9        32     9        0.000000        1.346138         3    ;  uncertainty k = 0.538056
         3         5         9        32     9      180.000000        0.078390         4    ;  uncertainty k = 0.146327
         4         1         2         6     9        0.000000       -0.092129         1    ;  uncertainty k = 0.399687
         4         1         2         6     9      180.000000       12.582475         2    ;  uncertainty k = 0.494475
         4         1         2         6     9        0.000000       -0.013003         3    ;  uncertainty k = 0.347162
         4         1         2         6     9      180.000000        1.093350         4    ;  uncertainty k = 0.392823
         4         1         2        29     9        0.000000        0.180958         1    ;  uncertainty k = 0.269740
         4         1         2        29     9      180.000000        7.910055         2    ;  uncertainty k = 0.331255
         4         1         2        29     9        0.000000        1.319702         3    ;  uncertainty k = 0.279138
         4         1         2        29     9      180.000000        1.726706         4    ;  uncertainty k = 0.227206
         4         1        12        11     9        0.000000        0.680642         1    ;  uncertainty k = 0.550203
         4         1        12        11     9      180.000000        5.235298         2    ;  uncertainty k = 0.219534
         4         1        12        11     9        0.000000       -0.115225         3    ;  uncertainty k = 0.131589
         4         1        12        11     9      180.000000        0.396020         4    ;  uncertainty k = 0.132332
         4         1        12        13     9        0.000000       -1.045747         1    ;  uncertainty k = 0.263075
         4         1        12        13     9      180.000000        4.434363         2    ;  uncertainty k = 0.250332
         4         1        12        13     9        0.000000        0.402617         3    ;  uncertainty k = 0.051387
         4         1        12        13     9      180.000000        0.212276         4    ;  uncertainty k = 0.097938
         4         3         5         6     9        0.000000       -0.039528         1    ;  uncertainty k = 0.360110
         4         3         5         6     9      180.000000       12.223980         2    ;  uncertainty k = 0.147041
         4         3         5         6     9        0.000000       -1.476317         3    ;  uncertainty k = 0.458977
         4         3         5         6     9      180.000000        0.785169         4    ;  uncertainty k = 0.232026
         4         3         5         9     9        0.000000        0.095817         1    ;  uncertainty k = 0.323260
         4         3         5         9     9      180.000000       10.198279         2    ;  uncertainty k = 0.669072
         4         3         5         9     9        0.000000        0.761172         3    ;  uncertainty k = 0.248656
         4         3         5         9     9      180.000000        1.155106         4    ;  uncertainty k = 0.267037
         5         3         4        31     9        0.000000        0.020201         1    ;  uncertainty k = 0.239621
         5         3         4        31     9      180.000000       11.515177         2    ;  uncertainty k = 0.362719
         5         3         4        31     9        0.000000        1.442206         3    ;  uncertainty k = 0.229612
         5         3         4        31     9      180.000000        1.572988         4    ;  uncertainty k = 0.273801
         5         6         2        29     9        0.000000        0.021049         1    ;  uncertainty k = 0.437381
         5         6         2        29     9      180.000000        7.589677         2    ;  uncertainty k = 1.077056
         5         6         2        29     9        0.000000        1.291232         3    ;  uncertainty k = 0.293903
         5         6         2        29     9      180.000000        1.184903         4    ;  uncertainty k = 0.376675
         5         6         7         8     9        0.000000        0.525694         1    ;  uncertainty k = 0.585562
         5         6         7         8     9      180.000000       13.225874         2    ;  uncertainty k = 1.229020
         5         6         7         8     9        0.000000      -10.881793         3    ;  uncertainty k = 2.055356
         5         6         7         8     9      180.000000        2.097479         4    ;  uncertainty k = 0.616590
         5         6         7        10     9        0.000000        1.372201         1    ;  uncertainty k = 1.069972
         5         6         7        10     9      180.000000        8.408227         2    ;  uncertainty k = 0.566405
         5         6         7        10     9        0.000000        1.830690         3    ;  uncertainty k = 0.815413
         5         6         7        10     9      180.000000        0.294104         4    ;  uncertainty k = 0.323415
         5         9         8         7     9        0.000000       -0.735377         1    ;  uncertainty k = 0.955210
         5         9         8         7     9      180.000000       16.921826         2    ;  uncertainty k = 0.597359
         5         9         8         7     9        0.000000       -4.758182         3    ;  uncertainty k = 1.060596
         5         9         8         7     9      180.000000        1.042894         4    ;  uncertainty k = 0.541181
         6         2         1        12     9        0.000000       -0.043360         1    ;  uncertainty k = 0.177639
         6         2         1        12     9      180.000000       11.305246         2    ;  uncertainty k = 0.705253
         6         2         1        12     9        0.000000        1.508260         3    ;  uncertainty k = 0.187150
         6         2         1        12     9      180.000000        1.779964         4    ;  uncertainty k = 0.352452
         6         5         3        30     9        0.000000       -0.079207         1    ;  uncertainty k = 0.437025
         6         5         3        30     9      180.000000        6.554820         2    ;  uncertainty k = 1.135387
         6         5         3        30     9        0.000000        1.285894         3    ;  uncertainty k = 0.177534
         6         5         3        30     9      180.000000        1.089324         4    ;  uncertainty k = 0.499245
         6         5         9         8     9        0.000000        0.192211         1    ;  uncertainty k = 0.525280
         6         5         9         8     9      180.000000       17.333367         2    ;  uncertainty k = 1.037914
         6         5         9         8     9        0.000000       -8.667724         3    ;  uncertainty k = 1.697254
         6         5         9         8     9      180.000000        0.783056         4    ;  uncertainty k = 0.547660
         6         5         9        32     9        0.000000        4.174647         1    ;  uncertainty k = 2.132802
         6         5         9        32     9      180.000000        6.078060         2    ;  uncertainty k = 1.352423
         6         5         9        32     9        0.000000        1.445084         3    ;  uncertainty k = 0.311994
         6         5         9        32     9      180.000000       -0.003343         4    ;  uncertainty k = 0.142183
         6         7         8         9     9        0.000000       -0.382739         1    ;  uncertainty k = 0.611378
         6         7         8         9     9      180.000000       24.986673         2    ;  uncertainty k = 0.249588
         6         7         8         9     9        0.000000       -4.371573         3    ;  uncertainty k = 0.958361
         6         7         8         9     9      180.000000        1.985930         4    ;  uncertainty k = 0.350031
         6         7        10        14     9        0.000000       -0.219472         1    ;  uncertainty k = 0.595256
         6         7        10        14     9      180.000000        1.009361         2    ;  uncertainty k = 0.492771
         6         7        10        14     9        0.000000        1.021850         3    ;  uncertainty k = 0.203874
         6         7        10        14     9      180.000000        0.177295         4    ;  uncertainty k = 0.139075
         6         7        10        33     9        0.000000       -1.172714         1    ;  uncertainty k = 0.299862
         6         7        10        33     9      180.000000        1.778697         2    ;  uncertainty k = 0.483344
         6         7        10        33     9        0.000000        0.836016         3    ;  uncertainty k = 0.164434
         6         7        10        33     9      180.000000        0.103976         4    ;  uncertainty k = 0.070250
         6         7        10        34     9        0.000000       -1.172714         1    ;  uncertainty k = 0.299862
         6         7        10        34     9      180.000000        1.778697         2    ;  uncertainty k = 0.483344
         6         7        10        34     9        0.000000        0.836016         3    ;  uncertainty k = 0.164434
         6         7        10        34     9      180.000000        0.103976         4    ;  uncertainty k = 0.070250
         7         6         2        29     9        0.000000       -0.075732         1    ;  uncertainty k = 0.373691
         7         6         2        29     9      180.000000        5.530075         2    ;  uncertainty k = 0.785057
         7         6         2        29     9        0.000000        1.148242         3    ;  uncertainty k = 0.218171
         7         6         2        29     9      180.000000        0.667036         4    ;  uncertainty k = 0.310744
         7         6         5         9     9        0.000000       -0.348122         1    ;  uncertainty k = 0.325978
         7         6         5         9     9      180.000000       12.209373         2    ;  uncertainty k = 0.679250
         7         6         5         9     9        0.000000       -3.640404         3    ;  uncertainty k = 1.600358
         7         6         5         9     9      180.000000        1.623726         4    ;  uncertainty k = 0.580195
         7         8         9        32     9        0.000000        4.146951         1    ;  uncertainty k = 2.343420
         7         8         9        32     9      180.000000       12.933883         2    ;  uncertainty k = 0.107932
         7         8         9        32     9        0.000000        1.688928         3    ;  uncertainty k = 1.037473
         7         8         9        32     9      180.000000       -0.435126         4    ;  uncertainty k = 0.238097
         7        10        14        15     9        0.000000        1.125767         1    ;  uncertainty k = 0.280968
         7        10        14        15     9      180.000000        1.582624         2    ;  uncertainty k = 0.145585
         7        10        14        15     9        0.000000        0.251099         3    ;  uncertainty k = 0.119564
         7        10        14        15     9      180.000000        0.218169         4    ;  uncertainty k = 0.100669
         7        10        14        19     9        0.000000        0.677225         1    ;  uncertainty k = 0.230016
         7        10        14        19     9      180.000000        1.476972         2    ;  uncertainty k = 0.184467
         7        10        14        19     9        0.000000        0.624089         3    ;  uncertainty k = 0.171843
         7        10        14        19     9      180.000000        0.245812         4    ;  uncertainty k = 0.039097
         8         7        10        14     9        0.000000        1.063376         1    ;  uncertainty k = 0.422390
         8         7        10        14     9      180.000000        1.551769         2    ;  uncertainty k = 0.326914
         8         7        10        14     9        0.000000        0.022498         3    ;  uncertainty k = 0.191423
         8         7        10        14     9      180.000000        0.137975         4    ;  uncertainty k = 0.090538
         8         7        10        33     9        0.000000        1.790050         1    ;  uncertainty k = 0.115920
         8         7        10        33     9      180.000000        2.198230         2    ;  uncertainty k = 0.276881
         8         7        10        33     9        0.000000        0.156678         3    ;  uncertainty k = 0.099927
         8         7        10        33     9      180.000000        0.109872         4    ;  uncertainty k = 0.046931
         8         7        10        34     9        0.000000        1.790050         1    ;  uncertainty k = 0.115920
         8         7        10        34     9      180.000000        2.198230         2    ;  uncertainty k = 0.276881
         8         7        10        34     9        0.000000        0.156678         3    ;  uncertainty k = 0.099927
         8         7        10        34     9      180.000000        0.109872         4    ;  uncertainty k = 0.046931
         9         5         3        30     9        0.000000        0.450750         1    ;  uncertainty k = 0.405862
         9         5         3        30     9      180.000000        5.635644         2    ;  uncertainty k = 0.842858
         9         5         3        30     9        0.000000        1.140302         3    ;  uncertainty k = 0.128611
         9         5         3        30     9      180.000000        0.743210         4    ;  uncertainty k = 0.331366
         9         8         7        10     9        0.000000       -0.553032         1    ;  uncertainty k = 0.833109
         9         8         7        10     9      180.000000       25.085254         2    ;  uncertainty k = 0.174677
         9         8         7        10     9        0.000000        2.411761         3    ;  uncertainty k = 0.636073
         9         8         7        10     9      180.000000        1.106762         4    ;  uncertainty k = 0.274894
        10        14        15        16     9        0.000000        0.038705         1    ;  uncertainty k = 0.266105
        10        14        15        16     9      180.000000       13.093215         2    ;  uncertainty k = 0.498414
        10        14        15        16     9        0.000000        1.487596         3    ;  uncertainty k = 0.355839
        10        14        15        16     9      180.000000        1.560890         4    ;  uncertainty k = 0.271117
        10        14        15        35     9        0.000000       -0.287399         1    ;  uncertainty k = 0.412690
        10        14        15        35     9      180.000000        8.431864         2    ;  uncertainty k = 0.502915
        10        14        15        35     9        0.000000        0.776193         3    ;  uncertainty k = 0.217286
        10        14        15        35     9      180.000000        1.104994         4    ;  uncertainty k = 0.244963
        10        14        19        18     9        0.000000        0.192731         1    ;  uncertainty k = 0.412248
        10        14        19        18     9      180.000000        8.048822         2    ;  uncertainty k = 0.422487
        10        14        19        18     9        0.000000        1.417732         3    ;  uncertainty k = 0.273506
        10        14        19        18     9      180.000000        1.844498         4    ;  uncertainty k = 0.086365
        10        14        19        37     9        0.000000       -0.187189         1    ;  uncertainty k = 0.180149
        10        14        19        37     9      180.000000        7.468031         2    ;  uncertainty k = 0.337413
        10        14        19        37     9        0.000000        0.616002         3    ;  uncertainty k = 0.320174
        10        14        19        37     9      180.000000        0.952562         4    ;  uncertainty k = 0.283689
        11        24        25        26     9        0.000000        2.774556         1    ;  uncertainty k = 2.471644
        11        24        25        26     9      180.000000       17.131360         2    ;  uncertainty k = 0.637593
        11        24        25        26     9        0.000000       -1.407911         3    ;  uncertainty k = 0.628280
        11        24        25        26     9      180.000000        2.269257         4    ;  uncertainty k = 0.529486
        11        24        25        27     9        0.000000       -0.489796         1    ;  uncertainty k = 2.599819
        11        24        25        27     9      180.000000        4.400113         2    ;  uncertainty k = 0.858804
        11        24        25        27     9        0.000000        2.639279         3    ;  uncertainty k = 0.553615
        11        24        25        27     9      180.000000        0.652576         4    ;  uncertainty k = 0.502430
        11        24        25        44     9        0.000000        1.659438         1    ;  uncertainty k = 1.661367
        11        24        25        44     9      180.000000        2.837372         2    ;  uncertainty k = 0.475463
        11        24        25        44     9        0.000000        1.020033         3    ;  uncertainty k = 0.738317
        11        24        25        44     9      180.000000        0.412913         4    ;  uncertainty k = 0.265207
        11        26        25        24     9        0.000000        2.774556         1    ;  uncertainty k = 2.471645
        11        26        25        24     9      180.000000       17.131362         2    ;  uncertainty k = 0.637593
        11        26        25        24     9        0.000000       -1.407910         3    ;  uncertainty k = 0.628280
        11        26        25        24     9      180.000000        2.269257         4    ;  uncertainty k = 0.529486
        11        26        25        27     9        0.000000       -0.489796         1    ;  uncertainty k = 2.599815
        11        26        25        27     9      180.000000        4.400112         2    ;  uncertainty k = 0.858801
        11        26        25        27     9        0.000000        2.639279         3    ;  uncertainty k = 0.553614
        11        26        25        27     9      180.000000        0.652576         4    ;  uncertainty k = 0.502430
        11        26        25        44     9        0.000000        1.659438         1    ;  uncertainty k = 1.661367
        11        26        25        44     9      180.000000        2.837371         2    ;  uncertainty k = 0.475464
        11        26        25        44     9        0.000000        1.020033         3    ;  uncertainty k = 0.738317
        11        26        25        44     9      180.000000        0.412913         4    ;  uncertainty k = 0.265207
        12         1         2        29     9        0.000000       -0.126244         1    ;  uncertainty k = 0.347631
        12         1         2        29     9      180.000000        8.388976         2    ;  uncertainty k = 0.344663
        12         1         2        29     9        0.000000        1.069546         3    ;  uncertainty k = 0.248005
        12         1         2        29     9      180.000000        1.214838         4    ;  uncertainty k = 0.252425
        12         1         4        31     9        0.000000       -0.078451         1    ;  uncertainty k = 0.191759
        12         1         4        31     9      180.000000        7.569875         2    ;  uncertainty k = 0.315618
        12         1         4        31     9        0.000000        0.957856         3    ;  uncertainty k = 0.334079
        12         1         4        31     9      180.000000        1.035123         4    ;  uncertainty k = 0.323449
        12        11        24        25     9        0.000000        1.683884         1    ;  uncertainty k = 1.354272
        12        11        24        25     9      180.000000        1.950147         2    ;  uncertainty k = 0.678247
        12        11        24        25     9        0.000000        0.747871         3    ;  uncertainty k = 0.357982
        12        11        24        25     9      180.000000       -0.100196         4    ;  uncertainty k = 0.220185
        12        11        24        42     9        0.000000        0.474731         1    ;  uncertainty k = 0.330252
        12        11        24        42     9      180.000000        0.515264         2    ;  uncertainty k = 0.290629
        12        11        24        42     9        0.000000       -0.038859         3    ;  uncertainty k = 0.083074
        12        11        24        42     9      180.000000        0.292841         4    ;  uncertainty k = 0.188866
        12        11        24        43     9        0.000000        0.474731         1    ;  uncertainty k = 0.330252
        12        11        24        43     9      180.000000        0.515264         2    ;  uncertainty k = 0.290629
        12        11        24        43     9        0.000000       -0.038859         3    ;  uncertainty k = 0.083074
        12        11        24        43     9      180.000000        0.292841         4    ;  uncertainty k = 0.188866
        12        11        26        25     9        0.000000        1.683884         1    ;  uncertainty k = 1.354271
        12        11        26        25     9      180.000000        1.950148         2    ;  uncertainty k = 0.678246
        12        11        26        25     9        0.000000        0.747871         3    ;  uncertainty k = 0.357982
        12        11        26        25     9      180.000000       -0.100197         4    ;  uncertainty k = 0.220185
        12        11        26        45     9        0.000000        0.474731         1    ;  uncertainty k = 0.330251
        12        11        26        45     9      180.000000        0.515264         2    ;  uncertainty k = 0.290628
        12        11        26        45     9        0.000000       -0.038859         3    ;  uncertainty k = 0.083074
        12        11        26        45     9      180.000000        0.292841         4    ;  uncertainty k = 0.188866
        12        11        26        46     9        0.000000        0.474731         1    ;  uncertainty k = 0.330251
        12        11        26        46     9      180.000000        0.515264         2    ;  uncertainty k = 0.290628
        12        11        26        46     9        0.000000       -0.038859         3    ;  uncertainty k = 0.083074
        12        11        26        46     9      180.000000        0.292841         4    ;  uncertainty k = 0.188866
        13        12        11        24     9        0.000000        6.243741         1    ;  uncertainty k = 0.676079
        13        12        11        24     9      180.000000       16.449314         2    ;  uncertainty k = 0.338528
        13        12        11        24     9        0.000000        0.389921         3    ;  uncertainty k = 0.457331
        13        12        11        24     9      180.000000        0.013070         4    ;  uncertainty k = 0.381365
        13        12        11        26     9        0.000000        6.243742         1    ;  uncertainty k = 0.676080
        13        12        11        26     9      180.000000       16.449314         2    ;  uncertainty k = 0.338529
        13        12        11        26     9        0.000000        0.389922         3    ;  uncertainty k = 0.457331
        13        12        11        26     9      180.000000        0.013069         4    ;  uncertainty k = 0.381364
        14        15        16        17     9        0.000000       -0.101862         1    ;  uncertainty k = 0.169313
        14        15        16        17     9      180.000000       12.991302         2    ;  uncertainty k = 0.476587
        14        15        16        17     9        0.000000       -1.732895         3    ;  uncertainty k = 0.340023
        14        15        16        17     9      180.000000        0.695341         4    ;  uncertainty k = 0.241743
        14        15        16        20     9        0.000000        0.139169         1    ;  uncertainty k = 0.457234
        14        15        16        20     9      180.000000        8.483018         2    ;  uncertainty k = 0.733767
        14        15        16        20     9        0.000000        0.699852         3    ;  uncertainty k = 0.090578
        14        15        16        20     9      180.000000        1.299040         4    ;  uncertainty k = 0.213478
        14        19        18        17     9        0.000000       -0.102670         1    ;  uncertainty k = 0.280862
        14        19        18        17     9      180.000000       16.467570         2    ;  uncertainty k = 0.346024
        14        19        18        17     9        0.000000       -0.207119         3    ;  uncertainty k = 0.328953
        14        19        18        17     9      180.000000        0.673461         4    ;  uncertainty k = 0.319019
        14        19        18        36     9        0.000000        0.103911         1    ;  uncertainty k = 0.190063
        14        19        18        36     9      180.000000        8.956584         2    ;  uncertainty k = 0.757559
        14        19        18        36     9        0.000000        1.507355         3    ;  uncertainty k = 0.273220
        14        19        18        36     9      180.000000        1.906657         4    ;  uncertainty k = 0.273730
        15        14        10        33     9        0.000000       -0.000331         1    ;  uncertainty k = 0.225003
        15        14        10        33     9      180.000000        1.932428         2    ;  uncertainty k = 0.158645
        15        14        10        33     9        0.000000        0.218015         3    ;  uncertainty k = 0.084966
        15        14        10        33     9      180.000000        0.123746         4    ;  uncertainty k = 0.043544
        15        14        10        34     9        0.000000       -0.000331         1    ;  uncertainty k = 0.225003
        15        14        10        34     9      180.000000        1.932428         2    ;  uncertainty k = 0.158645
        15        14        10        34     9        0.000000        0.218015         3    ;  uncertainty k = 0.084966
        15        14        10        34     9      180.000000        0.123746         4    ;  uncertainty k = 0.043544
        15        14        19        18     9        0.000000       -0.227330         1    ;  uncertainty k = 0.233809
        15        14        19        18     9      180.000000        9.261510         2    ;  uncertainty k = 0.588907
        15        14        19        18     9        0.000000       -0.143212         3    ;  uncertainty k = 0.383335
        15        14        19        18     9      180.000000        0.985403         4    ;  uncertainty k = 0.420727
        15        14        19        37     9        0.000000        0.056558         1    ;  uncertainty k = 0.300961
        15        14        19        37     9      180.000000        6.430301         2    ;  uncertainty k = 0.637808
        15        14        19        37     9        0.000000        1.290209         3    ;  uncertainty k = 0.152621
        15        14        19        37     9      180.000000        1.431233         4    ;  uncertainty k = 0.182124
        15        16        17        18     9        0.000000       -0.410645         1    ;  uncertainty k = 0.826512
        15        16        17        18     9      180.000000        7.281658         2    ;  uncertainty k = 0.662964
        15        16        17        18     9        0.000000        0.191517         3    ;  uncertainty k = 0.184137
        15        16        17        18     9      180.000000        0.979182         4    ;  uncertainty k = 0.372782
        15        16        17        22     9        0.000000        0.232637         1    ;  uncertainty k = 0.491634
        15        16        17        22     9      180.000000        8.129819         2    ;  uncertainty k = 0.286193
        15        16        17        22     9        0.000000       -0.317646         3    ;  uncertainty k = 0.623602
        15        16        17        22     9      180.000000        1.319709         4    ;  uncertainty k = 0.365003
        15        16        20        21     9        0.000000        0.675466         1    ;  uncertainty k = 0.606888
        15        16        20        21     9      180.000000        6.936882         2    ;  uncertainty k = 0.262209
        15        16        20        21     9        0.000000        0.046029         3    ;  uncertainty k = 0.357842
        15        16        20        21     9      180.000000        0.945387         4    ;  uncertainty k = 0.107834
        15        16        20        38     9        0.000000        0.681140         1    ;  uncertainty k = 0.842681
        15        16        20        38     9      180.000000        3.548898         2    ;  uncertainty k = 0.782668
        15        16        20        38     9        0.000000        1.215927         3    ;  uncertainty k = 0.313571
        15        16        20        38     9      180.000000        0.047952         4    ;  uncertainty k = 0.100056
        16        15        14        19     9        0.000000       -0.044415         1    ;  uncertainty k = 0.351541
        16        15        14        19     9      180.000000       14.119757         2    ;  uncertainty k = 0.271502
        16        15        14        19     9        0.000000        0.120915         3    ;  uncertainty k = 0.313371
        16        15        14        19     9      180.000000        0.844806         4    ;  uncertainty k = 0.390805
        16        17        18        19     9        0.000000       -0.064799         1    ;  uncertainty k = 0.253686
        16        17        18        19     9      180.000000       12.103544         2    ;  uncertainty k = 0.077826
        16        17        18        19     9        0.000000       -1.424985         3    ;  uncertainty k = 0.374545
        16        17        18        19     9      180.000000        0.850079         4    ;  uncertainty k = 0.230311
        16        17        18        36     9        0.000000        0.057304         1    ;  uncertainty k = 0.355374
        16        17        18        36     9      180.000000        6.673476         2    ;  uncertainty k = 1.123455
        16        17        18        36     9        0.000000        1.323951         3    ;  uncertainty k = 0.122434
        16        17        18        36     9      180.000000        1.105257         4    ;  uncertainty k = 0.527474
        16        17        22        21     9        0.000000        0.326555         1    ;  uncertainty k = 1.046882
        16        17        22        21     9      180.000000       16.548643         2    ;  uncertainty k = 0.946064
        16        17        22        21     9        0.000000       -8.163234         3    ;  uncertainty k = 1.084986
        16        17        22        21     9      180.000000        0.972536         4    ;  uncertainty k = 0.714777
        16        17        22        23     9        0.000000        2.230341         1    ;  uncertainty k = 1.075264
        16        17        22        23     9      180.000000        5.890919         2    ;  uncertainty k = 0.515478
        16        17        22        23     9        0.000000        1.689983         3    ;  uncertainty k = 0.317749
        16        17        22        23     9      180.000000        0.111283         4    ;  uncertainty k = 0.133782
        16        20        21        22     9        0.000000       -0.003176         1    ;  uncertainty k = 0.604235
        16        20        21        22     9      180.000000       25.554538         2    ;  uncertainty k = 0.141760
        16        20        21        22     9        0.000000       -5.215032         3    ;  uncertainty k = 0.783445
        16        20        21        22     9      180.000000        1.985625         4    ;  uncertainty k = 0.644665
        17        16        15        35     9        0.000000        0.193683         1    ;  uncertainty k = 0.394948
        17        16        15        35     9      180.000000        7.595848         2    ;  uncertainty k = 0.980795
        17        16        15        35     9        0.000000        1.361019         3    ;  uncertainty k = 0.322361
        17        16        15        35     9      180.000000        1.117394         4    ;  uncertainty k = 0.434028
        17        16        20        21     9        0.000000        0.420027         1    ;  uncertainty k = 1.061189
        17        16        20        21     9      180.000000       14.182550         2    ;  uncertainty k = 0.925722
        17        16        20        21     9        0.000000      -12.090491         3    ;  uncertainty k = 2.542934
        17        16        20        21     9      180.000000        2.140843         4    ;  uncertainty k = 0.486474
        17        16        20        38     9        0.000000        0.138428         1    ;  uncertainty k = 0.379857
        17        16        20        38     9      180.000000        7.467898         2    ;  uncertainty k = 0.884542
        17        16        20        38     9        0.000000        1.325364         3    ;  uncertainty k = 0.388242
        17        16        20        38     9      180.000000        0.373438         4    ;  uncertainty k = 0.184576
        17        18        19        37     9        0.000000       -0.011095         1    ;  uncertainty k = 0.267476
        17        18        19        37     9      180.000000       11.327250         2    ;  uncertainty k = 0.524909
        17        18        19        37     9        0.000000        1.493657         3    ;  uncertainty k = 0.268860
        17        18        19        37     9      180.000000        1.590448         4    ;  uncertainty k = 0.261766
        17        22        21        20     9        0.000000       -0.394668         1    ;  uncertainty k = 0.721044
        17        22        21        20     9      180.000000       17.537063         2    ;  uncertainty k = 0.450040
        17        22        21        20     9        0.000000       -4.898956         3    ;  uncertainty k = 1.441715
        17        22        21        20     9      180.000000        1.194024         4    ;  uncertainty k = 0.533101
        17        22        23        39     9        0.000000       -0.489294         1    ;  uncertainty k = 0.243611
        17        22        23        39     9      180.000000       -1.085804         2    ;  uncertainty k = 0.137923
        17        22        23        39     9        0.000000        0.931565         3    ;  uncertainty k = 0.048217
        17        22        23        39     9      180.000000        0.203686         4    ;  uncertainty k = 0.044796
        17        22        23        40     9        0.000000       -0.489294         1    ;  uncertainty k = 0.243611
        17        22        23        40     9      180.000000       -1.085804         2    ;  uncertainty k = 0.137923
        17        22        23        40     9        0.000000        0.931565         3    ;  uncertainty k = 0.048217
        17        22        23        40     9      180.000000        0.203686         4    ;  uncertainty k = 0.044796
        17        22        23        41     9        0.000000       -0.489294         1    ;  uncertainty k = 0.243611
        17        22        23        41     9      180.000000       -1.085804         2    ;  uncertainty k = 0.137923
        17        22        23        41     9        0.000000        0.931565         3    ;  uncertainty k = 0.048217
        17        22        23        41     9      180.000000        0.203686         4    ;  uncertainty k = 0.044796
        18        17        16        20     9        0.000000        0.244117         1    ;  uncertainty k = 0.321940
        18        17        16        20     9      180.000000        7.307248         2    ;  uncertainty k = 0.450607
        18        17        16        20     9        0.000000        0.254148         3    ;  uncertainty k = 0.502524
        18        17        16        20     9      180.000000        1.252045         4    ;  uncertainty k = 0.287501
        18        17        22        21     9        0.000000        0.719962         1    ;  uncertainty k = 0.424042
        18        17        22        21     9      180.000000        7.145078         2    ;  uncertainty k = 0.692952
        18        17        22        21     9        0.000000        0.852898         3    ;  uncertainty k = 0.516826
        18        17        22        21     9      180.000000        0.421082         4    ;  uncertainty k = 0.185551
        18        17        22        23     9        0.000000        0.461981         1    ;  uncertainty k = 1.367392
        18        17        22        23     9      180.000000        2.766598         2    ;  uncertainty k = 0.660685
        18        17        22        23     9        0.000000        0.888021         3    ;  uncertainty k = 0.440575
        18        17        22        23     9      180.000000        0.136911         4    ;  uncertainty k = 0.129749
        19        14        10        33     9        0.000000       -0.456836         1    ;  uncertainty k = 0.126952
        19        14        10        33     9      180.000000        1.872407         2    ;  uncertainty k = 0.142970
        19        14        10        33     9        0.000000        0.459454         3    ;  uncertainty k = 0.101697
        19        14        10        33     9      180.000000        0.129664         4    ;  uncertainty k = 0.027178
        19        14        10        34     9        0.000000       -0.456836         1    ;  uncertainty k = 0.126952
        19        14        10        34     9      180.000000        1.872407         2    ;  uncertainty k = 0.142970
        19        14        10        34     9        0.000000        0.459454         3    ;  uncertainty k = 0.101697
        19        14        10        34     9      180.000000        0.129664         4    ;  uncertainty k = 0.027178
        19        14        15        35     9        0.000000        0.203348         1    ;  uncertainty k = 0.263080
        19        14        15        35     9      180.000000        8.139088         2    ;  uncertainty k = 0.508367
        19        14        15        35     9        0.000000        1.528921         3    ;  uncertainty k = 0.280870
        19        14        15        35     9      180.000000        1.728635         4    ;  uncertainty k = 0.156758
        19        18        17        22     9        0.000000        0.333591         1    ;  uncertainty k = 0.472737
        19        18        17        22     9      180.000000       10.048033         2    ;  uncertainty k = 0.552503
        19        18        17        22     9        0.000000        0.609414         3    ;  uncertainty k = 0.193602
        19        18        17        22     9      180.000000        1.110894         4    ;  uncertainty k = 0.213654
        20        16        15        35     9        0.000000        0.114119         1    ;  uncertainty k = 0.290170
        20        16        15        35     9      180.000000        5.795153         2    ;  uncertainty k = 0.663669
        20        16        15        35     9        0.000000        1.052469         3    ;  uncertainty k = 0.199053
        20        16        15        35     9      180.000000        0.612592         4    ;  uncertainty k = 0.322539
        20        16        17        22     9        0.000000       -0.619384         1    ;  uncertainty k = 0.488356
        20        16        17        22     9      180.000000       12.214457         2    ;  uncertainty k = 0.853832
        20        16        17        22     9        0.000000       -4.230451         3    ;  uncertainty k = 1.480560
        20        16        17        22     9      180.000000        1.663895         4    ;  uncertainty k = 0.624334
        20        21        22        23     9        0.000000        0.936433         1    ;  uncertainty k = 1.503572
        20        21        22        23     9      180.000000       12.507479         2    ;  uncertainty k = 0.275252
        20        21        22        23     9        0.000000        1.689891         3    ;  uncertainty k = 0.505928
        20        21        22        23     9      180.000000       -0.273392         4    ;  uncertainty k = 0.338458
        21        22        23        39     9        0.000000        1.238092         1    ;  uncertainty k = 0.404136
        21        22        23        39     9      180.000000       -1.136905         2    ;  uncertainty k = 0.174775
        21        22        23        39     9        0.000000        0.694966         3    ;  uncertainty k = 0.014972
        21        22        23        39     9      180.000000        0.226668         4    ;  uncertainty k = 0.044479
        21        22        23        40     9        0.000000        1.238092         1    ;  uncertainty k = 0.404136
        21        22        23        40     9      180.000000       -1.136905         2    ;  uncertainty k = 0.174775
        21        22        23        40     9        0.000000        0.694966         3    ;  uncertainty k = 0.014972
        21        22        23        40     9      180.000000        0.226668         4    ;  uncertainty k = 0.044479
        21        22        23        41     9        0.000000        1.238092         1    ;  uncertainty k = 0.404136
        21        22        23        41     9      180.000000       -1.136905         2    ;  uncertainty k = 0.174775
        21        22        23        41     9        0.000000        0.694966         3    ;  uncertainty k = 0.014972
        21        22        23        41     9      180.000000        0.226668         4    ;  uncertainty k = 0.044479
        22        17        18        36     9        0.000000        0.415030         1    ;  uncertainty k = 0.446574
        22        17        18        36     9      180.000000        5.279249         2    ;  uncertainty k = 0.531066
        22        17        18        36     9        0.000000        1.118463         3    ;  uncertainty k = 0.220467
        22        17        18        36     9      180.000000        0.729073         4    ;  uncertainty k = 0.390554
        22        21        20        38     9        0.000000        0.386883         1    ;  uncertainty k = 0.582456
        22        21        20        38     9      180.000000       23.653157         2    ;  uncertainty k = 0.465475
        22        21        20        38     9        0.000000        1.548933         3    ;  uncertainty k = 0.853249
        22        21        20        38     9      180.000000        1.212527         4    ;  uncertainty k = 0.504246
        24        11        26        25     9        0.000000        2.659844         1    ;  uncertainty k = 1.616656
        24        11        26        25     9      180.000000       15.201030         2    ;  uncertainty k = 0.209368
        24        11        26        25     9        0.000000       -0.507775         3    ;  uncertainty k = 0.416161
        24        11        26        25     9      180.000000        0.147458         4    ;  uncertainty k = 0.501119
        24        11        26        45     9        0.000000       -0.385384         1    ;  uncertainty k = 0.853783
        24        11        26        45     9      180.000000        3.585561         2    ;  uncertainty k = 0.752906
        24        11        26        45     9        0.000000        0.818448         3    ;  uncertainty k = 0.212064
        24        11        26        45     9      180.000000        0.341386         4    ;  uncertainty k = 0.371413
        24        11        26        46     9        0.000000       -0.385384         1    ;  uncertainty k = 0.853783
        24        11        26        46     9      180.000000        3.585561         2    ;  uncertainty k = 0.752906
        24        11        26        46     9        0.000000        0.818448         3    ;  uncertainty k = 0.212064
        24        11        26        46     9      180.000000        0.341386         4    ;  uncertainty k = 0.371413
        24        25        26        45     9        0.000000        0.382558         1    ;  uncertainty k = 0.659682
        24        25        26        45     9      180.000000       -0.245175         2    ;  uncertainty k = 0.566614
        24        25        26        45     9        0.000000       -0.230182         3    ;  uncertainty k = 0.244543
        24        25        26        45     9      180.000000        0.080488         4    ;  uncertainty k = 0.164444
        24        25        26        46     9        0.000000        0.382558         1    ;  uncertainty k = 0.659682
        24        25        26        46     9      180.000000       -0.245175         2    ;  uncertainty k = 0.566614
        24        25        26        46     9        0.000000       -0.230182         3    ;  uncertainty k = 0.244543
        24        25        26        46     9      180.000000        0.080488         4    ;  uncertainty k = 0.164444
        24        25        27        28     9        0.000000       -1.508338         1    ;  uncertainty k = 0.694737
        24        25        27        28     9      180.000000       -1.075132         2    ;  uncertainty k = 0.658070
        24        25        27        28     9        0.000000        1.471062         3    ;  uncertainty k = 0.258159
        24        25        27        28     9      180.000000       -0.057525         4    ;  uncertainty k = 0.207556
        25        24        11        26     9        0.000000        2.659844         1    ;  uncertainty k = 1.616655
        25        24        11        26     9      180.000000       15.201028         2    ;  uncertainty k = 0.209368
        25        24        11        26     9        0.000000       -0.507775         3    ;  uncertainty k = 0.416161
        25        24        11        26     9      180.000000        0.147458         4    ;  uncertainty k = 0.501119
        25        27        28        47     9        0.000000        0.365920         1    ;  uncertainty k = 0.598901
        25        27        28        47     9      180.000000       -2.473279         2    ;  uncertainty k = 0.260339
        25        27        28        47     9        0.000000        1.163327         3    ;  uncertainty k = 0.186931
        25        27        28        47     9      180.000000        0.056232         4    ;  uncertainty k = 0.071317
        25        27        28        48     9        0.000000        0.365920         1    ;  uncertainty k = 0.598901
        25        27        28        48     9      180.000000       -2.473279         2    ;  uncertainty k = 0.260339
        25        27        28        48     9        0.000000        1.163327         3    ;  uncertainty k = 0.186931
        25        27        28        48     9      180.000000        0.056232         4    ;  uncertainty k = 0.071317
        25        27        28        49     9        0.000000        0.365920         1    ;  uncertainty k = 0.598901
        25        27        28        49     9      180.000000       -2.473279         2    ;  uncertainty k = 0.260339
        25        27        28        49     9        0.000000        1.163327         3    ;  uncertainty k = 0.186931
        25        27        28        49     9      180.000000        0.056232         4    ;  uncertainty k = 0.071317
        26        11        24        42     9        0.000000       -0.385385         1    ;  uncertainty k = 0.853782
        26        11        24        42     9      180.000000        3.585560         2    ;  uncertainty k = 0.752904
        26        11        24        42     9        0.000000        0.818448         3    ;  uncertainty k = 0.212064
        26        11        24        42     9      180.000000        0.341386         4    ;  uncertainty k = 0.371412
        26        11        24        43     9        0.000000       -0.385385         1    ;  uncertainty k = 0.853782
        26        11        24        43     9      180.000000        3.585560         2    ;  uncertainty k = 0.752904
        26        11        24        43     9        0.000000        0.818448         3    ;  uncertainty k = 0.212064
        26        11        24        43     9      180.000000        0.341386         4    ;  uncertainty k = 0.371412
        26        25        24        42     9        0.000000        0.382559         1    ;  uncertainty k = 0.659681
        26        25        24        42     9      180.000000       -0.245176         2    ;  uncertainty k = 0.566613
        26        25        24        42     9        0.000000       -0.230182         3    ;  uncertainty k = 0.244543
        26        25        24        42     9      180.000000        0.080488         4    ;  uncertainty k = 0.164444
        26        25        24        43     9        0.000000        0.382559         1    ;  uncertainty k = 0.659681
        26        25        24        43     9      180.000000       -0.245176         2    ;  uncertainty k = 0.566613
        26        25        24        43     9        0.000000       -0.230182         3    ;  uncertainty k = 0.244543
        26        25        24        43     9      180.000000        0.080488         4    ;  uncertainty k = 0.164444
        26        25        27        28     9        0.000000       -1.508337         1    ;  uncertainty k = 0.694736
        26        25        27        28     9      180.000000       -1.075132         2    ;  uncertainty k = 0.658071
        26        25        27        28     9        0.000000        1.471062         3    ;  uncertainty k = 0.258159
        26        25        27        28     9      180.000000       -0.057525         4    ;  uncertainty k = 0.207556
        27        25        24        42     9        0.000000        0.635715         1    ;  uncertainty k = 0.445450
        27        25        24        42     9      180.000000       -1.579417         2    ;  uncertainty k = 1.208270
        27        25        24        42     9        0.000000        1.992620         3    ;  uncertainty k = 0.321251
        27        25        24        42     9      180.000000        0.249614         4    ;  uncertainty k = 0.425378
        27        25        24        43     9        0.000000        0.635715         1    ;  uncertainty k = 0.445450
        27        25        24        43     9      180.000000       -1.579417         2    ;  uncertainty k = 1.208270
        27        25        24        43     9        0.000000        1.992620         3    ;  uncertainty k = 0.321251
        27        25        24        43     9      180.000000        0.249614         4    ;  uncertainty k = 0.425378
        27        25        26        45     9        0.000000        0.635713         1    ;  uncertainty k = 0.445449
        27        25        26        45     9      180.000000       -1.579419         2    ;  uncertainty k = 1.208270
        27        25        26        45     9        0.000000        1.992620         3    ;  uncertainty k = 0.321251
        27        25        26        45     9      180.000000        0.249615         4    ;  uncertainty k = 0.425378
        27        25        26        46     9        0.000000        0.635713         1    ;  uncertainty k = 0.445449
        27        25        26        46     9      180.000000       -1.579419         2    ;  uncertainty k = 1.208270
        27        25        26        46     9        0.000000        1.992620         3    ;  uncertainty k = 0.321251
        27        25        26        46     9      180.000000        0.249615         4    ;  uncertainty k = 0.425378
        28        27        25        44     9        0.000000       -1.154967         1    ;  uncertainty k = 0.740157
        28        27        25        44     9      180.000000        0.614134         2    ;  uncertainty k = 0.473490
        28        27        25        44     9        0.000000        1.490930         3    ;  uncertainty k = 0.176775
        28        27        25        44     9      180.000000        0.146819         4    ;  uncertainty k = 0.152731
        30         3         4        31     9        0.000000       -0.081442         1    ;  uncertainty k = 0.386729
        30         3         4        31     9      180.000000        8.097681         2    ;  uncertainty k = 0.276144
        30         3         4        31     9        0.000000       -0.195856         3    ;  uncertainty k = 0.217352
        30         3         4        31     9      180.000000        0.261942         4    ;  uncertainty k = 0.191928
        36        18        19        37     9        0.000000        0.021574         1    ;  uncertainty k = 0.254751
        36        18        19        37     9      180.000000        7.940472         2    ;  uncertainty k = 0.282303
        36        18        19        37     9        0.000000       -0.305359         3    ;  uncertainty k = 0.285245
        36        18        19        37     9      180.000000        0.205737         4    ;  uncertainty k = 0.224949
        42        24        25        44     9        0.000000       -0.431259         1    ;  uncertainty k = 0.545386
        42        24        25        44     9      180.000000       -1.357271         2    ;  uncertainty k = 0.563070
        42        24        25        44     9        0.000000        1.198244         3    ;  uncertainty k = 0.152430
        42        24        25        44     9      180.000000        0.185911         4    ;  uncertainty k = 0.248087
        43        24        25        44     9        0.000000       -0.431259         1    ;  uncertainty k = 0.545386
        43        24        25        44     9      180.000000       -1.357271         2    ;  uncertainty k = 0.563070
        43        24        25        44     9        0.000000        1.198244         3    ;  uncertainty k = 0.152430
        43        24        25        44     9      180.000000        0.185911         4    ;  uncertainty k = 0.248087
        44        25        26        45     9        0.000000       -0.431259         1    ;  uncertainty k = 0.545384
        44        25        26        45     9      180.000000       -1.357271         2    ;  uncertainty k = 0.563070
        44        25        26        45     9        0.000000        1.198244         3    ;  uncertainty k = 0.152430
        44        25        26        45     9      180.000000        0.185911         4    ;  uncertainty k = 0.248087
        44        25        26        46     9        0.000000       -0.431259         1    ;  uncertainty k = 0.545384
        44        25        26        46     9      180.000000       -1.357271         2    ;  uncertainty k = 0.563070
        44        25        26        46     9        0.000000        1.198244         3    ;  uncertainty k = 0.152430
        44        25        26        46     9      180.000000        0.185911         4    ;  uncertainty k = 0.248087

[ dihedrals ] ; impropers
;       ai        aj        ak        al funct           phase               k        pn
         1         2         4        12     4      180.000000        7.689985         2    ;  uncertainty k = 0.140175
         1         4        12         2     4      180.000000        7.689985         2    ;  uncertainty k = 0.140175
         1        12         2         4     4      180.000000        7.689985         2    ;  uncertainty k = 0.140175
         2         1         6        29     4      180.000000        5.378357         2    ;  uncertainty k = 0.157971
         2         6        29         1     4      180.000000        5.378357         2    ;  uncertainty k = 0.157971
         2        29         1         6     4      180.000000        5.378357         2    ;  uncertainty k = 0.157971
         3         4         5        30     4      180.000000        2.445477         2    ;  uncertainty k = 0.283211
         3         5        30         4     4      180.000000        2.445477         2    ;  uncertainty k = 0.283211
         3        30         4         5     4      180.000000        2.445477         2    ;  uncertainty k = 0.283211
         4         1         3        31     4      180.000000        4.597041         2    ;  uncertainty k = 0.122749
         4         3        31         1     4      180.000000        4.597041         2    ;  uncertainty k = 0.122749
         4        31         1         3     4      180.000000        4.597041         2    ;  uncertainty k = 0.122749
         5         3         6         9     4      180.000000        1.644327         2    ;  uncertainty k = 0.907158
         5         6         9         3     4      180.000000        1.644327         2    ;  uncertainty k = 0.907158
         5         9         3         6     4      180.000000        1.644327         2    ;  uncertainty k = 0.907158
         7         6         8        10     4      180.000000        7.656182         2    ;  uncertainty k = 0.249444
         7         8        10         6     4      180.000000        7.656182         2    ;  uncertainty k = 0.249444
         7        10         6         8     4      180.000000        7.656182         2    ;  uncertainty k = 0.249444
        12         1        11        13     4      180.000000       50.479880         2    ;  uncertainty k = 0.067080
        12        11        13         1     4      180.000000       50.479880         2    ;  uncertainty k = 0.067080
        12        13         1        11     4      180.000000       50.479880         2    ;  uncertainty k = 0.067080
        14        10        15        19     4      180.000000       12.040859         2    ;  uncertainty k = 0.089348
        14        15        19        10     4      180.000000       12.040859         2    ;  uncertainty k = 0.089348
        14        19        10        15     4      180.000000       12.040859         2    ;  uncertainty k = 0.089348
        15        14        16        35     4      180.000000        5.186097         2    ;  uncertainty k = 0.102924
        15        16        35        14     4      180.000000        5.186097         2    ;  uncertainty k = 0.102924
        15        35        14        16     4      180.000000        5.186097         2    ;  uncertainty k = 0.102924
        17        16        18        22     4      180.000000        1.037213         2    ;  uncertainty k = 0.607921
        17        18        22        16     4      180.000000        1.037213         2    ;  uncertainty k = 0.607921
        17        22        16        18     4      180.000000        1.037213         2    ;  uncertainty k = 0.607921
        18        17        19        36     4      180.000000        2.743225         2    ;  uncertainty k = 0.237095
        18        19        36        17     4      180.000000        2.743225         2    ;  uncertainty k = 0.237095
        18        36        17        19     4      180.000000        2.743225         2    ;  uncertainty k = 0.237095
        19        14        18        37     4      180.000000        4.557969         2    ;  uncertainty k = 0.061216
        19        18        37        14     4      180.000000        4.557969         2    ;  uncertainty k = 0.061216
        19        37        14        18     4      180.000000        4.557969         2    ;  uncertainty k = 0.061216
        20        16        21        38     4      180.000000        1.306172         2    ;  uncertainty k = 0.301994
        20        21        38        16     4      180.000000        1.306172         2    ;  uncertainty k = 0.301994
        20        38        16        21     4      180.000000        1.306172         2    ;  uncertainty k = 0.301994

[ pairs ]
;       ai        aj funct
         1         5     1
         1         7     1
         1        24     1
         1        26     1
         1        30     1
         2         3     1
         2         8     1
         2         9     1
         2        10     1
         2        11     1
         2        13     1
         2        31     1
         3         7     1
         3         8     1
         3        12     1
         3        32     1
         4         6     1
         4         9     1
         4        11     1
         4        13     1
         4        29     1
         5        10     1
         5        29     1
         5        31     1
         6        12     1
         6        14     1
         6        30     1
         6        32     1
         6        33     1
         6        34     1
         7        15     1
         7        19     1
         7        29     1
         7        32     1
         8        14     1
         8        33     1
         8        34     1
         9        10     1
         9        30     1
        10        16     1
        10        18     1
        10        35     1
        10        37     1
        11        27     1
        11        44     1
        12        25     1
        12        29     1
        12        31     1
        12        42     1
        12        43     1
        12        45     1
        12        46     1
        13        24     1
        13        26     1
        14        17     1
        14        20     1
        14        36     1
        15        18     1
        15        21     1
        15        22     1
        15        33     1
        15        34     1
        15        37     1
        15        38     1
        16        19     1
        16        23     1
        16        36     1
        17        35     1
        17        37     1
        17        38     1
        17        39     1
        17        40     1
        17        41     1
        18        20     1
        18        21     1
        18        23     1
        19        22     1
        19        33     1
        19        34     1
        19        35     1
        20        23     1
        20        35     1
        21        39     1
        21        40     1
        21        41     1
        22        36     1
        22        38     1
        24        28     1
        24        45     1
        24        46     1
        25        47     1
        25        48     1
        25        49     1
        26        28     1
        26        42     1
        26        43     1
        27        42     1
        27        43     1
        27        45     1
        27        46     1
        28        44     1
        30        31     1
        36        37     1
        42        44     1
        43        44     1
        44        45     1
        44        46     1
