; ITP file created by ByteFF-joint-25, 2025-07-14 11:27:59.487977

[ atomtypes ]
;name           bonded.type        at.num        mass        charge   ptype           sigma         epsilon
 c0bf                                   6      0.0000       0.00000       A     3.31518e-01     4.13356e-01    ;  uncertainty sigma = 0.000003, epsilon = 0.000602
 c1bf                                   6      0.0000       0.00000       A     3.31518e-01     4.13356e-01    ;  uncertainty sigma = 0.000003, epsilon = 0.000602
 c2bf                                   6      0.0000       0.00000       A     3.31518e-01     4.13356e-01    ;  uncertainty sigma = 0.000003, epsilon = 0.000602
 c3bf                                   6      0.0000       0.00000       A     3.31518e-01     4.13356e-01    ;  uncertainty sigma = 0.000003, epsilon = 0.000602
 c4bf                                   6      0.0000       0.00000       A     3.31518e-01     4.13356e-01    ;  uncertainty sigma = 0.000003, epsilon = 0.000602
 c5bf                                   6      0.0000       0.00000       A     3.31518e-01     4.13356e-01    ;  uncertainty sigma = 0.000003, epsilon = 0.000602
 h6bf                                   1      0.0000       0.00000       A     2.62552e-01     6.70645e-02    ;  uncertainty sigma = 0.000011, epsilon = 0.000453
 h7bf                                   1      0.0000       0.00000       A     2.62552e-01     6.70645e-02    ;  uncertainty sigma = 0.000011, epsilon = 0.000453
 h8bf                                   1      0.0000       0.00000       A     2.62552e-01     6.70645e-02    ;  uncertainty sigma = 0.000011, epsilon = 0.000453
 h9bf                                   1      0.0000       0.00000       A     2.62552e-01     6.70645e-02    ;  uncertainty sigma = 0.000011, epsilon = 0.000453
 h10bf                                  1      0.0000       0.00000       A     2.62552e-01     6.70645e-02    ;  uncertainty sigma = 0.000011, epsilon = 0.000453
 h11bf                                  1      0.0000       0.00000       A     2.62552e-01     6.70645e-02    ;  uncertainty sigma = 0.000011, epsilon = 0.000453

[ moleculetype ]
;name             nrexcl
 MOL                   3

[ atoms ]
;       nr            type      resi   res      atom      cgnr      charge          mass ; qtot
         1            c0bf         1   UNL        c0         1    -0.13073       12.0110 ; qtot   -0.131
         2            c1bf         1   UNL        c1         2    -0.13073       12.0110 ; qtot   -0.261
         3            c2bf         1   UNL        c2         3    -0.13073       12.0110 ; qtot   -0.392
         4            c3bf         1   UNL        c3         4    -0.13073       12.0110 ; qtot   -0.523
         5            c4bf         1   UNL        c4         5    -0.13073       12.0110 ; qtot   -0.654
         6            c5bf         1   UNL        c5         6    -0.13073       12.0110 ; qtot   -0.784
         7            h6bf         1   UNL        h6         7     0.13073        1.0080 ; qtot   -0.654
         8            h7bf         1   UNL        h7         8     0.13073        1.0080 ; qtot   -0.523
         9            h8bf         1   UNL        h8         9     0.13073        1.0080 ; qtot   -0.392
        10            h9bf         1   UNL        h9        10     0.13073        1.0080 ; qtot   -0.261
        11           h10bf         1   UNL       h10        11     0.13073        1.0080 ; qtot   -0.131
        12           h11bf         1   UNL       h11        12     0.13073        1.0080 ; qtot    0.000

[ bonds ]
;       ai        aj funct               r               k
         1         2     1        0.139709   367154.989063    ;  uncertainty r = 0.000020, k = 1.807181
         1         6     1        0.139709   367154.989063    ;  uncertainty r = 0.000020, k = 1.807176
         1        12     1        0.108865   334773.398096    ;  uncertainty r = 0.000011, k = 0.882316
         2         3     1        0.139709   367154.989063    ;  uncertainty r = 0.000020, k = 1.807176
         2         7     1        0.108865   334773.398096    ;  uncertainty r = 0.000011, k = 0.882309
         3         4     1        0.139709   367154.989063    ;  uncertainty r = 0.000020, k = 1.807183
         3         8     1        0.108865   334773.372559    ;  uncertainty r = 0.000011, k = 0.882291
         4         5     1        0.139709   367154.989063    ;  uncertainty r = 0.000020, k = 1.807181
         4         9     1        0.108865   334773.398096    ;  uncertainty r = 0.000011, k = 0.882316
         5         6     1        0.139709   367154.989063    ;  uncertainty r = 0.000020, k = 1.807176
         5        10     1        0.108865   334773.398096    ;  uncertainty r = 0.000011, k = 0.882309
         6        11     1        0.108865   334773.372559    ;  uncertainty r = 0.000011, k = 0.882295

[ angles ]
;       ai        aj        ak funct           theta             cth
         1         2         3     1      119.325462      528.000613    ;  uncertainty theta = 0.001714, k = 0.031499
         1         2         7     1      120.468704      288.447332    ;  uncertainty theta = 0.001563, k = 0.017837
         1         6         5     1      119.325478      528.000581    ;  uncertainty theta = 0.001714, k = 0.031499
         1         6        11     1      120.468704      288.447332    ;  uncertainty theta = 0.001563, k = 0.017837
         2         1         6     1      119.325462      528.000613    ;  uncertainty theta = 0.001714, k = 0.031499
         2         1        12     1      120.468704      288.447332    ;  uncertainty theta = 0.001563, k = 0.017837
         2         3         4     1      119.325478      528.000581    ;  uncertainty theta = 0.001714, k = 0.031499
         2         3         8     1      120.468704      288.447332    ;  uncertainty theta = 0.001563, k = 0.017837
         3         2         7     1      120.468704      288.447364    ;  uncertainty theta = 0.001563, k = 0.017837
         3         4         5     1      119.325462      528.000613    ;  uncertainty theta = 0.001714, k = 0.031499
         3         4         9     1      120.468704      288.447332    ;  uncertainty theta = 0.001563, k = 0.017837
         4         3         8     1      120.468704      288.447332    ;  uncertainty theta = 0.001563, k = 0.017837
         4         5         6     1      119.325462      528.000613    ;  uncertainty theta = 0.001714, k = 0.031499
         4         5        10     1      120.468704      288.447332    ;  uncertainty theta = 0.001563, k = 0.017837
         5         4         9     1      120.468704      288.447332    ;  uncertainty theta = 0.001563, k = 0.017837
         5         6        11     1      120.468704      288.447332    ;  uncertainty theta = 0.001563, k = 0.017837
         6         1        12     1      120.468704      288.447332    ;  uncertainty theta = 0.001563, k = 0.017837
         6         5        10     1      120.468704      288.447364    ;  uncertainty theta = 0.001563, k = 0.017837

[ dihedrals ] ; propers for gromacs 4.5 or higher, use funct 9
;       ai        aj        ak        al funct           phase               k        pn
         1         2         3         4     9        0.000000       -0.073869         1    ;  uncertainty k = 0.068258
         1         2         3         4     9      180.000000       14.878844         2    ;  uncertainty k = 0.240663
         1         2         3         4     9        0.000000       -1.110386         3    ;  uncertainty k = 0.516828
         1         2         3         4     9      180.000000        0.529304         4    ;  uncertainty k = 0.281229
         1         2         3         8     9        0.000000        0.082494         1    ;  uncertainty k = 0.024423
         1         2         3         8     9      180.000000        7.632951         2    ;  uncertainty k = 0.313082
         1         2         3         8     9        0.000000        1.461441         3    ;  uncertainty k = 0.310999
         1         2         3         8     9      180.000000        1.824990         4    ;  uncertainty k = 0.163587
         1         6         5         4     9        0.000000       -0.073869         1    ;  uncertainty k = 0.068258
         1         6         5         4     9      180.000000       14.878844         2    ;  uncertainty k = 0.240663
         1         6         5         4     9        0.000000       -1.110386         3    ;  uncertainty k = 0.516828
         1         6         5         4     9      180.000000        0.529304         4    ;  uncertainty k = 0.281229
         1         6         5        10     9        0.000000        0.082493         1    ;  uncertainty k = 0.024422
         1         6         5        10     9      180.000000        7.632950         2    ;  uncertainty k = 0.313080
         1         6         5        10     9        0.000000        1.461440         3    ;  uncertainty k = 0.310999
         1         6         5        10     9      180.000000        1.824990         4    ;  uncertainty k = 0.163588
         2         1         6         5     9        0.000000       -0.073869         1    ;  uncertainty k = 0.068258
         2         1         6         5     9      180.000000       14.878844         2    ;  uncertainty k = 0.240663
         2         1         6         5     9        0.000000       -1.110386         3    ;  uncertainty k = 0.516828
         2         1         6         5     9      180.000000        0.529304         4    ;  uncertainty k = 0.281229
         2         1         6        11     9        0.000000        0.082494         1    ;  uncertainty k = 0.024423
         2         1         6        11     9      180.000000        7.632951         2    ;  uncertainty k = 0.313082
         2         1         6        11     9        0.000000        1.461441         3    ;  uncertainty k = 0.310999
         2         1         6        11     9      180.000000        1.824990         4    ;  uncertainty k = 0.163587
         2         3         4         5     9        0.000000       -0.073869         1    ;  uncertainty k = 0.068258
         2         3         4         5     9      180.000000       14.878844         2    ;  uncertainty k = 0.240663
         2         3         4         5     9        0.000000       -1.110386         3    ;  uncertainty k = 0.516828
         2         3         4         5     9      180.000000        0.529304         4    ;  uncertainty k = 0.281229
         2         3         4         9     9        0.000000        0.082494         1    ;  uncertainty k = 0.024422
         2         3         4         9     9      180.000000        7.632950         2    ;  uncertainty k = 0.313081
         2         3         4         9     9        0.000000        1.461441         3    ;  uncertainty k = 0.310999
         2         3         4         9     9      180.000000        1.824990         4    ;  uncertainty k = 0.163587
         3         2         1         6     9        0.000000       -0.073870         1    ;  uncertainty k = 0.068258
         3         2         1         6     9      180.000000       14.878841         2    ;  uncertainty k = 0.240664
         3         2         1         6     9        0.000000       -1.110386         3    ;  uncertainty k = 0.516828
         3         2         1         6     9      180.000000        0.529304         4    ;  uncertainty k = 0.281229
         3         2         1        12     9        0.000000        0.082494         1    ;  uncertainty k = 0.024421
         3         2         1        12     9      180.000000        7.632950         2    ;  uncertainty k = 0.313081
         3         2         1        12     9        0.000000        1.461441         3    ;  uncertainty k = 0.310999
         3         2         1        12     9      180.000000        1.824989         4    ;  uncertainty k = 0.163587
         3         4         5         6     9        0.000000       -0.073870         1    ;  uncertainty k = 0.068258
         3         4         5         6     9      180.000000       14.878841         2    ;  uncertainty k = 0.240664
         3         4         5         6     9        0.000000       -1.110386         3    ;  uncertainty k = 0.516828
         3         4         5         6     9      180.000000        0.529304         4    ;  uncertainty k = 0.281229
         3         4         5        10     9        0.000000        0.082493         1    ;  uncertainty k = 0.024421
         3         4         5        10     9      180.000000        7.632951         2    ;  uncertainty k = 0.313082
         3         4         5        10     9        0.000000        1.461441         3    ;  uncertainty k = 0.310999
         3         4         5        10     9      180.000000        1.824990         4    ;  uncertainty k = 0.163588
         4         3         2         7     9        0.000000        0.082493         1    ;  uncertainty k = 0.024422
         4         3         2         7     9      180.000000        7.632950         2    ;  uncertainty k = 0.313080
         4         3         2         7     9        0.000000        1.461440         3    ;  uncertainty k = 0.310999
         4         3         2         7     9      180.000000        1.824990         4    ;  uncertainty k = 0.163588
         4         5         6        11     9        0.000000        0.082494         1    ;  uncertainty k = 0.024423
         4         5         6        11     9      180.000000        7.632951         2    ;  uncertainty k = 0.313082
         4         5         6        11     9        0.000000        1.461441         3    ;  uncertainty k = 0.310999
         4         5         6        11     9      180.000000        1.824990         4    ;  uncertainty k = 0.163587
         5         4         3         8     9        0.000000        0.082494         1    ;  uncertainty k = 0.024423
         5         4         3         8     9      180.000000        7.632951         2    ;  uncertainty k = 0.313082
         5         4         3         8     9        0.000000        1.461441         3    ;  uncertainty k = 0.310999
         5         4         3         8     9      180.000000        1.824990         4    ;  uncertainty k = 0.163587
         5         6         1        12     9        0.000000        0.082494         1    ;  uncertainty k = 0.024422
         5         6         1        12     9      180.000000        7.632950         2    ;  uncertainty k = 0.313081
         5         6         1        12     9        0.000000        1.461441         3    ;  uncertainty k = 0.310999
         5         6         1        12     9      180.000000        1.824990         4    ;  uncertainty k = 0.163587
         6         1         2         7     9        0.000000        0.082493         1    ;  uncertainty k = 0.024421
         6         1         2         7     9      180.000000        7.632951         2    ;  uncertainty k = 0.313082
         6         1         2         7     9        0.000000        1.461441         3    ;  uncertainty k = 0.310999
         6         1         2         7     9      180.000000        1.824990         4    ;  uncertainty k = 0.163588
         6         5         4         9     9        0.000000        0.082494         1    ;  uncertainty k = 0.024421
         6         5         4         9     9      180.000000        7.632950         2    ;  uncertainty k = 0.313081
         6         5         4         9     9        0.000000        1.461441         3    ;  uncertainty k = 0.310999
         6         5         4         9     9      180.000000        1.824989         4    ;  uncertainty k = 0.163587
         7         2         1        12     9        0.000000        0.006314         1    ;  uncertainty k = 0.075425
         7         2         1        12     9      180.000000        7.635132         2    ;  uncertainty k = 0.386659
         7         2         1        12     9        0.000000       -0.409622         3    ;  uncertainty k = 0.258285
         7         2         1        12     9      180.000000        0.057348         4    ;  uncertainty k = 0.126274
         7         2         3         8     9        0.000000        0.006314         1    ;  uncertainty k = 0.075425
         7         2         3         8     9      180.000000        7.635130         2    ;  uncertainty k = 0.386660
         7         2         3         8     9        0.000000       -0.409622         3    ;  uncertainty k = 0.258286
         7         2         3         8     9      180.000000        0.057348         4    ;  uncertainty k = 0.126274
         8         3         4         9     9        0.000000        0.006313         1    ;  uncertainty k = 0.075424
         8         3         4         9     9      180.000000        7.635134         2    ;  uncertainty k = 0.386658
         8         3         4         9     9        0.000000       -0.409622         3    ;  uncertainty k = 0.258286
         8         3         4         9     9      180.000000        0.057348         4    ;  uncertainty k = 0.126274
         9         4         5        10     9        0.000000        0.006314         1    ;  uncertainty k = 0.075425
         9         4         5        10     9      180.000000        7.635132         2    ;  uncertainty k = 0.386659
         9         4         5        10     9        0.000000       -0.409622         3    ;  uncertainty k = 0.258285
         9         4         5        10     9      180.000000        0.057348         4    ;  uncertainty k = 0.126274
        10         5         6        11     9        0.000000        0.006314         1    ;  uncertainty k = 0.075425
        10         5         6        11     9      180.000000        7.635130         2    ;  uncertainty k = 0.386660
        10         5         6        11     9        0.000000       -0.409622         3    ;  uncertainty k = 0.258286
        10         5         6        11     9      180.000000        0.057348         4    ;  uncertainty k = 0.126274
        11         6         1        12     9        0.000000        0.006313         1    ;  uncertainty k = 0.075424
        11         6         1        12     9      180.000000        7.635134         2    ;  uncertainty k = 0.386658
        11         6         1        12     9        0.000000       -0.409622         3    ;  uncertainty k = 0.258286
        11         6         1        12     9      180.000000        0.057348         4    ;  uncertainty k = 0.126274

[ dihedrals ] ; impropers
;       ai        aj        ak        al funct           phase               k        pn
         1         2         6        12     4      180.000000        4.552009         2    ;  uncertainty k = 0.075570
         1         6        12         2     4      180.000000        4.552009         2    ;  uncertainty k = 0.075570
         1        12         2         6     4      180.000000        4.552009         2    ;  uncertainty k = 0.075570
         2         1         3         7     4      180.000000        4.552003         2    ;  uncertainty k = 0.075571
         2         3         7         1     4      180.000000        4.552003         2    ;  uncertainty k = 0.075571
         2         7         1         3     4      180.000000        4.552003         2    ;  uncertainty k = 0.075571
         3         2         4         8     4      180.000000        4.552009         2    ;  uncertainty k = 0.075570
         3         4         8         2     4      180.000000        4.552009         2    ;  uncertainty k = 0.075570
         3         8         2         4     4      180.000000        4.552009         2    ;  uncertainty k = 0.075570
         4         3         5         9     4      180.000000        4.552009         2    ;  uncertainty k = 0.075570
         4         5         9         3     4      180.000000        4.552009         2    ;  uncertainty k = 0.075570
         4         9         3         5     4      180.000000        4.552009         2    ;  uncertainty k = 0.075570
         5         4         6        10     4      180.000000        4.552002         2    ;  uncertainty k = 0.075571
         5         6        10         4     4      180.000000        4.552002         2    ;  uncertainty k = 0.075571
         5        10         4         6     4      180.000000        4.552002         2    ;  uncertainty k = 0.075571
         6         1         5        11     4      180.000000        4.552009         2    ;  uncertainty k = 0.075570
         6         5        11         1     4      180.000000        4.552009         2    ;  uncertainty k = 0.075570
         6        11         1         5     4      180.000000        4.552009         2    ;  uncertainty k = 0.075570

[ pairs ]
;       ai        aj funct
         1         4     1
         1         8     1
         1        10     1
         2         5     1
         2         9     1
         2        11     1
         3         6     1
         3        10     1
         3        12     1
         4         7     1
         4        11     1
         5         8     1
         5        12     1
         6         7     1
         6         9     1
         7         8     1
         7        12     1
         8         9     1
         9        10     1
        10        11     1
        11        12     1
