; ITP file created by ByteFF-joint-25, 2025-07-14 11:27:59.764856

[ atomtypes ]
;name           bonded.type        at.num        mass        charge   ptype           sigma         epsilon
 c0bf                                   6      0.0000       0.00000       A     3.31533e-01     4.13066e-01    ;  uncertainty sigma = 0.000003, epsilon = 0.000655
 c1bf                                   6      0.0000       0.00000       A     3.31519e-01     4.13357e-01    ;  uncertainty sigma = 0.000003, epsilon = 0.000561
 c2bf                                   6      0.0000       0.00000       A     3.31518e-01     4.13343e-01    ;  uncertainty sigma = 0.000003, epsilon = 0.000526
 c3bf                                   6      0.0000       0.00000       A     3.31519e-01     4.13331e-01    ;  uncertainty sigma = 0.000003, epsilon = 0.000569
 c4bf                                   6      0.0000       0.00000       A     3.31518e-01     4.13343e-01    ;  uncertainty sigma = 0.000003, epsilon = 0.000526
 c5bf                                   6      0.0000       0.00000       A     3.31519e-01     4.13357e-01    ;  uncertainty sigma = 0.000003, epsilon = 0.000561
 c6bf                                   6      0.0000       0.00000       A     3.39770e-01     4.50504e-01    ;  uncertainty sigma = 0.000014, epsilon = 0.001257
 c7bf                                   6      0.0000       0.00000       A     3.39774e-01     4.50261e-01    ;  uncertainty sigma = 0.000016, epsilon = 0.001079
 c8bf                                   6      0.0000       0.00000       A     3.39772e-01     4.50487e-01    ;  uncertainty sigma = 0.000010, epsilon = 0.001128
 c9bf                                   6      0.0000       0.00000       A     3.39780e-01     4.50832e-01    ;  uncertainty sigma = 0.000005, epsilon = 0.000447
 h10bf                                  1      0.0000       0.00000       A     2.62565e-01     6.71217e-02    ;  uncertainty sigma = 0.000005, epsilon = 0.000518
 h11bf                                  1      0.0000       0.00000       A     2.62558e-01     6.70324e-02    ;  uncertainty sigma = 0.000010, epsilon = 0.000442
 h12bf                                  1      0.0000       0.00000       A     2.62552e-01     6.70645e-02    ;  uncertainty sigma = 0.000011, epsilon = 0.000453
 h13bf                                  1      0.0000       0.00000       A     2.62558e-01     6.70324e-02    ;  uncertainty sigma = 0.000010, epsilon = 0.000442
 h14bf                                  1      0.0000       0.00000       A     2.62565e-01     6.71217e-02    ;  uncertainty sigma = 0.000005, epsilon = 0.000518
 h15bf                                  1      0.0000       0.00000       A     2.60062e-01     8.64396e-02    ;  uncertainty sigma = 0.000014, epsilon = 0.000582
 h16bf                                  1      0.0000       0.00000       A     2.60062e-01     8.64396e-02    ;  uncertainty sigma = 0.000014, epsilon = 0.000582
 h17bf                                  1      0.0000       0.00000       A     2.60040e-01     8.64968e-02    ;  uncertainty sigma = 0.000008, epsilon = 0.000467
 h18bf                                  1      0.0000       0.00000       A     2.60040e-01     8.64968e-02    ;  uncertainty sigma = 0.000008, epsilon = 0.000467
 h19bf                                  1      0.0000       0.00000       A     2.60025e-01     8.65506e-02    ;  uncertainty sigma = 0.000013, epsilon = 0.000146
 h20bf                                  1      0.0000       0.00000       A     2.60025e-01     8.65506e-02    ;  uncertainty sigma = 0.000013, epsilon = 0.000146
 h21bf                                  1      0.0000       0.00000       A     2.60019e-01     8.66191e-02    ;  uncertainty sigma = 0.000013, epsilon = 0.000731
 h22bf                                  1      0.0000       0.00000       A     2.60019e-01     8.66191e-02    ;  uncertainty sigma = 0.000013, epsilon = 0.000731
 h23bf                                  1      0.0000       0.00000       A     2.60019e-01     8.66191e-02    ;  uncertainty sigma = 0.000013, epsilon = 0.000731

[ moleculetype ]
;name             nrexcl
 MOL                   3

[ atoms ]
;       nr            type      resi   res      atom      cgnr      charge          mass ; qtot
         1            c0bf         1   UNL        c0         1    -0.08222       12.0110 ; qtot   -0.082
         2            c1bf         1   UNL        c1         2    -0.12676       12.0110 ; qtot   -0.209
         3            c2bf         1   UNL        c2         3    -0.12973       12.0110 ; qtot   -0.339
         4            c3bf         1   UNL        c3         4    -0.12782       12.0110 ; qtot   -0.467
         5            c4bf         1   UNL        c4         5    -0.12973       12.0110 ; qtot   -0.596
         6            c5bf         1   UNL        c5         6    -0.12676       12.0110 ; qtot   -0.723
         7            c6bf         1   UNL        c6         7    -0.03583       12.0110 ; qtot   -0.759
         8            c7bf         1   UNL        c7         8    -0.07541       12.0110 ; qtot   -0.834
         9            c8bf         1   UNL        c8         9    -0.07863       12.0110 ; qtot   -0.913
        10            c9bf         1   UNL        c9        10    -0.09044       12.0110 ; qtot   -1.003
        11           h10bf         1   UNL       h10        11     0.13140        1.0080 ; qtot   -0.872
        12           h11bf         1   UNL       h11        12     0.13082        1.0080 ; qtot   -0.741
        13           h12bf         1   UNL       h12        13     0.13198        1.0080 ; qtot   -0.609
        14           h13bf         1   UNL       h13        14     0.13082        1.0080 ; qtot   -0.478
        15           h14bf         1   UNL       h14        15     0.13140        1.0080 ; qtot   -0.347
        16           h15bf         1   UNL       h15        16     0.04616        1.0080 ; qtot   -0.301
        17           h16bf         1   UNL       h16        17     0.04616        1.0080 ; qtot   -0.255
        18           h17bf         1   UNL       h17        18     0.04096        1.0080 ; qtot   -0.214
        19           h18bf         1   UNL       h18        19     0.04096        1.0080 ; qtot   -0.173
        20           h19bf         1   UNL       h19        20     0.03830        1.0080 ; qtot   -0.134
        21           h20bf         1   UNL       h20        21     0.03830        1.0080 ; qtot   -0.096
        22           h21bf         1   UNL       h21        22     0.03203        1.0080 ; qtot   -0.064
        23           h22bf         1   UNL       h22        23     0.03203        1.0080 ; qtot   -0.032
        24           h23bf         1   UNL       h23        24     0.03201        1.0080 ; qtot   -0.000

[ bonds ]
;       ai        aj funct               r               k
         1         2     1        0.139973   350870.025488    ;  uncertainty r = 0.000019, k = 1.731401
         1         6     1        0.139973   350870.025488    ;  uncertainty r = 0.000019, k = 1.731401
         1         7     1        0.151238   232243.487256    ;  uncertainty r = 0.000030, k = 2.269353
         2         3     1        0.139659   367494.581543    ;  uncertainty r = 0.000018, k = 1.539924
         2        11     1        0.108922   334327.290332    ;  uncertainty r = 0.000017, k = 0.744709
         3         4     1        0.139637   370587.431934    ;  uncertainty r = 0.000019, k = 1.259389
         3        12     1        0.108854   334327.188184    ;  uncertainty r = 0.000010, k = 0.904566
         4         5     1        0.139637   370587.431934    ;  uncertainty r = 0.000019, k = 1.259389
         4        13     1        0.108851   334582.457129    ;  uncertainty r = 0.000012, k = 0.680655
         5         6     1        0.139659   367494.581543    ;  uncertainty r = 0.000018, k = 1.539924
         5        14     1        0.108854   334327.188184    ;  uncertainty r = 0.000010, k = 0.904566
         6        15     1        0.108922   334327.290332    ;  uncertainty r = 0.000017, k = 0.744709
         7         8     1        0.153918   209777.585571    ;  uncertainty r = 0.000053, k = 5.374757
         7        16     1        0.109715   306889.198535    ;  uncertainty r = 0.000017, k = 2.542786
         7        17     1        0.109715   306889.198535    ;  uncertainty r = 0.000017, k = 2.542786
         8         9     1        0.153078   210140.621118    ;  uncertainty r = 0.000016, k = 4.882155
         8        18     1        0.109764   305044.091309    ;  uncertainty r = 0.000017, k = 0.979850
         8        19     1        0.109764   305044.091309    ;  uncertainty r = 0.000017, k = 0.979850
         9        10     1        0.153733   224453.826172    ;  uncertainty r = 0.000015, k = 2.070388
         9        20     1        0.109783   305530.215723    ;  uncertainty r = 0.000020, k = 1.350031
         9        21     1        0.109783   305530.215723    ;  uncertainty r = 0.000020, k = 1.350031
        10        22     1        0.109690   309063.428027    ;  uncertainty r = 0.000011, k = 1.085784
        10        23     1        0.109690   309063.428027    ;  uncertainty r = 0.000011, k = 1.085784
        10        24     1        0.109690   309063.428027    ;  uncertainty r = 0.000011, k = 1.085784

[ angles ]
;       ai        aj        ak funct           theta             cth
         1         2         3     1      121.039474      519.931206    ;  uncertainty theta = 0.001335, k = 0.031297
         1         2        11     1      118.962364      270.362590    ;  uncertainty theta = 0.001857, k = 0.018076
         1         6         5     1      121.039474      519.931206    ;  uncertainty theta = 0.001335, k = 0.031297
         1         6        15     1      118.962364      270.362590    ;  uncertainty theta = 0.001857, k = 0.018076
         1         7         8     1      111.602112      553.037770    ;  uncertainty theta = 0.001343, k = 0.090028
         1         7        16     1      107.126099      395.512302    ;  uncertainty theta = 0.001240, k = 0.039312
         1         7        17     1      107.126099      395.512302    ;  uncertainty theta = 0.001240, k = 0.039312
         2         1         6     1      119.539261      464.160872    ;  uncertainty theta = 0.001924, k = 0.073311
         2         1         7     1      121.337379      431.050063    ;  uncertainty theta = 0.002351, k = 0.043636
         2         3         4     1      119.555870      516.132561    ;  uncertainty theta = 0.000749, k = 0.026402
         2         3        12     1      120.233009      285.337742    ;  uncertainty theta = 0.001610, k = 0.021016
         3         2        11     1      120.160477      292.670947    ;  uncertainty theta = 0.001967, k = 0.007566
         3         4         5     1      118.329407      526.152652    ;  uncertainty theta = 0.000907, k = 0.031471
         3         4        13     1      120.672157      289.503835    ;  uncertainty theta = 0.001676, k = 0.008297
         4         3        12     1      120.568382      288.279586    ;  uncertainty theta = 0.001545, k = 0.013753
         4         5         6     1      119.555870      516.132561    ;  uncertainty theta = 0.000749, k = 0.026402
         4         5        14     1      120.568382      288.279586    ;  uncertainty theta = 0.001545, k = 0.013753
         5         4        13     1      120.672157      289.503835    ;  uncertainty theta = 0.001676, k = 0.008297
         5         6        15     1      120.160477      292.670947    ;  uncertainty theta = 0.001967, k = 0.007566
         6         1         7     1      121.337379      431.050063    ;  uncertainty theta = 0.002351, k = 0.043636
         6         5        14     1      120.233009      285.337742    ;  uncertainty theta = 0.001610, k = 0.021016
         7         8         9     1      110.625443      581.862718    ;  uncertainty theta = 0.000617, k = 0.026147
         7         8        18     1      107.064476      395.146451    ;  uncertainty theta = 0.001600, k = 0.028330
         7         8        19     1      107.064476      395.146451    ;  uncertainty theta = 0.001600, k = 0.028330
         8         7        16     1      107.322739      395.045388    ;  uncertainty theta = 0.001516, k = 0.019408
         8         7        17     1      107.322739      395.045388    ;  uncertainty theta = 0.001516, k = 0.019408
         8         9        10     1      110.830055      599.470746    ;  uncertainty theta = 0.001099, k = 0.009385
         8         9        20     1      106.799461      391.778585    ;  uncertainty theta = 0.001614, k = 0.014792
         8         9        21     1      106.799461      391.778585    ;  uncertainty theta = 0.001614, k = 0.014792
         9         8        18     1      107.295044      399.850961    ;  uncertainty theta = 0.001202, k = 0.025611
         9         8        19     1      107.295044      399.850961    ;  uncertainty theta = 0.001202, k = 0.025611
         9        10        22     1      108.539124      408.357085    ;  uncertainty theta = 0.001713, k = 0.015144
         9        10        23     1      108.539139      408.357117    ;  uncertainty theta = 0.001713, k = 0.015144
         9        10        24     1      108.539139      408.357117    ;  uncertainty theta = 0.001713, k = 0.015144
        10         9        20     1      107.737228      409.894355    ;  uncertainty theta = 0.001617, k = 0.026786
        10         9        21     1      107.737228      409.894355    ;  uncertainty theta = 0.001617, k = 0.026786
        16         7        17     1      104.150085      315.281823    ;  uncertainty theta = 0.002330, k = 0.031244
        18         8        19     1      104.519188      316.474629    ;  uncertainty theta = 0.002312, k = 0.024718
        20         9        21     1      104.024048      315.963600    ;  uncertainty theta = 0.002613, k = 0.009764
        22        10        23     1      104.908142      315.638576    ;  uncertainty theta = 0.001896, k = 0.012719
        22        10        24     1      104.908157      315.638512    ;  uncertainty theta = 0.001896, k = 0.012719
        23        10        24     1      104.908142      315.638576    ;  uncertainty theta = 0.001896, k = 0.012719

[ dihedrals ] ; propers for gromacs 4.5 or higher, use funct 9
;       ai        aj        ak        al funct           phase               k        pn
         1         2         3         4     9        0.000000       -0.123026         1    ;  uncertainty k = 0.149612
         1         2         3         4     9      180.000000       14.056340         2    ;  uncertainty k = 0.213863
         1         2         3         4     9        0.000000       -0.975987         3    ;  uncertainty k = 0.477941
         1         2         3         4     9      180.000000        0.671635         4    ;  uncertainty k = 0.278170
         1         2         3        12     9        0.000000        0.052293         1    ;  uncertainty k = 0.156463
         1         2         3        12     9      180.000000        7.472150         2    ;  uncertainty k = 0.381687
         1         2         3        12     9        0.000000        1.484216         3    ;  uncertainty k = 0.213663
         1         2         3        12     9      180.000000        1.803514         4    ;  uncertainty k = 0.146368
         1         6         5         4     9        0.000000       -0.123026         1    ;  uncertainty k = 0.149612
         1         6         5         4     9      180.000000       14.056340         2    ;  uncertainty k = 0.213863
         1         6         5         4     9        0.000000       -0.975987         3    ;  uncertainty k = 0.477941
         1         6         5         4     9      180.000000        0.671635         4    ;  uncertainty k = 0.278170
         1         6         5        14     9        0.000000        0.052293         1    ;  uncertainty k = 0.156463
         1         6         5        14     9      180.000000        7.472150         2    ;  uncertainty k = 0.381687
         1         6         5        14     9        0.000000        1.484216         3    ;  uncertainty k = 0.213663
         1         6         5        14     9      180.000000        1.803514         4    ;  uncertainty k = 0.146368
         1         7         8         9     9        0.000000       -3.012671         1    ;  uncertainty k = 0.251830
         1         7         8         9     9      180.000000       -0.223046         2    ;  uncertainty k = 0.216490
         1         7         8         9     9        0.000000        1.783045         3    ;  uncertainty k = 0.121652
         1         7         8         9     9      180.000000       -0.238410         4    ;  uncertainty k = 0.143852
         1         7         8        18     9        0.000000        0.316552         1    ;  uncertainty k = 0.154162
         1         7         8        18     9      180.000000       -0.304782         2    ;  uncertainty k = 0.184809
         1         7         8        18     9        0.000000        1.127579         3    ;  uncertainty k = 0.078236
         1         7         8        18     9      180.000000       -0.011467         4    ;  uncertainty k = 0.039694
         1         7         8        19     9        0.000000        0.316552         1    ;  uncertainty k = 0.154162
         1         7         8        19     9      180.000000       -0.304782         2    ;  uncertainty k = 0.184809
         1         7         8        19     9        0.000000        1.127579         3    ;  uncertainty k = 0.078236
         1         7         8        19     9      180.000000       -0.011467         4    ;  uncertainty k = 0.039694
         2         1         6         5     9        0.000000       -0.204824         1    ;  uncertainty k = 0.152936
         2         1         6         5     9      180.000000       11.679145         2    ;  uncertainty k = 0.401995
         2         1         6         5     9        0.000000       -0.436716         3    ;  uncertainty k = 0.334990
         2         1         6         5     9      180.000000        0.766079         4    ;  uncertainty k = 0.406186
         2         1         6        15     9        0.000000        0.124361         1    ;  uncertainty k = 0.159093
         2         1         6        15     9      180.000000        7.180248         2    ;  uncertainty k = 0.511569
         2         1         6        15     9        0.000000        1.458708         3    ;  uncertainty k = 0.327385
         2         1         6        15     9      180.000000        1.633250         4    ;  uncertainty k = 0.139457
         2         1         7         8     9        0.000000       -0.472668         1    ;  uncertainty k = 0.369954
         2         1         7         8     9      180.000000        1.649126         2    ;  uncertainty k = 0.207301
         2         1         7         8     9        0.000000        0.570064         3    ;  uncertainty k = 0.098475
         2         1         7         8     9      180.000000        0.442615         4    ;  uncertainty k = 0.010605
         2         1         7        16     9        0.000000        0.022800         1    ;  uncertainty k = 0.290320
         2         1         7        16     9      180.000000        1.784059         2    ;  uncertainty k = 0.174389
         2         1         7        16     9        0.000000        0.396827         3    ;  uncertainty k = 0.057495
         2         1         7        16     9      180.000000        0.200648         4    ;  uncertainty k = 0.027560
         2         1         7        17     9        0.000000        0.022800         1    ;  uncertainty k = 0.290320
         2         1         7        17     9      180.000000        1.784059         2    ;  uncertainty k = 0.174389
         2         1         7        17     9        0.000000        0.396827         3    ;  uncertainty k = 0.057495
         2         1         7        17     9      180.000000        0.200648         4    ;  uncertainty k = 0.027560
         2         3         4         5     9        0.000000        0.008703         1    ;  uncertainty k = 0.050772
         2         3         4         5     9      180.000000       15.046028         2    ;  uncertainty k = 0.277330
         2         3         4         5     9        0.000000       -1.246691         3    ;  uncertainty k = 0.519222
         2         3         4         5     9      180.000000        0.482905         4    ;  uncertainty k = 0.303364
         2         3         4        13     9        0.000000        0.059329         1    ;  uncertainty k = 0.062171
         2         3         4        13     9      180.000000        7.509835         2    ;  uncertainty k = 0.371213
         2         3         4        13     9        0.000000        1.460519         3    ;  uncertainty k = 0.299639
         2         3         4        13     9      180.000000        1.795198         4    ;  uncertainty k = 0.183074
         3         2         1         6     9        0.000000       -0.204824         1    ;  uncertainty k = 0.152936
         3         2         1         6     9      180.000000       11.679145         2    ;  uncertainty k = 0.401995
         3         2         1         6     9        0.000000       -0.436716         3    ;  uncertainty k = 0.334990
         3         2         1         6     9      180.000000        0.766079         4    ;  uncertainty k = 0.406186
         3         2         1         7     9        0.000000        0.207023         1    ;  uncertainty k = 0.284045
         3         2         1         7     9      180.000000        9.353052         2    ;  uncertainty k = 0.423378
         3         2         1         7     9        0.000000        1.400979         3    ;  uncertainty k = 0.361012
         3         2         1         7     9      180.000000        1.808512         4    ;  uncertainty k = 0.197162
         3         4         5         6     9        0.000000        0.008703         1    ;  uncertainty k = 0.050772
         3         4         5         6     9      180.000000       15.046028         2    ;  uncertainty k = 0.277330
         3         4         5         6     9        0.000000       -1.246691         3    ;  uncertainty k = 0.519222
         3         4         5         6     9      180.000000        0.482905         4    ;  uncertainty k = 0.303364
         3         4         5        14     9        0.000000        0.061791         1    ;  uncertainty k = 0.040367
         3         4         5        14     9      180.000000        7.533637         2    ;  uncertainty k = 0.335061
         3         4         5        14     9        0.000000        1.445862         3    ;  uncertainty k = 0.325059
         3         4         5        14     9      180.000000        1.795809         4    ;  uncertainty k = 0.164033
         4         3         2        11     9        0.000000        0.078445         1    ;  uncertainty k = 0.071863
         4         3         2        11     9      180.000000        7.870133         2    ;  uncertainty k = 0.305806
         4         3         2        11     9        0.000000        1.451405         3    ;  uncertainty k = 0.313659
         4         3         2        11     9      180.000000        1.844420         4    ;  uncertainty k = 0.169238
         4         5         6        15     9        0.000000        0.078445         1    ;  uncertainty k = 0.071863
         4         5         6        15     9      180.000000        7.870133         2    ;  uncertainty k = 0.305806
         4         5         6        15     9        0.000000        1.451405         3    ;  uncertainty k = 0.313659
         4         5         6        15     9      180.000000        1.844420         4    ;  uncertainty k = 0.169238
         5         4         3        12     9        0.000000        0.061791         1    ;  uncertainty k = 0.040367
         5         4         3        12     9      180.000000        7.533637         2    ;  uncertainty k = 0.335061
         5         4         3        12     9        0.000000        1.445862         3    ;  uncertainty k = 0.325059
         5         4         3        12     9      180.000000        1.795809         4    ;  uncertainty k = 0.164033
         5         6         1         7     9        0.000000        0.207023         1    ;  uncertainty k = 0.284045
         5         6         1         7     9      180.000000        9.353052         2    ;  uncertainty k = 0.423378
         5         6         1         7     9        0.000000        1.400979         3    ;  uncertainty k = 0.361012
         5         6         1         7     9      180.000000        1.808512         4    ;  uncertainty k = 0.197162
         6         1         2        11     9        0.000000        0.124361         1    ;  uncertainty k = 0.159093
         6         1         2        11     9      180.000000        7.180248         2    ;  uncertainty k = 0.511569
         6         1         2        11     9        0.000000        1.458708         3    ;  uncertainty k = 0.327385
         6         1         2        11     9      180.000000        1.633250         4    ;  uncertainty k = 0.139457
         6         1         7         8     9        0.000000       -0.472668         1    ;  uncertainty k = 0.369954
         6         1         7         8     9      180.000000        1.649126         2    ;  uncertainty k = 0.207301
         6         1         7         8     9        0.000000        0.570064         3    ;  uncertainty k = 0.098475
         6         1         7         8     9      180.000000        0.442615         4    ;  uncertainty k = 0.010605
         6         1         7        16     9        0.000000        0.022800         1    ;  uncertainty k = 0.290320
         6         1         7        16     9      180.000000        1.784059         2    ;  uncertainty k = 0.174389
         6         1         7        16     9        0.000000        0.396827         3    ;  uncertainty k = 0.057495
         6         1         7        16     9      180.000000        0.200648         4    ;  uncertainty k = 0.027560
         6         1         7        17     9        0.000000        0.022800         1    ;  uncertainty k = 0.290320
         6         1         7        17     9      180.000000        1.784059         2    ;  uncertainty k = 0.174389
         6         1         7        17     9        0.000000        0.396827         3    ;  uncertainty k = 0.057495
         6         1         7        17     9      180.000000        0.200648         4    ;  uncertainty k = 0.027560
         6         5         4        13     9        0.000000        0.059329         1    ;  uncertainty k = 0.062171
         6         5         4        13     9      180.000000        7.509835         2    ;  uncertainty k = 0.371213
         6         5         4        13     9        0.000000        1.460519         3    ;  uncertainty k = 0.299639
         6         5         4        13     9      180.000000        1.795198         4    ;  uncertainty k = 0.183074
         7         1         2        11     9        0.000000       -0.235053         1    ;  uncertainty k = 0.226976
         7         1         2        11     9      180.000000        7.793147         2    ;  uncertainty k = 0.176941
         7         1         2        11     9        0.000000        0.621596         3    ;  uncertainty k = 0.296360
         7         1         2        11     9      180.000000        1.002861         4    ;  uncertainty k = 0.193914
         7         1         6        15     9        0.000000       -0.235053         1    ;  uncertainty k = 0.226976
         7         1         6        15     9      180.000000        7.793147         2    ;  uncertainty k = 0.176941
         7         1         6        15     9        0.000000        0.621596         3    ;  uncertainty k = 0.296360
         7         1         6        15     9      180.000000        1.002861         4    ;  uncertainty k = 0.193914
         7         8         9        10     9        0.000000       -5.327263         1    ;  uncertainty k = 0.347029
         7         8         9        10     9      180.000000       -0.338301         2    ;  uncertainty k = 0.319175
         7         8         9        10     9        0.000000        1.929474         3    ;  uncertainty k = 0.116046
         7         8         9        10     9      180.000000       -0.555565         4    ;  uncertainty k = 0.075828
         7         8         9        20     9        0.000000       -1.681656         1    ;  uncertainty k = 0.323277
         7         8         9        20     9      180.000000       -0.867670         2    ;  uncertainty k = 0.244266
         7         8         9        20     9        0.000000        1.163192         3    ;  uncertainty k = 0.015908
         7         8         9        20     9      180.000000       -0.294071         4    ;  uncertainty k = 0.029447
         7         8         9        21     9        0.000000       -1.681656         1    ;  uncertainty k = 0.323277
         7         8         9        21     9      180.000000       -0.867670         2    ;  uncertainty k = 0.244266
         7         8         9        21     9        0.000000        1.163192         3    ;  uncertainty k = 0.015908
         7         8         9        21     9      180.000000       -0.294071         4    ;  uncertainty k = 0.029447
         8         9        10        22     9        0.000000       -2.157892         1    ;  uncertainty k = 0.331468
         8         9        10        22     9      180.000000       -0.814800         2    ;  uncertainty k = 0.166958
         8         9        10        22     9        0.000000        1.420531         3    ;  uncertainty k = 0.059063
         8         9        10        22     9      180.000000       -0.315063         4    ;  uncertainty k = 0.041177
         8         9        10        23     9        0.000000       -2.157892         1    ;  uncertainty k = 0.331468
         8         9        10        23     9      180.000000       -0.814800         2    ;  uncertainty k = 0.166958
         8         9        10        23     9        0.000000        1.420531         3    ;  uncertainty k = 0.059063
         8         9        10        23     9      180.000000       -0.315063         4    ;  uncertainty k = 0.041177
         8         9        10        24     9        0.000000       -2.157892         1    ;  uncertainty k = 0.331468
         8         9        10        24     9      180.000000       -0.814800         2    ;  uncertainty k = 0.166958
         8         9        10        24     9        0.000000        1.420531         3    ;  uncertainty k = 0.059063
         8         9        10        24     9      180.000000       -0.315063         4    ;  uncertainty k = 0.041177
         9         8         7        16     9        0.000000       -2.195260         1    ;  uncertainty k = 0.288250
         9         8         7        16     9      180.000000       -0.267257         2    ;  uncertainty k = 0.190458
         9         8         7        16     9        0.000000        1.189786         3    ;  uncertainty k = 0.073701
         9         8         7        16     9      180.000000       -0.342000         4    ;  uncertainty k = 0.057877
         9         8         7        17     9        0.000000       -2.195260         1    ;  uncertainty k = 0.288250
         9         8         7        17     9      180.000000       -0.267257         2    ;  uncertainty k = 0.190458
         9         8         7        17     9        0.000000        1.189786         3    ;  uncertainty k = 0.073701
         9         8         7        17     9      180.000000       -0.342000         4    ;  uncertainty k = 0.057877
        10         9         8        18     9        0.000000       -2.104248         1    ;  uncertainty k = 0.270753
        10         9         8        18     9      180.000000       -0.308010         2    ;  uncertainty k = 0.153781
        10         9         8        18     9        0.000000        1.161431         3    ;  uncertainty k = 0.030391
        10         9         8        18     9      180.000000       -0.259359         4    ;  uncertainty k = 0.027740
        10         9         8        19     9        0.000000       -2.104248         1    ;  uncertainty k = 0.270753
        10         9         8        19     9      180.000000       -0.308010         2    ;  uncertainty k = 0.153781
        10         9         8        19     9        0.000000        1.161431         3    ;  uncertainty k = 0.030391
        10         9         8        19     9      180.000000       -0.259359         4    ;  uncertainty k = 0.027740
        11         2         3        12     9        0.000000       -0.035524         1    ;  uncertainty k = 0.092399
        11         2         3        12     9      180.000000        7.630383         2    ;  uncertainty k = 0.262455
        11         2         3        12     9        0.000000       -0.453036         3    ;  uncertainty k = 0.237945
        11         2         3        12     9      180.000000        0.092177         4    ;  uncertainty k = 0.101978
        12         3         4        13     9        0.000000       -0.006373         1    ;  uncertainty k = 0.088779
        12         3         4        13     9      180.000000        7.464233         2    ;  uncertainty k = 0.352345
        12         3         4        13     9        0.000000       -0.416733         3    ;  uncertainty k = 0.274619
        12         3         4        13     9      180.000000        0.051450         4    ;  uncertainty k = 0.138379
        13         4         5        14     9        0.000000       -0.006373         1    ;  uncertainty k = 0.088779
        13         4         5        14     9      180.000000        7.464233         2    ;  uncertainty k = 0.352345
        13         4         5        14     9        0.000000       -0.416733         3    ;  uncertainty k = 0.274619
        13         4         5        14     9      180.000000        0.051450         4    ;  uncertainty k = 0.138379
        14         5         6        15     9        0.000000       -0.035524         1    ;  uncertainty k = 0.092399
        14         5         6        15     9      180.000000        7.630383         2    ;  uncertainty k = 0.262455
        14         5         6        15     9        0.000000       -0.453036         3    ;  uncertainty k = 0.237945
        14         5         6        15     9      180.000000        0.092177         4    ;  uncertainty k = 0.101978
        16         7         8        18     9        0.000000        0.910139         1    ;  uncertainty k = 0.145652
        16         7         8        18     9      180.000000       -0.648778         2    ;  uncertainty k = 0.187954
        16         7         8        18     9        0.000000        0.107588         3    ;  uncertainty k = 0.029089
        16         7         8        18     9      180.000000       -0.022687         4    ;  uncertainty k = 0.041839
        16         7         8        19     9        0.000000        0.910139         1    ;  uncertainty k = 0.145652
        16         7         8        19     9      180.000000       -0.648778         2    ;  uncertainty k = 0.187954
        16         7         8        19     9        0.000000        0.107588         3    ;  uncertainty k = 0.029089
        16         7         8        19     9      180.000000       -0.022687         4    ;  uncertainty k = 0.041839
        17         7         8        18     9        0.000000        0.910139         1    ;  uncertainty k = 0.145652
        17         7         8        18     9      180.000000       -0.648778         2    ;  uncertainty k = 0.187954
        17         7         8        18     9        0.000000        0.107588         3    ;  uncertainty k = 0.029089
        17         7         8        18     9      180.000000       -0.022687         4    ;  uncertainty k = 0.041839
        17         7         8        19     9        0.000000        0.910139         1    ;  uncertainty k = 0.145652
        17         7         8        19     9      180.000000       -0.648778         2    ;  uncertainty k = 0.187954
        17         7         8        19     9        0.000000        0.107588         3    ;  uncertainty k = 0.029089
        17         7         8        19     9      180.000000       -0.022687         4    ;  uncertainty k = 0.041839
        18         8         9        20     9        0.000000        1.095754         1    ;  uncertainty k = 0.337355
        18         8         9        20     9      180.000000       -0.678960         2    ;  uncertainty k = 0.085327
        18         8         9        20     9        0.000000        0.027793         3    ;  uncertainty k = 0.022640
        18         8         9        20     9      180.000000       -0.080808         4    ;  uncertainty k = 0.048702
        18         8         9        21     9        0.000000        1.095754         1    ;  uncertainty k = 0.337355
        18         8         9        21     9      180.000000       -0.678960         2    ;  uncertainty k = 0.085327
        18         8         9        21     9        0.000000        0.027793         3    ;  uncertainty k = 0.022640
        18         8         9        21     9      180.000000       -0.080808         4    ;  uncertainty k = 0.048702
        19         8         9        20     9        0.000000        1.095754         1    ;  uncertainty k = 0.337355
        19         8         9        20     9      180.000000       -0.678960         2    ;  uncertainty k = 0.085327
        19         8         9        20     9        0.000000        0.027793         3    ;  uncertainty k = 0.022640
        19         8         9        20     9      180.000000       -0.080808         4    ;  uncertainty k = 0.048702
        19         8         9        21     9        0.000000        1.095754         1    ;  uncertainty k = 0.337355
        19         8         9        21     9      180.000000       -0.678960         2    ;  uncertainty k = 0.085327
        19         8         9        21     9        0.000000        0.027793         3    ;  uncertainty k = 0.022640
        19         8         9        21     9      180.000000       -0.080808         4    ;  uncertainty k = 0.048702
        20         9        10        22     9        0.000000        0.900006         1    ;  uncertainty k = 0.331548
        20         9        10        22     9      180.000000       -0.777563         2    ;  uncertainty k = 0.161207
        20         9        10        22     9        0.000000        0.549016         3    ;  uncertainty k = 0.015092
        20         9        10        22     9      180.000000       -0.012819         4    ;  uncertainty k = 0.044132
        20         9        10        23     9        0.000000        0.900006         1    ;  uncertainty k = 0.331548
        20         9        10        23     9      180.000000       -0.777563         2    ;  uncertainty k = 0.161207
        20         9        10        23     9        0.000000        0.549016         3    ;  uncertainty k = 0.015092
        20         9        10        23     9      180.000000       -0.012819         4    ;  uncertainty k = 0.044132
        20         9        10        24     9        0.000000        0.900006         1    ;  uncertainty k = 0.331548
        20         9        10        24     9      180.000000       -0.777563         2    ;  uncertainty k = 0.161207
        20         9        10        24     9        0.000000        0.549016         3    ;  uncertainty k = 0.015092
        20         9        10        24     9      180.000000       -0.012819         4    ;  uncertainty k = 0.044132
        21         9        10        22     9        0.000000        0.900006         1    ;  uncertainty k = 0.331548
        21         9        10        22     9      180.000000       -0.777563         2    ;  uncertainty k = 0.161207
        21         9        10        22     9        0.000000        0.549016         3    ;  uncertainty k = 0.015092
        21         9        10        22     9      180.000000       -0.012819         4    ;  uncertainty k = 0.044132
        21         9        10        23     9        0.000000        0.900006         1    ;  uncertainty k = 0.331548
        21         9        10        23     9      180.000000       -0.777563         2    ;  uncertainty k = 0.161207
        21         9        10        23     9        0.000000        0.549016         3    ;  uncertainty k = 0.015092
        21         9        10        23     9      180.000000       -0.012819         4    ;  uncertainty k = 0.044132
        21         9        10        24     9        0.000000        0.900006         1    ;  uncertainty k = 0.331548
        21         9        10        24     9      180.000000       -0.777563         2    ;  uncertainty k = 0.161207
        21         9        10        24     9        0.000000        0.549016         3    ;  uncertainty k = 0.015092
        21         9        10        24     9      180.000000       -0.012819         4    ;  uncertainty k = 0.044132

[ dihedrals ] ; impropers
;       ai        aj        ak        al funct           phase               k        pn
         1         2         6         7     4      180.000000       13.946458         2    ;  uncertainty k = 0.049843
         1         6         7         2     4      180.000000       13.946458         2    ;  uncertainty k = 0.049843
         1         7         2         6     4      180.000000       13.946458         2    ;  uncertainty k = 0.049843
         2         1         3        11     4      180.000000        4.064883         2    ;  uncertainty k = 0.102451
         2         3        11         1     4      180.000000        4.064883         2    ;  uncertainty k = 0.102451
         2        11         1         3     4      180.000000        4.064883         2    ;  uncertainty k = 0.102451
         3         2         4        12     4      180.000000        4.289022         2    ;  uncertainty k = 0.048653
         3         4        12         2     4      180.000000        4.289022         2    ;  uncertainty k = 0.048653
         3        12         2         4     4      180.000000        4.289022         2    ;  uncertainty k = 0.048653
         4         3         5        13     4      180.000000        4.333638         2    ;  uncertainty k = 0.163023
         4         5        13         3     4      180.000000        4.333638         2    ;  uncertainty k = 0.163023
         4        13         3         5     4      180.000000        4.333638         2    ;  uncertainty k = 0.163023
         5         4         6        14     4      180.000000        4.289018         2    ;  uncertainty k = 0.048653
         5         6        14         4     4      180.000000        4.289018         2    ;  uncertainty k = 0.048653
         5        14         4         6     4      180.000000        4.289018         2    ;  uncertainty k = 0.048653
         6         1         5        15     4      180.000000        4.064882         2    ;  uncertainty k = 0.102452
         6         5        15         1     4      180.000000        4.064882         2    ;  uncertainty k = 0.102452
         6        15         1         5     4      180.000000        4.064882         2    ;  uncertainty k = 0.102452

[ pairs ]
;       ai        aj funct
         1         4     1
         1         9     1
         1        12     1
         1        14     1
         1        18     1
         1        19     1
         2         5     1
         2         8     1
         2        13     1
         2        15     1
         2        16     1
         2        17     1
         3         6     1
         3         7     1
         3        14     1
         4        11     1
         4        15     1
         5         7     1
         5        12     1
         6         8     1
         6        11     1
         6        13     1
         6        16     1
         6        17     1
         7        10     1
         7        11     1
         7        15     1
         7        20     1
         7        21     1
         8        22     1
         8        23     1
         8        24     1
         9        16     1
         9        17     1
        10        18     1
        10        19     1
        11        12     1
        12        13     1
        13        14     1
        14        15     1
        16        18     1
        16        19     1
        17        18     1
        17        19     1
        18        20     1
        18        21     1
        19        20     1
        19        21     1
        20        22     1
        20        23     1
        20        24     1
        21        22     1
        21        23     1
        21        24     1
