; ITP file created by ByteFF-joint-25, 2025-07-14 11:28:00.564975

[ atomtypes ]
;name           bonded.type        at.num        mass        charge   ptype           sigma         epsilon
 c0bf                                   6      0.0000       0.00000       A     3.31534e-01     4.13179e-01    ;  uncertainty sigma = 0.000003, epsilon = 0.000886
 c1bf                                   6      0.0000       0.00000       A     3.31521e-01     4.13362e-01    ;  uncertainty sigma = 0.000004, epsilon = 0.000548
 c2bf                                   6      0.0000       0.00000       A     3.31518e-01     4.13343e-01    ;  uncertainty sigma = 0.000003, epsilon = 0.000526
 c3bf                                   6      0.0000       0.00000       A     3.31519e-01     4.13331e-01    ;  uncertainty sigma = 0.000003, epsilon = 0.000569
 c4bf                                   6      0.0000       0.00000       A     3.31518e-01     4.13343e-01    ;  uncertainty sigma = 0.000003, epsilon = 0.000526
 c5bf                                   6      0.0000       0.00000       A     3.31521e-01     4.13362e-01    ;  uncertainty sigma = 0.000004, epsilon = 0.000548
 c6bf                                   6      0.0000       0.00000       A     3.39751e-01     4.50352e-01    ;  uncertainty sigma = 0.000013, epsilon = 0.000873
 c7bf                                   6      0.0000       0.00000       A     3.39786e-01     4.50780e-01    ;  uncertainty sigma = 0.000004, epsilon = 0.000302
 h8bf                                   1      0.0000       0.00000       A     2.62565e-01     6.71217e-02    ;  uncertainty sigma = 0.000005, epsilon = 0.000518
 h9bf                                   1      0.0000       0.00000       A     2.62558e-01     6.70324e-02    ;  uncertainty sigma = 0.000010, epsilon = 0.000442
 h10bf                                  1      0.0000       0.00000       A     2.62552e-01     6.70645e-02    ;  uncertainty sigma = 0.000011, epsilon = 0.000453
 h11bf                                  1      0.0000       0.00000       A     2.62558e-01     6.70324e-02    ;  uncertainty sigma = 0.000010, epsilon = 0.000442
 h12bf                                  1      0.0000       0.00000       A     2.62565e-01     6.71217e-02    ;  uncertainty sigma = 0.000005, epsilon = 0.000518
 h13bf                                  1      0.0000       0.00000       A     2.60022e-01     8.67252e-02    ;  uncertainty sigma = 0.000019, epsilon = 0.000696
 h14bf                                  1      0.0000       0.00000       A     2.60022e-01     8.67252e-02    ;  uncertainty sigma = 0.000019, epsilon = 0.000696
 h15bf                                  1      0.0000       0.00000       A     2.60024e-01     8.66316e-02    ;  uncertainty sigma = 0.000009, epsilon = 0.000658
 h16bf                                  1      0.0000       0.00000       A     2.60024e-01     8.66316e-02    ;  uncertainty sigma = 0.000009, epsilon = 0.000658
 h17bf                                  1      0.0000       0.00000       A     2.60024e-01     8.66317e-02    ;  uncertainty sigma = 0.000009, epsilon = 0.000659

[ moleculetype ]
;name             nrexcl
 MOL                   3

[ atoms ]
;       nr            type      resi   res      atom      cgnr      charge          mass ; qtot
         1            c0bf         1   UNL        c0         1    -0.08206       12.0110 ; qtot   -0.082
         2            c1bf         1   UNL        c1         2    -0.12776       12.0110 ; qtot   -0.210
         3            c2bf         1   UNL        c2         3    -0.12994       12.0110 ; qtot   -0.340
         4            c3bf         1   UNL        c3         4    -0.12782       12.0110 ; qtot   -0.468
         5            c4bf         1   UNL        c4         5    -0.12994       12.0110 ; qtot   -0.598
         6            c5bf         1   UNL        c5         6    -0.12776       12.0110 ; qtot   -0.725
         7            c6bf         1   UNL        c6         7    -0.03493       12.0110 ; qtot   -0.760
         8            c7bf         1   UNL        c7         8    -0.08925       12.0110 ; qtot   -0.849
         9            h8bf         1   UNL        h8         9     0.13014        1.0080 ; qtot   -0.719
        10            h9bf         1   UNL        h9        10     0.13082        1.0080 ; qtot   -0.589
        11           h10bf         1   UNL       h10        11     0.13198        1.0080 ; qtot   -0.457
        12           h11bf         1   UNL       h11        12     0.13082        1.0080 ; qtot   -0.326
        13           h12bf         1   UNL       h12        13     0.13014        1.0080 ; qtot   -0.196
        14           h13bf         1   UNL       h13        14     0.04468        1.0080 ; qtot   -0.151
        15           h14bf         1   UNL       h14        15     0.04468        1.0080 ; qtot   -0.106
        16           h15bf         1   UNL       h15        16     0.03541        1.0080 ; qtot   -0.071
        17           h16bf         1   UNL       h16        17     0.03541        1.0080 ; qtot   -0.035
        18           h17bf         1   UNL       h17        18     0.03538        1.0080 ; qtot   -0.000

[ bonds ]
;       ai        aj funct               r               k
         1         2     1        0.139987   349804.387451    ;  uncertainty r = 0.000023, k = 3.285849
         1         6     1        0.139987   349804.387451    ;  uncertainty r = 0.000023, k = 3.285849
         1         7     1        0.151315   234555.693750    ;  uncertainty r = 0.000028, k = 2.753016
         2         3     1        0.139685   367549.205420    ;  uncertainty r = 0.000029, k = 1.671614
         2         9     1        0.108927   334463.275439    ;  uncertainty r = 0.000017, k = 0.559253
         3         4     1        0.139637   370587.431934    ;  uncertainty r = 0.000019, k = 1.259389
         3        10     1        0.108854   334327.188184    ;  uncertainty r = 0.000010, k = 0.904566
         4         5     1        0.139637   370587.431934    ;  uncertainty r = 0.000019, k = 1.259389
         4        11     1        0.108851   334582.457129    ;  uncertainty r = 0.000012, k = 0.680655
         5         6     1        0.139685   367549.205420    ;  uncertainty r = 0.000029, k = 1.671614
         5        12     1        0.108854   334327.188184    ;  uncertainty r = 0.000010, k = 0.904566
         6        13     1        0.108927   334463.275439    ;  uncertainty r = 0.000017, k = 0.559253
         7         8     1        0.154176   229470.208252    ;  uncertainty r = 0.000050, k = 5.033000
         7        14     1        0.109674   306909.602686    ;  uncertainty r = 0.000029, k = 2.580537
         7        15     1        0.109674   306909.602686    ;  uncertainty r = 0.000029, k = 2.580537
         8        16     1        0.109610   309233.607324    ;  uncertainty r = 0.000011, k = 0.969538
         8        17     1        0.109610   309233.607324    ;  uncertainty r = 0.000011, k = 0.969538
         8        18     1        0.109610   309233.607324    ;  uncertainty r = 0.000011, k = 0.969538

[ angles ]
;       ai        aj        ak funct           theta             cth
         1         2         3     1      121.126389      522.093369    ;  uncertainty theta = 0.001493, k = 0.033207
         1         2         9     1      118.887840      270.964755    ;  uncertainty theta = 0.002043, k = 0.044432
         1         6         5     1      121.126389      522.093369    ;  uncertainty theta = 0.001493, k = 0.033207
         1         6        13     1      118.887840      270.964755    ;  uncertainty theta = 0.002043, k = 0.044432
         1         7         8     1      111.784767      563.691149    ;  uncertainty theta = 0.002006, k = 0.059337
         1         7        14     1      107.145325      393.644135    ;  uncertainty theta = 0.001931, k = 0.041549
         1         7        15     1      107.145325      393.644135    ;  uncertainty theta = 0.001931, k = 0.041549
         2         1         6     1      119.587204      467.680907    ;  uncertainty theta = 0.002488, k = 0.114524
         2         1         7     1      121.107620      431.427150    ;  uncertainty theta = 0.002247, k = 0.060334
         2         3         4     1      119.621483      517.271069    ;  uncertainty theta = 0.000853, k = 0.027092
         2         3        10     1      120.271873      285.921074    ;  uncertainty theta = 0.001705, k = 0.023879
         3         2         9     1      120.134354      292.324887    ;  uncertainty theta = 0.001900, k = 0.010582
         3         4         5     1      118.329422      526.152652    ;  uncertainty theta = 0.000907, k = 0.031471
         3         4        11     1      120.672157      289.503835    ;  uncertainty theta = 0.001676, k = 0.008297
         4         3        10     1      120.568382      288.279586    ;  uncertainty theta = 0.001545, k = 0.013753
         4         5         6     1      119.621483      517.271069    ;  uncertainty theta = 0.000853, k = 0.027092
         4         5        12     1      120.568382      288.279586    ;  uncertainty theta = 0.001545, k = 0.013753
         5         4        11     1      120.672157      289.503835    ;  uncertainty theta = 0.001676, k = 0.008297
         5         6        13     1      120.134354      292.324887    ;  uncertainty theta = 0.001900, k = 0.010582
         6         1         7     1      121.107620      431.427150    ;  uncertainty theta = 0.002247, k = 0.060334
         6         5        12     1      120.271873      285.921074    ;  uncertainty theta = 0.001705, k = 0.023879
         7         8        16     1      108.485817      413.596725    ;  uncertainty theta = 0.001715, k = 0.032644
         7         8        17     1      108.485817      413.596725    ;  uncertainty theta = 0.001715, k = 0.032644
         7         8        18     1      108.485817      413.596725    ;  uncertainty theta = 0.001715, k = 0.032644
         8         7        14     1      107.851074      407.897417    ;  uncertainty theta = 0.001854, k = 0.042131
         8         7        15     1      107.851074      407.897417    ;  uncertainty theta = 0.001854, k = 0.042131
        14         7        15     1      103.862755      310.477877    ;  uncertainty theta = 0.002748, k = 0.059351
        16         8        17     1      105.139038      315.510156    ;  uncertainty theta = 0.002270, k = 0.015366
        16         8        18     1      105.139038      315.510156    ;  uncertainty theta = 0.002270, k = 0.015366
        17         8        18     1      105.139038      315.510156    ;  uncertainty theta = 0.002270, k = 0.015366

[ dihedrals ] ; propers for gromacs 4.5 or higher, use funct 9
;       ai        aj        ak        al funct           phase               k        pn
         1         2         3         4     9        0.000000       -0.113993         1    ;  uncertainty k = 0.163521
         1         2         3         4     9      180.000000       13.991617         2    ;  uncertainty k = 0.223500
         1         2         3         4     9        0.000000       -0.937583         3    ;  uncertainty k = 0.481182
         1         2         3         4     9      180.000000        0.688519         4    ;  uncertainty k = 0.288257
         1         2         3        10     9        0.000000        0.063312         1    ;  uncertainty k = 0.176081
         1         2         3        10     9      180.000000        7.441529         2    ;  uncertainty k = 0.380921
         1         2         3        10     9        0.000000        1.486223         3    ;  uncertainty k = 0.219066
         1         2         3        10     9      180.000000        1.814439         4    ;  uncertainty k = 0.161070
         1         6         5         4     9        0.000000       -0.113993         1    ;  uncertainty k = 0.163521
         1         6         5         4     9      180.000000       13.991617         2    ;  uncertainty k = 0.223500
         1         6         5         4     9        0.000000       -0.937583         3    ;  uncertainty k = 0.481182
         1         6         5         4     9      180.000000        0.688519         4    ;  uncertainty k = 0.288257
         1         6         5        12     9        0.000000        0.063312         1    ;  uncertainty k = 0.176081
         1         6         5        12     9      180.000000        7.441529         2    ;  uncertainty k = 0.380921
         1         6         5        12     9        0.000000        1.486223         3    ;  uncertainty k = 0.219066
         1         6         5        12     9      180.000000        1.814439         4    ;  uncertainty k = 0.161070
         1         7         8        16     9        0.000000        0.017244         1    ;  uncertainty k = 0.156082
         1         7         8        16     9      180.000000       -0.423301         2    ;  uncertainty k = 0.375079
         1         7         8        16     9        0.000000        1.460974         3    ;  uncertainty k = 0.069136
         1         7         8        16     9      180.000000       -0.049852         4    ;  uncertainty k = 0.053131
         1         7         8        17     9        0.000000        0.017244         1    ;  uncertainty k = 0.156082
         1         7         8        17     9      180.000000       -0.423301         2    ;  uncertainty k = 0.375079
         1         7         8        17     9        0.000000        1.460974         3    ;  uncertainty k = 0.069136
         1         7         8        17     9      180.000000       -0.049852         4    ;  uncertainty k = 0.053131
         1         7         8        18     9        0.000000        0.017244         1    ;  uncertainty k = 0.156082
         1         7         8        18     9      180.000000       -0.423301         2    ;  uncertainty k = 0.375079
         1         7         8        18     9        0.000000        1.460974         3    ;  uncertainty k = 0.069136
         1         7         8        18     9      180.000000       -0.049852         4    ;  uncertainty k = 0.053131
         2         1         6         5     9        0.000000       -0.183852         1    ;  uncertainty k = 0.155914
         2         1         6         5     9      180.000000       11.616269         2    ;  uncertainty k = 0.373425
         2         1         6         5     9        0.000000       -0.410442         3    ;  uncertainty k = 0.349054
         2         1         6         5     9      180.000000        0.770933         4    ;  uncertainty k = 0.401776
         2         1         6        13     9        0.000000        0.119159         1    ;  uncertainty k = 0.201936
         2         1         6        13     9      180.000000        7.155954         2    ;  uncertainty k = 0.483945
         2         1         6        13     9        0.000000        1.457256         3    ;  uncertainty k = 0.340163
         2         1         6        13     9      180.000000        1.645698         4    ;  uncertainty k = 0.123526
         2         1         7         8     9        0.000000       -0.599715         1    ;  uncertainty k = 0.430451
         2         1         7         8     9      180.000000        1.931643         2    ;  uncertainty k = 0.179340
         2         1         7         8     9        0.000000        0.495054         3    ;  uncertainty k = 0.090229
         2         1         7         8     9      180.000000        0.430551         4    ;  uncertainty k = 0.019487
         2         1         7        14     9        0.000000        0.069318         1    ;  uncertainty k = 0.261684
         2         1         7        14     9      180.000000        1.702140         2    ;  uncertainty k = 0.207779
         2         1         7        14     9        0.000000        0.432053         3    ;  uncertainty k = 0.074621
         2         1         7        14     9      180.000000        0.195872         4    ;  uncertainty k = 0.026427
         2         1         7        15     9        0.000000        0.069318         1    ;  uncertainty k = 0.261684
         2         1         7        15     9      180.000000        1.702140         2    ;  uncertainty k = 0.207779
         2         1         7        15     9        0.000000        0.432053         3    ;  uncertainty k = 0.074621
         2         1         7        15     9      180.000000        0.195872         4    ;  uncertainty k = 0.026427
         2         3         4         5     9        0.000000        0.013207         1    ;  uncertainty k = 0.059503
         2         3         4         5     9      180.000000       14.993900         2    ;  uncertainty k = 0.274476
         2         3         4         5     9        0.000000       -1.247601         3    ;  uncertainty k = 0.526070
         2         3         4         5     9      180.000000        0.485721         4    ;  uncertainty k = 0.307469
         2         3         4        11     9        0.000000        0.076389         1    ;  uncertainty k = 0.047947
         2         3         4        11     9      180.000000        7.514503         2    ;  uncertainty k = 0.380690
         2         3         4        11     9        0.000000        1.462888         3    ;  uncertainty k = 0.297639
         2         3         4        11     9      180.000000        1.797032         4    ;  uncertainty k = 0.175818
         3         2         1         6     9        0.000000       -0.183852         1    ;  uncertainty k = 0.155914
         3         2         1         6     9      180.000000       11.616269         2    ;  uncertainty k = 0.373425
         3         2         1         6     9        0.000000       -0.410442         3    ;  uncertainty k = 0.349054
         3         2         1         6     9      180.000000        0.770933         4    ;  uncertainty k = 0.401776
         3         2         1         7     9        0.000000        0.217235         1    ;  uncertainty k = 0.318952
         3         2         1         7     9      180.000000        9.329534         2    ;  uncertainty k = 0.398930
         3         2         1         7     9        0.000000        1.430182         3    ;  uncertainty k = 0.293919
         3         2         1         7     9      180.000000        1.821602         4    ;  uncertainty k = 0.186842
         3         4         5         6     9        0.000000        0.013207         1    ;  uncertainty k = 0.059503
         3         4         5         6     9      180.000000       14.993900         2    ;  uncertainty k = 0.274476
         3         4         5         6     9        0.000000       -1.247601         3    ;  uncertainty k = 0.526070
         3         4         5         6     9      180.000000        0.485721         4    ;  uncertainty k = 0.307469
         3         4         5        12     9        0.000000        0.061791         1    ;  uncertainty k = 0.040367
         3         4         5        12     9      180.000000        7.533637         2    ;  uncertainty k = 0.335061
         3         4         5        12     9        0.000000        1.445862         3    ;  uncertainty k = 0.325059
         3         4         5        12     9      180.000000        1.795809         4    ;  uncertainty k = 0.164033
         4         3         2         9     9        0.000000        0.098139         1    ;  uncertainty k = 0.092553
         4         3         2         9     9      180.000000        7.900337         2    ;  uncertainty k = 0.310163
         4         3         2         9     9        0.000000        1.456940         3    ;  uncertainty k = 0.313627
         4         3         2         9     9      180.000000        1.847306         4    ;  uncertainty k = 0.169047
         4         5         6        13     9        0.000000        0.098139         1    ;  uncertainty k = 0.092553
         4         5         6        13     9      180.000000        7.900337         2    ;  uncertainty k = 0.310163
         4         5         6        13     9        0.000000        1.456940         3    ;  uncertainty k = 0.313627
         4         5         6        13     9      180.000000        1.847306         4    ;  uncertainty k = 0.169047
         5         4         3        10     9        0.000000        0.061791         1    ;  uncertainty k = 0.040367
         5         4         3        10     9      180.000000        7.533637         2    ;  uncertainty k = 0.335061
         5         4         3        10     9        0.000000        1.445862         3    ;  uncertainty k = 0.325059
         5         4         3        10     9      180.000000        1.795809         4    ;  uncertainty k = 0.164033
         5         6         1         7     9        0.000000        0.217235         1    ;  uncertainty k = 0.318952
         5         6         1         7     9      180.000000        9.329534         2    ;  uncertainty k = 0.398930
         5         6         1         7     9        0.000000        1.430182         3    ;  uncertainty k = 0.293919
         5         6         1         7     9      180.000000        1.821602         4    ;  uncertainty k = 0.186842
         6         1         2         9     9        0.000000        0.119159         1    ;  uncertainty k = 0.201936
         6         1         2         9     9      180.000000        7.155954         2    ;  uncertainty k = 0.483945
         6         1         2         9     9        0.000000        1.457256         3    ;  uncertainty k = 0.340163
         6         1         2         9     9      180.000000        1.645698         4    ;  uncertainty k = 0.123526
         6         1         7         8     9        0.000000       -0.599715         1    ;  uncertainty k = 0.430451
         6         1         7         8     9      180.000000        1.931643         2    ;  uncertainty k = 0.179340
         6         1         7         8     9        0.000000        0.495054         3    ;  uncertainty k = 0.090229
         6         1         7         8     9      180.000000        0.430551         4    ;  uncertainty k = 0.019487
         6         1         7        14     9        0.000000        0.069318         1    ;  uncertainty k = 0.261684
         6         1         7        14     9      180.000000        1.702140         2    ;  uncertainty k = 0.207779
         6         1         7        14     9        0.000000        0.432053         3    ;  uncertainty k = 0.074621
         6         1         7        14     9      180.000000        0.195872         4    ;  uncertainty k = 0.026427
         6         1         7        15     9        0.000000        0.069318         1    ;  uncertainty k = 0.261684
         6         1         7        15     9      180.000000        1.702140         2    ;  uncertainty k = 0.207779
         6         1         7        15     9        0.000000        0.432053         3    ;  uncertainty k = 0.074621
         6         1         7        15     9      180.000000        0.195872         4    ;  uncertainty k = 0.026427
         6         5         4        11     9        0.000000        0.076389         1    ;  uncertainty k = 0.047947
         6         5         4        11     9      180.000000        7.514503         2    ;  uncertainty k = 0.380690
         6         5         4        11     9        0.000000        1.462888         3    ;  uncertainty k = 0.297639
         6         5         4        11     9      180.000000        1.797032         4    ;  uncertainty k = 0.175818
         7         1         2         9     9        0.000000       -0.223292         1    ;  uncertainty k = 0.286069
         7         1         2         9     9      180.000000        7.854901         2    ;  uncertainty k = 0.177331
         7         1         2         9     9        0.000000        0.611362         3    ;  uncertainty k = 0.282210
         7         1         2         9     9      180.000000        0.992258         4    ;  uncertainty k = 0.172840
         7         1         6        13     9        0.000000       -0.223292         1    ;  uncertainty k = 0.286069
         7         1         6        13     9      180.000000        7.854901         2    ;  uncertainty k = 0.177331
         7         1         6        13     9        0.000000        0.611362         3    ;  uncertainty k = 0.282210
         7         1         6        13     9      180.000000        0.992258         4    ;  uncertainty k = 0.172840
         9         2         3        10     9        0.000000       -0.021487         1    ;  uncertainty k = 0.047947
         9         2         3        10     9      180.000000        7.651715         2    ;  uncertainty k = 0.279371
         9         2         3        10     9        0.000000       -0.453205         3    ;  uncertainty k = 0.246521
         9         2         3        10     9      180.000000        0.090289         4    ;  uncertainty k = 0.102760
        10         3         4        11     9        0.000000       -0.006373         1    ;  uncertainty k = 0.088779
        10         3         4        11     9      180.000000        7.464233         2    ;  uncertainty k = 0.352345
        10         3         4        11     9        0.000000       -0.416733         3    ;  uncertainty k = 0.274619
        10         3         4        11     9      180.000000        0.051450         4    ;  uncertainty k = 0.138379
        11         4         5        12     9        0.000000       -0.006373         1    ;  uncertainty k = 0.088779
        11         4         5        12     9      180.000000        7.464233         2    ;  uncertainty k = 0.352345
        11         4         5        12     9        0.000000       -0.416733         3    ;  uncertainty k = 0.274619
        11         4         5        12     9      180.000000        0.051450         4    ;  uncertainty k = 0.138379
        12         5         6        13     9        0.000000       -0.021487         1    ;  uncertainty k = 0.047947
        12         5         6        13     9      180.000000        7.651715         2    ;  uncertainty k = 0.279371
        12         5         6        13     9        0.000000       -0.453205         3    ;  uncertainty k = 0.246521
        12         5         6        13     9      180.000000        0.090289         4    ;  uncertainty k = 0.102760
        14         7         8        16     9        0.000000        0.502176         1    ;  uncertainty k = 0.190245
        14         7         8        16     9      180.000000       -0.610327         2    ;  uncertainty k = 0.247148
        14         7         8        16     9        0.000000        0.712812         3    ;  uncertainty k = 0.035197
        14         7         8        16     9      180.000000        0.004477         4    ;  uncertainty k = 0.030738
        14         7         8        17     9        0.000000        0.502176         1    ;  uncertainty k = 0.190245
        14         7         8        17     9      180.000000       -0.610327         2    ;  uncertainty k = 0.247148
        14         7         8        17     9        0.000000        0.712812         3    ;  uncertainty k = 0.035197
        14         7         8        17     9      180.000000        0.004477         4    ;  uncertainty k = 0.030738
        14         7         8        18     9        0.000000        0.502176         1    ;  uncertainty k = 0.190245
        14         7         8        18     9      180.000000       -0.610327         2    ;  uncertainty k = 0.247148
        14         7         8        18     9        0.000000        0.712812         3    ;  uncertainty k = 0.035197
        14         7         8        18     9      180.000000        0.004477         4    ;  uncertainty k = 0.030738
        15         7         8        16     9        0.000000        0.502176         1    ;  uncertainty k = 0.190245
        15         7         8        16     9      180.000000       -0.610327         2    ;  uncertainty k = 0.247148
        15         7         8        16     9        0.000000        0.712812         3    ;  uncertainty k = 0.035197
        15         7         8        16     9      180.000000        0.004477         4    ;  uncertainty k = 0.030738
        15         7         8        17     9        0.000000        0.502176         1    ;  uncertainty k = 0.190245
        15         7         8        17     9      180.000000       -0.610327         2    ;  uncertainty k = 0.247148
        15         7         8        17     9        0.000000        0.712812         3    ;  uncertainty k = 0.035197
        15         7         8        17     9      180.000000        0.004477         4    ;  uncertainty k = 0.030738
        15         7         8        18     9        0.000000        0.502176         1    ;  uncertainty k = 0.190245
        15         7         8        18     9      180.000000       -0.610327         2    ;  uncertainty k = 0.247148
        15         7         8        18     9        0.000000        0.712812         3    ;  uncertainty k = 0.035197
        15         7         8        18     9      180.000000        0.004477         4    ;  uncertainty k = 0.030738

[ dihedrals ] ; impropers
;       ai        aj        ak        al funct           phase               k        pn
         1         2         6         7     4      180.000000       14.411656         2    ;  uncertainty k = 0.049035
         1         6         7         2     4      180.000000       14.411656         2    ;  uncertainty k = 0.049035
         1         7         2         6     4      180.000000       14.411656         2    ;  uncertainty k = 0.049035
         2         1         3         9     4      180.000000        4.218768         2    ;  uncertainty k = 0.093628
         2         3         9         1     4      180.000000        4.218768         2    ;  uncertainty k = 0.093628
         2         9         1         3     4      180.000000        4.218768         2    ;  uncertainty k = 0.093628
         3         2         4        10     4      180.000000        4.284889         2    ;  uncertainty k = 0.074421
         3         4        10         2     4      180.000000        4.284889         2    ;  uncertainty k = 0.074421
         3        10         2         4     4      180.000000        4.284889         2    ;  uncertainty k = 0.074421
         4         3         5        11     4      180.000000        4.333638         2    ;  uncertainty k = 0.163023
         4         5        11         3     4      180.000000        4.333638         2    ;  uncertainty k = 0.163023
         4        11         3         5     4      180.000000        4.333638         2    ;  uncertainty k = 0.163023
         5         4         6        12     4      180.000000        4.284888         2    ;  uncertainty k = 0.074420
         5         6        12         4     4      180.000000        4.284888         2    ;  uncertainty k = 0.074420
         5        12         4         6     4      180.000000        4.284888         2    ;  uncertainty k = 0.074420
         6         1         5        13     4      180.000000        4.218766         2    ;  uncertainty k = 0.093627
         6         5        13         1     4      180.000000        4.218766         2    ;  uncertainty k = 0.093627
         6        13         1         5     4      180.000000        4.218766         2    ;  uncertainty k = 0.093627

[ pairs ]
;       ai        aj funct
         1         4     1
         1        10     1
         1        12     1
         1        16     1
         1        17     1
         1        18     1
         2         5     1
         2         8     1
         2        11     1
         2        13     1
         2        14     1
         2        15     1
         3         6     1
         3         7     1
         3        12     1
         4         9     1
         4        13     1
         5         7     1
         5        10     1
         6         8     1
         6         9     1
         6        11     1
         6        14     1
         6        15     1
         7         9     1
         7        13     1
         9        10     1
        10        11     1
        11        12     1
        12        13     1
        14        16     1
        14        17     1
        14        18     1
        15        16     1
        15        17     1
        15        18     1
