; ITP file created by ByteFF-joint-25, 2025-07-14 11:28:01.330999

[ atomtypes ]
;name           bonded.type        at.num        mass        charge   ptype           sigma         epsilon
 c0bf                                   6      0.0000       0.00000       A     3.31530e-01     4.12994e-01    ;  uncertainty sigma = 0.000003, epsilon = 0.000702
 c1bf                                   6      0.0000       0.00000       A     3.31519e-01     4.13371e-01    ;  uncertainty sigma = 0.000003, epsilon = 0.000600
 c2bf                                   6      0.0000       0.00000       A     3.31518e-01     4.13343e-01    ;  uncertainty sigma = 0.000003, epsilon = 0.000526
 c3bf                                   6      0.0000       0.00000       A     3.31519e-01     4.13331e-01    ;  uncertainty sigma = 0.000003, epsilon = 0.000569
 c4bf                                   6      0.0000       0.00000       A     3.31518e-01     4.13343e-01    ;  uncertainty sigma = 0.000003, epsilon = 0.000526
 c5bf                                   6      0.0000       0.00000       A     3.31519e-01     4.13371e-01    ;  uncertainty sigma = 0.000003, epsilon = 0.000600
 c6bf                                   6      0.0000       0.00000       A     3.39790e-01     4.50641e-01    ;  uncertainty sigma = 0.000014, epsilon = 0.001133
 c7bf                                   6      0.0000       0.00000       A     3.39764e-01     4.50797e-01    ;  uncertainty sigma = 0.000007, epsilon = 0.000686
 c8bf                                   6      0.0000       0.00000       A     3.39773e-01     4.50885e-01    ;  uncertainty sigma = 0.000003, epsilon = 0.000576
 h9bf                                   1      0.0000       0.00000       A     2.62565e-01     6.71217e-02    ;  uncertainty sigma = 0.000005, epsilon = 0.000518
 h10bf                                  1      0.0000       0.00000       A     2.62558e-01     6.70324e-02    ;  uncertainty sigma = 0.000010, epsilon = 0.000442
 h11bf                                  1      0.0000       0.00000       A     2.62552e-01     6.70645e-02    ;  uncertainty sigma = 0.000011, epsilon = 0.000453
 h12bf                                  1      0.0000       0.00000       A     2.62558e-01     6.70324e-02    ;  uncertainty sigma = 0.000010, epsilon = 0.000442
 h13bf                                  1      0.0000       0.00000       A     2.62565e-01     6.71217e-02    ;  uncertainty sigma = 0.000005, epsilon = 0.000518
 h14bf                                  1      0.0000       0.00000       A     2.60042e-01     8.64051e-02    ;  uncertainty sigma = 0.000023, epsilon = 0.000587
 h15bf                                  1      0.0000       0.00000       A     2.60042e-01     8.64051e-02    ;  uncertainty sigma = 0.000023, epsilon = 0.000587
 h16bf                                  1      0.0000       0.00000       A     2.60042e-01     8.68605e-02    ;  uncertainty sigma = 0.000023, epsilon = 0.000900
 h17bf                                  1      0.0000       0.00000       A     2.60017e-01     8.66668e-02    ;  uncertainty sigma = 0.000012, epsilon = 0.000532
 h18bf                                  1      0.0000       0.00000       A     2.60017e-01     8.66668e-02    ;  uncertainty sigma = 0.000012, epsilon = 0.000532
 h19bf                                  1      0.0000       0.00000       A     2.60017e-01     8.66668e-02    ;  uncertainty sigma = 0.000012, epsilon = 0.000532
 c20bf                                  6      0.0000       0.00000       A     3.39773e-01     4.50885e-01    ;  uncertainty sigma = 0.000003, epsilon = 0.000576
 h21bf                                  1      0.0000       0.00000       A     2.60017e-01     8.66668e-02    ;  uncertainty sigma = 0.000012, epsilon = 0.000532
 h22bf                                  1      0.0000       0.00000       A     2.60017e-01     8.66668e-02    ;  uncertainty sigma = 0.000012, epsilon = 0.000532
 h23bf                                  1      0.0000       0.00000       A     2.60017e-01     8.66668e-02    ;  uncertainty sigma = 0.000012, epsilon = 0.000532

[ moleculetype ]
;name             nrexcl
 MOL                   3

[ atoms ]
;       nr            type      resi   res      atom      cgnr      charge          mass ; qtot
         1            c0bf         1   UNL        c0         1    -0.07987       12.0110 ; qtot   -0.080
         2            c1bf         1   UNL        c1         2    -0.12745       12.0110 ; qtot   -0.207
         3            c2bf         1   UNL        c2         3    -0.12982       12.0110 ; qtot   -0.337
         4            c3bf         1   UNL        c3         4    -0.12782       12.0110 ; qtot   -0.465
         5            c4bf         1   UNL        c4         5    -0.12982       12.0110 ; qtot   -0.595
         6            c5bf         1   UNL        c5         6    -0.12745       12.0110 ; qtot   -0.722
         7            c6bf         1   UNL        c6         7    -0.03337       12.0110 ; qtot   -0.756
         8            c7bf         1   UNL        c7         8    -0.06062       12.0110 ; qtot   -0.816
         9            c8bf         1   UNL        c8         9    -0.09112       12.0110 ; qtot   -0.907
        10            h9bf         1   UNL        h9        10     0.13209        1.0080 ; qtot   -0.775
        11           h10bf         1   UNL       h10        11     0.13082        1.0080 ; qtot   -0.644
        12           h11bf         1   UNL       h11        12     0.13198        1.0080 ; qtot   -0.512
        13           h12bf         1   UNL       h12        13     0.13082        1.0080 ; qtot   -0.382
        14           h13bf         1   UNL       h13        14     0.13209        1.0080 ; qtot   -0.250
        15           h14bf         1   UNL       h14        15     0.04546        1.0080 ; qtot   -0.204
        16           h15bf         1   UNL       h15        16     0.04546        1.0080 ; qtot   -0.159
        17           h16bf         1   UNL       h16        17     0.04487        1.0080 ; qtot   -0.114
        18           h17bf         1   UNL       h17        18     0.03415        1.0080 ; qtot   -0.080
        19           h18bf         1   UNL       h18        19     0.03415        1.0080 ; qtot   -0.045
        20           h19bf         1   UNL       h19        20     0.03415        1.0080 ; qtot   -0.011
        21           c20bf         1   UNL       c20        21    -0.09112       12.0110 ; qtot   -0.102
        22           h21bf         1   UNL       h21        22     0.03415        1.0080 ; qtot   -0.068
        23           h22bf         1   UNL       h22        23     0.03415        1.0080 ; qtot   -0.034
        24           h23bf         1   UNL       h23        24     0.03412        1.0080 ; qtot    0.000

[ bonds ]
;       ai        aj funct               r               k
         1         2     1        0.140027   351180.965332    ;  uncertainty r = 0.000024, k = 0.521095
         1         6     1        0.140027   351180.965332    ;  uncertainty r = 0.000024, k = 0.521095
         1         7     1        0.151176   230857.741553    ;  uncertainty r = 0.000045, k = 4.146834
         2         3     1        0.139653   367229.966016    ;  uncertainty r = 0.000016, k = 1.641087
         2        10     1        0.108914   334192.607617    ;  uncertainty r = 0.000016, k = 0.846397
         3         4     1        0.139637   370587.431934    ;  uncertainty r = 0.000019, k = 1.259389
         3        11     1        0.108854   334327.188184    ;  uncertainty r = 0.000010, k = 0.904566
         4         5     1        0.139637   370587.431934    ;  uncertainty r = 0.000019, k = 1.259389
         4        12     1        0.108851   334582.457129    ;  uncertainty r = 0.000012, k = 0.680655
         5         6     1        0.139653   367229.966016    ;  uncertainty r = 0.000016, k = 1.641087
         5        13     1        0.108854   334327.188184    ;  uncertainty r = 0.000010, k = 0.904566
         6        14     1        0.108914   334192.607617    ;  uncertainty r = 0.000016, k = 0.846397
         7         8     1        0.153875   196530.120703    ;  uncertainty r = 0.000085, k = 8.579018
         7        15     1        0.109769   306277.635840    ;  uncertainty r = 0.000016, k = 1.793071
         7        16     1        0.109769   306277.635840    ;  uncertainty r = 0.000016, k = 1.793071
         8         9     1        0.153216   210550.070361    ;  uncertainty r = 0.000017, k = 2.805582
         8        17     1        0.109798   303575.426611    ;  uncertainty r = 0.000022, k = 1.456607
         8        21     1        0.153216   210550.070361    ;  uncertainty r = 0.000017, k = 2.805582
         9        18     1        0.109710   309571.386670    ;  uncertainty r = 0.000016, k = 1.204868
         9        19     1        0.109710   309571.386670    ;  uncertainty r = 0.000016, k = 1.204868
         9        20     1        0.109710   309571.386670    ;  uncertainty r = 0.000016, k = 1.204868
        21        22     1        0.109710   309571.386670    ;  uncertainty r = 0.000016, k = 1.204868
        21        23     1        0.109710   309571.386670    ;  uncertainty r = 0.000016, k = 1.204868
        21        24     1        0.109710   309571.386670    ;  uncertainty r = 0.000016, k = 1.204868

[ angles ]
;       ai        aj        ak funct           theta             cth
         1         2         3     1      121.076256      520.720302    ;  uncertainty theta = 0.001144, k = 0.029460
         1         2        10     1      119.047119      269.963509    ;  uncertainty theta = 0.002131, k = 0.012620
         1         6         5     1      121.076256      520.720302    ;  uncertainty theta = 0.001144, k = 0.029460
         1         6        14     1      119.047119      269.963509    ;  uncertainty theta = 0.002131, k = 0.012620
         1         7         8     1      111.719933      542.960060    ;  uncertainty theta = 0.001422, k = 0.052334
         1         7        15     1      107.105919      397.245761    ;  uncertainty theta = 0.001528, k = 0.042088
         1         7        16     1      107.105919      397.245761    ;  uncertainty theta = 0.001528, k = 0.042088
         2         1         6     1      119.482101      461.099515    ;  uncertainty theta = 0.001744, k = 0.068231
         2         1         7     1      121.448021      429.135992    ;  uncertainty theta = 0.002163, k = 0.072885
         2         3         4     1      119.521011      515.465723    ;  uncertainty theta = 0.000738, k = 0.025565
         2         3        11     1      120.208298      285.273070    ;  uncertainty theta = 0.001657, k = 0.017696
         3         2        10     1      120.153038      292.794451    ;  uncertainty theta = 0.002051, k = 0.011891
         3         4         5     1      118.329407      526.152652    ;  uncertainty theta = 0.000907, k = 0.031471
         3         4        12     1      120.672157      289.503835    ;  uncertainty theta = 0.001676, k = 0.008297
         4         3        11     1      120.568382      288.279586    ;  uncertainty theta = 0.001545, k = 0.013753
         4         5         6     1      119.521011      515.465723    ;  uncertainty theta = 0.000738, k = 0.025565
         4         5        13     1      120.568382      288.279586    ;  uncertainty theta = 0.001545, k = 0.013753
         5         4        12     1      120.672157      289.503835    ;  uncertainty theta = 0.001676, k = 0.008297
         5         6        14     1      120.153038      292.794451    ;  uncertainty theta = 0.002051, k = 0.011891
         6         1         7     1      121.448021      429.135992    ;  uncertainty theta = 0.002163, k = 0.072885
         6         5        13     1      120.208298      285.273070    ;  uncertainty theta = 0.001657, k = 0.017696
         7         8         9     1      109.446815      553.371923    ;  uncertainty theta = 0.001621, k = 0.073690
         7         8        17     1      105.512695      381.894255    ;  uncertainty theta = 0.001451, k = 0.048477
         7         8        21     1      109.446815      553.371923    ;  uncertainty theta = 0.001621, k = 0.073690
         8         7        15     1      106.894409      389.297240    ;  uncertainty theta = 0.001614, k = 0.030822
         8         7        16     1      106.894409      389.297240    ;  uncertainty theta = 0.001614, k = 0.030822
         8         9        18     1      107.961075      396.279181    ;  uncertainty theta = 0.001677, k = 0.027521
         8         9        19     1      107.961075      396.279181    ;  uncertainty theta = 0.001677, k = 0.027521
         8         9        20     1      107.961075      396.279181    ;  uncertainty theta = 0.001677, k = 0.027521
         8        21        22     1      107.961075      396.279181    ;  uncertainty theta = 0.001677, k = 0.027521
         8        21        23     1      107.961075      396.279181    ;  uncertainty theta = 0.001677, k = 0.027521
         8        21        24     1      107.961075      396.279181    ;  uncertainty theta = 0.001677, k = 0.027521
         9         8        17     1      106.706520      400.700900    ;  uncertainty theta = 0.001393, k = 0.030130
         9         8        21     1      110.018654      606.611369    ;  uncertainty theta = 0.001008, k = 0.063286
        15         7        16     1      104.376205      319.806967    ;  uncertainty theta = 0.001855, k = 0.035872
        17         8        21     1      106.706520      400.700900    ;  uncertainty theta = 0.001393, k = 0.030130
        18         9        19     1      105.083153      317.316811    ;  uncertainty theta = 0.001623, k = 0.013176
        18         9        20     1      105.083153      317.316811    ;  uncertainty theta = 0.001623, k = 0.013176
        19         9        20     1      105.083153      317.316811    ;  uncertainty theta = 0.001623, k = 0.013176
        22        21        23     1      105.083153      317.316811    ;  uncertainty theta = 0.001623, k = 0.013176
        22        21        24     1      105.083153      317.316843    ;  uncertainty theta = 0.001623, k = 0.013177
        23        21        24     1      105.083153      317.316843    ;  uncertainty theta = 0.001623, k = 0.013176

[ dihedrals ] ; propers for gromacs 4.5 or higher, use funct 9
;       ai        aj        ak        al funct           phase               k        pn
         1         2         3         4     9        0.000000       -0.118929         1    ;  uncertainty k = 0.192124
         1         2         3         4     9      180.000000       13.992079         2    ;  uncertainty k = 0.195607
         1         2         3         4     9        0.000000       -0.994726         3    ;  uncertainty k = 0.508356
         1         2         3         4     9      180.000000        0.663194         4    ;  uncertainty k = 0.278587
         1         2         3        11     9        0.000000        0.039812         1    ;  uncertainty k = 0.170442
         1         2         3        11     9      180.000000        7.462207         2    ;  uncertainty k = 0.381525
         1         2         3        11     9        0.000000        1.466554         3    ;  uncertainty k = 0.191618
         1         2         3        11     9      180.000000        1.791972         4    ;  uncertainty k = 0.132179
         1         6         5         4     9        0.000000       -0.118929         1    ;  uncertainty k = 0.192124
         1         6         5         4     9      180.000000       13.992079         2    ;  uncertainty k = 0.195607
         1         6         5         4     9        0.000000       -0.994726         3    ;  uncertainty k = 0.508356
         1         6         5         4     9      180.000000        0.663194         4    ;  uncertainty k = 0.278587
         1         6         5        13     9        0.000000        0.039812         1    ;  uncertainty k = 0.170442
         1         6         5        13     9      180.000000        7.462207         2    ;  uncertainty k = 0.381525
         1         6         5        13     9        0.000000        1.466554         3    ;  uncertainty k = 0.191618
         1         6         5        13     9      180.000000        1.791972         4    ;  uncertainty k = 0.132179
         1         7         8         9     9        0.000000       -2.052221         1    ;  uncertainty k = 0.344990
         1         7         8         9     9      180.000000        0.149070         2    ;  uncertainty k = 0.177220
         1         7         8         9     9        0.000000        1.503185         3    ;  uncertainty k = 0.119942
         1         7         8         9     9      180.000000       -0.142499         4    ;  uncertainty k = 0.108683
         1         7         8        17     9        0.000000        0.679078         1    ;  uncertainty k = 0.284053
         1         7         8        17     9      180.000000       -0.816728         2    ;  uncertainty k = 0.238068
         1         7         8        17     9        0.000000        0.879848         3    ;  uncertainty k = 0.130714
         1         7         8        17     9      180.000000        0.058066         4    ;  uncertainty k = 0.045739
         1         7         8        21     9        0.000000       -2.052221         1    ;  uncertainty k = 0.344990
         1         7         8        21     9      180.000000        0.149070         2    ;  uncertainty k = 0.177220
         1         7         8        21     9        0.000000        1.503185         3    ;  uncertainty k = 0.119942
         1         7         8        21     9      180.000000       -0.142499         4    ;  uncertainty k = 0.108683
         2         1         6         5     9        0.000000       -0.193946         1    ;  uncertainty k = 0.135625
         2         1         6         5     9      180.000000       11.679745         2    ;  uncertainty k = 0.404576
         2         1         6         5     9        0.000000       -0.425958         3    ;  uncertainty k = 0.343378
         2         1         6         5     9      180.000000        0.771956         4    ;  uncertainty k = 0.416904
         2         1         6        14     9        0.000000        0.124019         1    ;  uncertainty k = 0.118289
         2         1         6        14     9      180.000000        7.188626         2    ;  uncertainty k = 0.522609
         2         1         6        14     9        0.000000        1.458462         3    ;  uncertainty k = 0.339211
         2         1         6        14     9      180.000000        1.629044         4    ;  uncertainty k = 0.151817
         2         1         7         8     9        0.000000       -0.011239         1    ;  uncertainty k = 0.321593
         2         1         7         8     9      180.000000        1.628555         2    ;  uncertainty k = 0.202347
         2         1         7         8     9        0.000000        0.523309         3    ;  uncertainty k = 0.103757
         2         1         7         8     9      180.000000        0.428299         4    ;  uncertainty k = 0.055978
         2         1         7        15     9        0.000000       -0.019606         1    ;  uncertainty k = 0.320521
         2         1         7        15     9      180.000000        1.900654         2    ;  uncertainty k = 0.168377
         2         1         7        15     9        0.000000        0.374131         3    ;  uncertainty k = 0.060930
         2         1         7        15     9      180.000000        0.207981         4    ;  uncertainty k = 0.033291
         2         1         7        16     9        0.000000       -0.019606         1    ;  uncertainty k = 0.320521
         2         1         7        16     9      180.000000        1.900654         2    ;  uncertainty k = 0.168377
         2         1         7        16     9        0.000000        0.374131         3    ;  uncertainty k = 0.060930
         2         1         7        16     9      180.000000        0.207981         4    ;  uncertainty k = 0.033291
         2         3         4         5     9        0.000000        0.009143         1    ;  uncertainty k = 0.052475
         2         3         4         5     9      180.000000       15.064546         2    ;  uncertainty k = 0.276507
         2         3         4         5     9        0.000000       -1.239175         3    ;  uncertainty k = 0.508651
         2         3         4         5     9      180.000000        0.483106         4    ;  uncertainty k = 0.301270
         2         3         4        12     9        0.000000        0.052903         1    ;  uncertainty k = 0.062705
         2         3         4        12     9      180.000000        7.514166         2    ;  uncertainty k = 0.363290
         2         3         4        12     9        0.000000        1.454771         3    ;  uncertainty k = 0.297747
         2         3         4        12     9      180.000000        1.793572         4    ;  uncertainty k = 0.190293
         3         2         1         6     9        0.000000       -0.193946         1    ;  uncertainty k = 0.135625
         3         2         1         6     9      180.000000       11.679745         2    ;  uncertainty k = 0.404576
         3         2         1         6     9        0.000000       -0.425958         3    ;  uncertainty k = 0.343378
         3         2         1         6     9      180.000000        0.771956         4    ;  uncertainty k = 0.416904
         3         2         1         7     9        0.000000        0.232499         1    ;  uncertainty k = 0.281897
         3         2         1         7     9      180.000000        9.269871         2    ;  uncertainty k = 0.460986
         3         2         1         7     9        0.000000        1.400840         3    ;  uncertainty k = 0.371568
         3         2         1         7     9      180.000000        1.823194         4    ;  uncertainty k = 0.196184
         3         4         5         6     9        0.000000        0.009143         1    ;  uncertainty k = 0.052475
         3         4         5         6     9      180.000000       15.064546         2    ;  uncertainty k = 0.276507
         3         4         5         6     9        0.000000       -1.239175         3    ;  uncertainty k = 0.508651
         3         4         5         6     9      180.000000        0.483106         4    ;  uncertainty k = 0.301270
         3         4         5        13     9        0.000000        0.061791         1    ;  uncertainty k = 0.040367
         3         4         5        13     9      180.000000        7.533637         2    ;  uncertainty k = 0.335061
         3         4         5        13     9        0.000000        1.445862         3    ;  uncertainty k = 0.325059
         3         4         5        13     9      180.000000        1.795809         4    ;  uncertainty k = 0.164033
         4         3         2        10     9        0.000000        0.067466         1    ;  uncertainty k = 0.069728
         4         3         2        10     9      180.000000        7.858705         2    ;  uncertainty k = 0.316888
         4         3         2        10     9        0.000000        1.444423         3    ;  uncertainty k = 0.313592
         4         3         2        10     9      180.000000        1.843942         4    ;  uncertainty k = 0.166060
         4         5         6        14     9        0.000000        0.067466         1    ;  uncertainty k = 0.069728
         4         5         6        14     9      180.000000        7.858705         2    ;  uncertainty k = 0.316888
         4         5         6        14     9        0.000000        1.444423         3    ;  uncertainty k = 0.313592
         4         5         6        14     9      180.000000        1.843942         4    ;  uncertainty k = 0.166060
         5         4         3        11     9        0.000000        0.061791         1    ;  uncertainty k = 0.040367
         5         4         3        11     9      180.000000        7.533637         2    ;  uncertainty k = 0.335061
         5         4         3        11     9        0.000000        1.445862         3    ;  uncertainty k = 0.325059
         5         4         3        11     9      180.000000        1.795809         4    ;  uncertainty k = 0.164033
         5         6         1         7     9        0.000000        0.232499         1    ;  uncertainty k = 0.281897
         5         6         1         7     9      180.000000        9.269871         2    ;  uncertainty k = 0.460986
         5         6         1         7     9        0.000000        1.400840         3    ;  uncertainty k = 0.371568
         5         6         1         7     9      180.000000        1.823194         4    ;  uncertainty k = 0.196184
         6         1         2        10     9        0.000000        0.124019         1    ;  uncertainty k = 0.118289
         6         1         2        10     9      180.000000        7.188626         2    ;  uncertainty k = 0.522609
         6         1         2        10     9        0.000000        1.458462         3    ;  uncertainty k = 0.339211
         6         1         2        10     9      180.000000        1.629044         4    ;  uncertainty k = 0.151817
         6         1         7         8     9        0.000000       -0.011239         1    ;  uncertainty k = 0.321593
         6         1         7         8     9      180.000000        1.628555         2    ;  uncertainty k = 0.202347
         6         1         7         8     9        0.000000        0.523309         3    ;  uncertainty k = 0.103757
         6         1         7         8     9      180.000000        0.428299         4    ;  uncertainty k = 0.055978
         6         1         7        15     9        0.000000       -0.019606         1    ;  uncertainty k = 0.320521
         6         1         7        15     9      180.000000        1.900654         2    ;  uncertainty k = 0.168377
         6         1         7        15     9        0.000000        0.374131         3    ;  uncertainty k = 0.060930
         6         1         7        15     9      180.000000        0.207981         4    ;  uncertainty k = 0.033291
         6         1         7        16     9        0.000000       -0.019606         1    ;  uncertainty k = 0.320521
         6         1         7        16     9      180.000000        1.900654         2    ;  uncertainty k = 0.168377
         6         1         7        16     9        0.000000        0.374131         3    ;  uncertainty k = 0.060930
         6         1         7        16     9      180.000000        0.207981         4    ;  uncertainty k = 0.033291
         6         5         4        12     9        0.000000        0.052903         1    ;  uncertainty k = 0.062705
         6         5         4        12     9      180.000000        7.514166         2    ;  uncertainty k = 0.363290
         6         5         4        12     9        0.000000        1.454771         3    ;  uncertainty k = 0.297747
         6         5         4        12     9      180.000000        1.793572         4    ;  uncertainty k = 0.190293
         7         1         2        10     9        0.000000       -0.234290         1    ;  uncertainty k = 0.247388
         7         1         2        10     9      180.000000        7.699200         2    ;  uncertainty k = 0.165571
         7         1         2        10     9        0.000000        0.587934         3    ;  uncertainty k = 0.291835
         7         1         2        10     9      180.000000        0.988092         4    ;  uncertainty k = 0.183270
         7         1         6        14     9        0.000000       -0.234290         1    ;  uncertainty k = 0.247388
         7         1         6        14     9      180.000000        7.699200         2    ;  uncertainty k = 0.165571
         7         1         6        14     9        0.000000        0.587934         3    ;  uncertainty k = 0.291835
         7         1         6        14     9      180.000000        0.988092         4    ;  uncertainty k = 0.183270
         7         8         9        18     9        0.000000       -1.376714         1    ;  uncertainty k = 0.321860
         7         8         9        18     9      180.000000       -0.820118         2    ;  uncertainty k = 0.140405
         7         8         9        18     9        0.000000        1.047720         3    ;  uncertainty k = 0.087246
         7         8         9        18     9      180.000000       -0.322511         4    ;  uncertainty k = 0.016956
         7         8         9        19     9        0.000000       -1.376714         1    ;  uncertainty k = 0.321860
         7         8         9        19     9      180.000000       -0.820118         2    ;  uncertainty k = 0.140405
         7         8         9        19     9        0.000000        1.047720         3    ;  uncertainty k = 0.087246
         7         8         9        19     9      180.000000       -0.322511         4    ;  uncertainty k = 0.016956
         7         8         9        20     9        0.000000       -1.376714         1    ;  uncertainty k = 0.321860
         7         8         9        20     9      180.000000       -0.820118         2    ;  uncertainty k = 0.140405
         7         8         9        20     9        0.000000        1.047720         3    ;  uncertainty k = 0.087246
         7         8         9        20     9      180.000000       -0.322511         4    ;  uncertainty k = 0.016956
         7         8        21        22     9        0.000000       -1.376714         1    ;  uncertainty k = 0.321860
         7         8        21        22     9      180.000000       -0.820118         2    ;  uncertainty k = 0.140405
         7         8        21        22     9        0.000000        1.047720         3    ;  uncertainty k = 0.087246
         7         8        21        22     9      180.000000       -0.322511         4    ;  uncertainty k = 0.016956
         7         8        21        23     9        0.000000       -1.376714         1    ;  uncertainty k = 0.321860
         7         8        21        23     9      180.000000       -0.820118         2    ;  uncertainty k = 0.140405
         7         8        21        23     9        0.000000        1.047720         3    ;  uncertainty k = 0.087246
         7         8        21        23     9      180.000000       -0.322511         4    ;  uncertainty k = 0.016956
         7         8        21        24     9        0.000000       -1.376714         1    ;  uncertainty k = 0.321860
         7         8        21        24     9      180.000000       -0.820118         2    ;  uncertainty k = 0.140405
         7         8        21        24     9        0.000000        1.047720         3    ;  uncertainty k = 0.087246
         7         8        21        24     9      180.000000       -0.322511         4    ;  uncertainty k = 0.016956
         9         8         7        15     9        0.000000       -1.691295         1    ;  uncertainty k = 0.301581
         9         8         7        15     9      180.000000       -0.003019         2    ;  uncertainty k = 0.146222
         9         8         7        15     9        0.000000        0.756770         3    ;  uncertainty k = 0.057614
         9         8         7        15     9      180.000000       -0.206765         4    ;  uncertainty k = 0.037013
         9         8         7        16     9        0.000000       -1.691295         1    ;  uncertainty k = 0.301581
         9         8         7        16     9      180.000000       -0.003019         2    ;  uncertainty k = 0.146222
         9         8         7        16     9        0.000000        0.756770         3    ;  uncertainty k = 0.057614
         9         8         7        16     9      180.000000       -0.206765         4    ;  uncertainty k = 0.037013
         9         8        21        22     9        0.000000       -1.791340         1    ;  uncertainty k = 0.296810
         9         8        21        22     9      180.000000       -0.169692         2    ;  uncertainty k = 0.135187
         9         8        21        22     9        0.000000        1.133641         3    ;  uncertainty k = 0.018851
         9         8        21        22     9      180.000000       -0.164333         4    ;  uncertainty k = 0.029216
         9         8        21        23     9        0.000000       -1.791340         1    ;  uncertainty k = 0.296810
         9         8        21        23     9      180.000000       -0.169692         2    ;  uncertainty k = 0.135187
         9         8        21        23     9        0.000000        1.133641         3    ;  uncertainty k = 0.018851
         9         8        21        23     9      180.000000       -0.164333         4    ;  uncertainty k = 0.029216
         9         8        21        24     9        0.000000       -1.791340         1    ;  uncertainty k = 0.296810
         9         8        21        24     9      180.000000       -0.169692         2    ;  uncertainty k = 0.135187
         9         8        21        24     9        0.000000        1.133641         3    ;  uncertainty k = 0.018851
         9         8        21        24     9      180.000000       -0.164333         4    ;  uncertainty k = 0.029216
        10         2         3        11     9        0.000000       -0.041974         1    ;  uncertainty k = 0.117107
        10         2         3        11     9      180.000000        7.607945         2    ;  uncertainty k = 0.243256
        10         2         3        11     9        0.000000       -0.448026         3    ;  uncertainty k = 0.234407
        10         2         3        11     9      180.000000        0.103167         4    ;  uncertainty k = 0.101416
        11         3         4        12     9        0.000000       -0.006373         1    ;  uncertainty k = 0.088779
        11         3         4        12     9      180.000000        7.464233         2    ;  uncertainty k = 0.352345
        11         3         4        12     9        0.000000       -0.416733         3    ;  uncertainty k = 0.274619
        11         3         4        12     9      180.000000        0.051450         4    ;  uncertainty k = 0.138379
        12         4         5        13     9        0.000000       -0.006373         1    ;  uncertainty k = 0.088779
        12         4         5        13     9      180.000000        7.464233         2    ;  uncertainty k = 0.352345
        12         4         5        13     9        0.000000       -0.416733         3    ;  uncertainty k = 0.274619
        12         4         5        13     9      180.000000        0.051450         4    ;  uncertainty k = 0.138379
        13         5         6        14     9        0.000000       -0.041974         1    ;  uncertainty k = 0.117107
        13         5         6        14     9      180.000000        7.607945         2    ;  uncertainty k = 0.243256
        13         5         6        14     9        0.000000       -0.448026         3    ;  uncertainty k = 0.234407
        13         5         6        14     9      180.000000        0.103167         4    ;  uncertainty k = 0.101416
        15         7         8        17     9        0.000000        1.430057         1    ;  uncertainty k = 0.299052
        15         7         8        17     9      180.000000       -0.980866         2    ;  uncertainty k = 0.142529
        15         7         8        17     9        0.000000       -0.192080         3    ;  uncertainty k = 0.069019
        15         7         8        17     9      180.000000       -0.118041         4    ;  uncertainty k = 0.052147
        15         7         8        21     9        0.000000       -1.691295         1    ;  uncertainty k = 0.301581
        15         7         8        21     9      180.000000       -0.003019         2    ;  uncertainty k = 0.146222
        15         7         8        21     9        0.000000        0.756770         3    ;  uncertainty k = 0.057614
        15         7         8        21     9      180.000000       -0.206765         4    ;  uncertainty k = 0.037013
        16         7         8        17     9        0.000000        1.430057         1    ;  uncertainty k = 0.299052
        16         7         8        17     9      180.000000       -0.980866         2    ;  uncertainty k = 0.142529
        16         7         8        17     9        0.000000       -0.192080         3    ;  uncertainty k = 0.069019
        16         7         8        17     9      180.000000       -0.118041         4    ;  uncertainty k = 0.052147
        16         7         8        21     9        0.000000       -1.691295         1    ;  uncertainty k = 0.301581
        16         7         8        21     9      180.000000       -0.003019         2    ;  uncertainty k = 0.146222
        16         7         8        21     9        0.000000        0.756770         3    ;  uncertainty k = 0.057614
        16         7         8        21     9      180.000000       -0.206765         4    ;  uncertainty k = 0.037013
        17         8         9        18     9        0.000000        1.502183         1    ;  uncertainty k = 0.316239
        17         8         9        18     9      180.000000       -1.212606         2    ;  uncertainty k = 0.164662
        17         8         9        18     9        0.000000        0.275705         3    ;  uncertainty k = 0.026487
        17         8         9        18     9      180.000000       -0.023229         4    ;  uncertainty k = 0.046758
        17         8         9        19     9        0.000000        1.502183         1    ;  uncertainty k = 0.316239
        17         8         9        19     9      180.000000       -1.212606         2    ;  uncertainty k = 0.164662
        17         8         9        19     9        0.000000        0.275705         3    ;  uncertainty k = 0.026487
        17         8         9        19     9      180.000000       -0.023229         4    ;  uncertainty k = 0.046758
        17         8         9        20     9        0.000000        1.502183         1    ;  uncertainty k = 0.316239
        17         8         9        20     9      180.000000       -1.212606         2    ;  uncertainty k = 0.164662
        17         8         9        20     9        0.000000        0.275705         3    ;  uncertainty k = 0.026487
        17         8         9        20     9      180.000000       -0.023229         4    ;  uncertainty k = 0.046758
        17         8        21        22     9        0.000000        1.502183         1    ;  uncertainty k = 0.316239
        17         8        21        22     9      180.000000       -1.212606         2    ;  uncertainty k = 0.164662
        17         8        21        22     9        0.000000        0.275705         3    ;  uncertainty k = 0.026487
        17         8        21        22     9      180.000000       -0.023229         4    ;  uncertainty k = 0.046758
        17         8        21        23     9        0.000000        1.502183         1    ;  uncertainty k = 0.316239
        17         8        21        23     9      180.000000       -1.212606         2    ;  uncertainty k = 0.164662
        17         8        21        23     9        0.000000        0.275705         3    ;  uncertainty k = 0.026487
        17         8        21        23     9      180.000000       -0.023229         4    ;  uncertainty k = 0.046758
        17         8        21        24     9        0.000000        1.502183         1    ;  uncertainty k = 0.316239
        17         8        21        24     9      180.000000       -1.212606         2    ;  uncertainty k = 0.164662
        17         8        21        24     9        0.000000        0.275705         3    ;  uncertainty k = 0.026487
        17         8        21        24     9      180.000000       -0.023229         4    ;  uncertainty k = 0.046758
        18         9         8        21     9        0.000000       -1.791340         1    ;  uncertainty k = 0.296810
        18         9         8        21     9      180.000000       -0.169692         2    ;  uncertainty k = 0.135187
        18         9         8        21     9        0.000000        1.133641         3    ;  uncertainty k = 0.018851
        18         9         8        21     9      180.000000       -0.164333         4    ;  uncertainty k = 0.029216
        19         9         8        21     9        0.000000       -1.791340         1    ;  uncertainty k = 0.296810
        19         9         8        21     9      180.000000       -0.169692         2    ;  uncertainty k = 0.135187
        19         9         8        21     9        0.000000        1.133641         3    ;  uncertainty k = 0.018851
        19         9         8        21     9      180.000000       -0.164333         4    ;  uncertainty k = 0.029216
        20         9         8        21     9        0.000000       -1.791340         1    ;  uncertainty k = 0.296810
        20         9         8        21     9      180.000000       -0.169692         2    ;  uncertainty k = 0.135187
        20         9         8        21     9        0.000000        1.133640         3    ;  uncertainty k = 0.018851
        20         9         8        21     9      180.000000       -0.164333         4    ;  uncertainty k = 0.029216

[ dihedrals ] ; impropers
;       ai        aj        ak        al funct           phase               k        pn
         1         2         6         7     4      180.000000       14.493875         2    ;  uncertainty k = 0.063454
         1         6         7         2     4      180.000000       14.493875         2    ;  uncertainty k = 0.063454
         1         7         2         6     4      180.000000       14.493875         2    ;  uncertainty k = 0.063454
         2         1         3        10     4      180.000000        4.052571         2    ;  uncertainty k = 0.085971
         2         3        10         1     4      180.000000        4.052571         2    ;  uncertainty k = 0.085971
         2        10         1         3     4      180.000000        4.052571         2    ;  uncertainty k = 0.085971
         3         2         4        11     4      180.000000        4.362059         2    ;  uncertainty k = 0.070472
         3         4        11         2     4      180.000000        4.362059         2    ;  uncertainty k = 0.070472
         3        11         2         4     4      180.000000        4.362059         2    ;  uncertainty k = 0.070472
         4         3         5        12     4      180.000000        4.333638         2    ;  uncertainty k = 0.163023
         4         5        12         3     4      180.000000        4.333638         2    ;  uncertainty k = 0.163023
         4        12         3         5     4      180.000000        4.333638         2    ;  uncertainty k = 0.163023
         5         4         6        13     4      180.000000        4.362061         2    ;  uncertainty k = 0.070472
         5         6        13         4     4      180.000000        4.362061         2    ;  uncertainty k = 0.070472
         5        13         4         6     4      180.000000        4.362061         2    ;  uncertainty k = 0.070472
         6         1         5        14     4      180.000000        4.052568         2    ;  uncertainty k = 0.085970
         6         5        14         1     4      180.000000        4.052568         2    ;  uncertainty k = 0.085970
         6        14         1         5     4      180.000000        4.052568         2    ;  uncertainty k = 0.085970

[ pairs ]
;       ai        aj funct
         1         4     1
         1         9     1
         1        11     1
         1        13     1
         1        17     1
         1        21     1
         2         5     1
         2         8     1
         2        12     1
         2        14     1
         2        15     1
         2        16     1
         3         6     1
         3         7     1
         3        13     1
         4        10     1
         4        14     1
         5         7     1
         5        11     1
         6         8     1
         6        10     1
         6        12     1
         6        15     1
         6        16     1
         7        10     1
         7        14     1
         7        18     1
         7        19     1
         7        20     1
         7        22     1
         7        23     1
         7        24     1
         9        15     1
         9        16     1
         9        22     1
         9        23     1
         9        24     1
        10        11     1
        11        12     1
        12        13     1
        13        14     1
        15        17     1
        15        21     1
        16        17     1
        16        21     1
        17        18     1
        17        19     1
        17        20     1
        17        22     1
        17        23     1
        17        24     1
        18        21     1
        19        21     1
        20        21     1
