; ITP file created by ByteFF-joint-25, 2025-07-14 11:28:01.820540

[ atomtypes ]
;name           bonded.type        at.num        mass        charge   ptype           sigma         epsilon
 c0bf                                   6      0.0000       0.00000       A     3.31513e-01     4.13124e-01    ;  uncertainty sigma = 0.000005, epsilon = 0.000723
 c1bf                                   6      0.0000       0.00000       A     3.31525e-01     4.13335e-01    ;  uncertainty sigma = 0.000005, epsilon = 0.000581
 c2bf                                   6      0.0000       0.00000       A     3.31513e-01     4.13124e-01    ;  uncertainty sigma = 0.000005, epsilon = 0.000723
 c3bf                                   6      0.0000       0.00000       A     3.31523e-01     4.13289e-01    ;  uncertainty sigma = 0.000004, epsilon = 0.000540
 c4bf                                   6      0.0000       0.00000       A     3.31522e-01     4.13391e-01    ;  uncertainty sigma = 0.000004, epsilon = 0.000599
 c5bf                                   6      0.0000       0.00000       A     3.31523e-01     4.13289e-01    ;  uncertainty sigma = 0.000004, epsilon = 0.000540
 c6bf                                   6      0.0000       0.00000       A     3.39774e-01     4.50863e-01    ;  uncertainty sigma = 0.000004, epsilon = 0.000451
 h7bf                                   1      0.0000       0.00000       A     2.62569e-01     6.72589e-02    ;  uncertainty sigma = 0.000004, epsilon = 0.000600
 h8bf                                   1      0.0000       0.00000       A     2.62563e-01     6.71297e-02    ;  uncertainty sigma = 0.000007, epsilon = 0.000527
 h9bf                                   1      0.0000       0.00000       A     2.62562e-01     6.70209e-02    ;  uncertainty sigma = 0.000009, epsilon = 0.000413
 h10bf                                  1      0.0000       0.00000       A     2.62563e-01     6.71297e-02    ;  uncertainty sigma = 0.000007, epsilon = 0.000527
 h11bf                                  1      0.0000       0.00000       A     2.60034e-01     8.66894e-02    ;  uncertainty sigma = 0.000006, epsilon = 0.000488
 h12bf                                  1      0.0000       0.00000       A     2.60034e-01     8.66894e-02    ;  uncertainty sigma = 0.000006, epsilon = 0.000488
 h13bf                                  1      0.0000       0.00000       A     2.60034e-01     8.66894e-02    ;  uncertainty sigma = 0.000006, epsilon = 0.000488
 c14bf                                  6      0.0000       0.00000       A     3.39774e-01     4.50863e-01    ;  uncertainty sigma = 0.000004, epsilon = 0.000451
 h15bf                                  1      0.0000       0.00000       A     2.60034e-01     8.66894e-02    ;  uncertainty sigma = 0.000006, epsilon = 0.000488
 h16bf                                  1      0.0000       0.00000       A     2.60034e-01     8.66894e-02    ;  uncertainty sigma = 0.000006, epsilon = 0.000488
 h17bf                                  1      0.0000       0.00000       A     2.60034e-01     8.66893e-02    ;  uncertainty sigma = 0.000006, epsilon = 0.000488

[ moleculetype ]
;name             nrexcl
 MOL                   3

[ atoms ]
;       nr            type      resi   res      atom      cgnr      charge          mass ; qtot
         1            c0bf         1   UNL        c0         1    -0.07492       12.0110 ; qtot   -0.075
         2            c1bf         1   UNL        c1         2    -0.13181       12.0110 ; qtot   -0.207
         3            c2bf         1   UNL        c2         3    -0.07492       12.0110 ; qtot   -0.282
         4            c3bf         1   UNL        c3         4    -0.13468       12.0110 ; qtot   -0.416
         5            c4bf         1   UNL        c4         5    -0.12701       12.0110 ; qtot   -0.543
         6            c5bf         1   UNL        c5         6    -0.13468       12.0110 ; qtot   -0.678
         7            c6bf         1   UNL        c6         7    -0.04831       12.0110 ; qtot   -0.726
         8            h7bf         1   UNL        h7         8     0.12651        1.0080 ; qtot   -0.600
         9            h8bf         1   UNL        h8         9     0.13019        1.0080 ; qtot   -0.470
        10            h9bf         1   UNL        h9        10     0.12856        1.0080 ; qtot   -0.341
        11           h10bf         1   UNL       h10        11     0.13019        1.0080 ; qtot   -0.211
        12           h11bf         1   UNL       h11        12     0.04320        1.0080 ; qtot   -0.168
        13           h12bf         1   UNL       h12        13     0.04320        1.0080 ; qtot   -0.124
        14           h13bf         1   UNL       h13        14     0.04320        1.0080 ; qtot   -0.081
        15           c14bf         1   UNL       c14        15    -0.04831       12.0110 ; qtot   -0.130
        16           h15bf         1   UNL       h15        16     0.04320        1.0080 ; qtot   -0.086
        17           h16bf         1   UNL       h16        17     0.04320        1.0080 ; qtot   -0.043
        18           h17bf         1   UNL       h17        18     0.04319        1.0080 ; qtot    0.000

[ bonds ]
;       ai        aj funct               r               k
         1         2     1        0.140229   347806.364014    ;  uncertainty r = 0.000016, k = 6.129087
         1         6     1        0.140199   350771.656543    ;  uncertainty r = 0.000013, k = 2.970574
         1         7     1        0.151181   252291.854639    ;  uncertainty r = 0.000010, k = 5.235238
         2         3     1        0.140229   347806.364014    ;  uncertainty r = 0.000016, k = 6.129087
         2         8     1        0.108949   334687.286963    ;  uncertainty r = 0.000019, k = 0.737084
         3         4     1        0.140199   350771.656543    ;  uncertainty r = 0.000013, k = 2.970574
         3        15     1        0.151181   252291.854639    ;  uncertainty r = 0.000010, k = 5.235238
         4         5     1        0.139708   368305.921045    ;  uncertainty r = 0.000023, k = 3.823712
         4         9     1        0.108886   334899.500342    ;  uncertainty r = 0.000010, k = 0.557306
         5         6     1        0.139708   368305.921045    ;  uncertainty r = 0.000023, k = 3.823712
         5        10     1        0.108819   334417.768311    ;  uncertainty r = 0.000012, k = 0.929105
         6        11     1        0.108886   334899.500342    ;  uncertainty r = 0.000010, k = 0.557306
         7        12     1        0.109533   307752.863574    ;  uncertainty r = 0.000008, k = 1.157854
         7        13     1        0.109533   307752.863574    ;  uncertainty r = 0.000008, k = 1.157854
         7        14     1        0.109533   307752.863574    ;  uncertainty r = 0.000008, k = 1.157854
        15        16     1        0.109533   307752.863574    ;  uncertainty r = 0.000008, k = 1.157854
        15        17     1        0.109533   307752.863574    ;  uncertainty r = 0.000008, k = 1.157854
        15        18     1        0.109533   307752.863574    ;  uncertainty r = 0.000008, k = 1.157854

[ angles ]
;       ai        aj        ak funct           theta             cth
         1         2         3     1      122.573196      539.148327    ;  uncertainty theta = 0.002277, k = 0.156670
         1         2         8     1      118.839111      282.197763    ;  uncertainty theta = 0.001347, k = 0.062145
         1         6         5     1      120.157181      531.344091    ;  uncertainty theta = 0.001256, k = 0.080580
         1         6        11     1      119.525085      281.414859    ;  uncertainty theta = 0.001279, k = 0.065536
         1         7        12     1      110.028419      397.469051    ;  uncertainty theta = 0.001115, k = 0.035203
         1         7        13     1      110.028419      397.469051    ;  uncertainty theta = 0.001115, k = 0.035203
         1         7        14     1      110.028419      397.469051    ;  uncertainty theta = 0.001115, k = 0.035203
         2         1         6     1      119.058670      467.054897    ;  uncertainty theta = 0.002114, k = 0.102263
         2         1         7     1      120.494568      431.283982    ;  uncertainty theta = 0.001494, k = 0.067899
         2         3         4     1      119.058670      467.054897    ;  uncertainty theta = 0.002114, k = 0.102263
         2         3        15     1      120.494568      431.283982    ;  uncertainty theta = 0.001494, k = 0.067899
         3         2         8     1      118.839111      282.197763    ;  uncertainty theta = 0.001347, k = 0.062145
         3         4         5     1      120.157181      531.344091    ;  uncertainty theta = 0.001256, k = 0.080580
         3         4         9     1      119.525085      281.414859    ;  uncertainty theta = 0.001279, k = 0.065536
         3        15        16     1      110.028419      397.469051    ;  uncertainty theta = 0.001115, k = 0.035203
         3        15        17     1      110.028419      397.469051    ;  uncertainty theta = 0.001115, k = 0.035203
         3        15        18     1      110.028419      397.469051    ;  uncertainty theta = 0.001115, k = 0.035203
         4         3        15     1      120.767578      433.142765    ;  uncertainty theta = 0.000688, k = 0.054515
         4         5         6     1      119.774536      517.361406    ;  uncertainty theta = 0.000922, k = 0.070443
         4         5        10     1      120.274765      288.186982    ;  uncertainty theta = 0.001469, k = 0.062510
         5         4         9     1      120.454247      291.585460    ;  uncertainty theta = 0.001267, k = 0.020464
         5         6        11     1      120.454247      291.585460    ;  uncertainty theta = 0.001267, k = 0.020464
         6         1         7     1      120.767578      433.142765    ;  uncertainty theta = 0.000688, k = 0.054515
         6         5        10     1      120.274765      288.186982    ;  uncertainty theta = 0.001469, k = 0.062510
        12         7        13     1      106.745865      317.409096    ;  uncertainty theta = 0.001083, k = 0.005022
        12         7        14     1      106.745865      317.409096    ;  uncertainty theta = 0.001083, k = 0.005022
        13         7        14     1      106.745865      317.409096    ;  uncertainty theta = 0.001083, k = 0.005022
        16        15        17     1      106.745865      317.409096    ;  uncertainty theta = 0.001083, k = 0.005022
        16        15        18     1      106.745865      317.409096    ;  uncertainty theta = 0.001083, k = 0.005022
        17        15        18     1      106.745865      317.409096    ;  uncertainty theta = 0.001083, k = 0.005022

[ dihedrals ] ; propers for gromacs 4.5 or higher, use funct 9
;       ai        aj        ak        al funct           phase               k        pn
         1         2         3         4     9        0.000000       -0.201982         1    ;  uncertainty k = 0.150324
         1         2         3         4     9      180.000000       11.508886         2    ;  uncertainty k = 0.229943
         1         2         3         4     9        0.000000       -0.233297         3    ;  uncertainty k = 0.403825
         1         2         3         4     9      180.000000        0.964147         4    ;  uncertainty k = 0.321658
         1         2         3        15     9        0.000000        0.157680         1    ;  uncertainty k = 0.087827
         1         2         3        15     9      180.000000        9.825638         2    ;  uncertainty k = 0.426025
         1         2         3        15     9        0.000000        1.434032         3    ;  uncertainty k = 0.264801
         1         2         3        15     9      180.000000        1.818919         4    ;  uncertainty k = 0.185846
         1         6         5         4     9        0.000000       -0.074685         1    ;  uncertainty k = 0.168957
         1         6         5         4     9      180.000000       14.296969         2    ;  uncertainty k = 0.260419
         1         6         5         4     9        0.000000       -1.064037         3    ;  uncertainty k = 0.518016
         1         6         5         4     9      180.000000        0.662290         4    ;  uncertainty k = 0.272541
         1         6         5        10     9        0.000000        0.112109         1    ;  uncertainty k = 0.182523
         1         6         5        10     9      180.000000        7.282082         2    ;  uncertainty k = 0.335473
         1         6         5        10     9        0.000000        1.499175         3    ;  uncertainty k = 0.261279
         1         6         5        10     9      180.000000        1.821785         4    ;  uncertainty k = 0.188496
         2         1         6         5     9        0.000000       -0.176915         1    ;  uncertainty k = 0.081504
         2         1         6         5     9      180.000000       12.275954         2    ;  uncertainty k = 0.329637
         2         1         6         5     9        0.000000       -0.555556         3    ;  uncertainty k = 0.431759
         2         1         6         5     9      180.000000        0.772050         4    ;  uncertainty k = 0.383905
         2         1         6        11     9        0.000000        0.040530         1    ;  uncertainty k = 0.146312
         2         1         6        11     9      180.000000        7.228213         2    ;  uncertainty k = 0.438850
         2         1         6        11     9        0.000000        1.515268         3    ;  uncertainty k = 0.370435
         2         1         6        11     9      180.000000        1.639698         4    ;  uncertainty k = 0.145148
         2         1         7        12     9        0.000000        0.050402         1    ;  uncertainty k = 0.051695
         2         1         7        12     9      180.000000        1.146818         2    ;  uncertainty k = 0.049977
         2         1         7        12     9        0.000000        0.326366         3    ;  uncertainty k = 0.044525
         2         1         7        12     9      180.000000        0.178101         4    ;  uncertainty k = 0.021929
         2         1         7        13     9        0.000000        0.050402         1    ;  uncertainty k = 0.051695
         2         1         7        13     9      180.000000        1.146818         2    ;  uncertainty k = 0.049977
         2         1         7        13     9        0.000000        0.326366         3    ;  uncertainty k = 0.044525
         2         1         7        13     9      180.000000        0.178101         4    ;  uncertainty k = 0.021929
         2         1         7        14     9        0.000000        0.050402         1    ;  uncertainty k = 0.051695
         2         1         7        14     9      180.000000        1.146818         2    ;  uncertainty k = 0.049977
         2         1         7        14     9        0.000000        0.326366         3    ;  uncertainty k = 0.044525
         2         1         7        14     9      180.000000        0.178101         4    ;  uncertainty k = 0.021929
         2         3         4         5     9        0.000000       -0.176915         1    ;  uncertainty k = 0.081504
         2         3         4         5     9      180.000000       12.275954         2    ;  uncertainty k = 0.329637
         2         3         4         5     9        0.000000       -0.555556         3    ;  uncertainty k = 0.431759
         2         3         4         5     9      180.000000        0.772050         4    ;  uncertainty k = 0.383905
         2         3         4         9     9        0.000000        0.040530         1    ;  uncertainty k = 0.146312
         2         3         4         9     9      180.000000        7.228213         2    ;  uncertainty k = 0.438850
         2         3         4         9     9        0.000000        1.515268         3    ;  uncertainty k = 0.370435
         2         3         4         9     9      180.000000        1.639698         4    ;  uncertainty k = 0.145148
         2         3        15        16     9        0.000000        0.050402         1    ;  uncertainty k = 0.051695
         2         3        15        16     9      180.000000        1.146818         2    ;  uncertainty k = 0.049977
         2         3        15        16     9        0.000000        0.326366         3    ;  uncertainty k = 0.044525
         2         3        15        16     9      180.000000        0.178101         4    ;  uncertainty k = 0.021929
         2         3        15        17     9        0.000000        0.050402         1    ;  uncertainty k = 0.051695
         2         3        15        17     9      180.000000        1.146818         2    ;  uncertainty k = 0.049977
         2         3        15        17     9        0.000000        0.326366         3    ;  uncertainty k = 0.044525
         2         3        15        17     9      180.000000        0.178101         4    ;  uncertainty k = 0.021929
         2         3        15        18     9        0.000000        0.050402         1    ;  uncertainty k = 0.051695
         2         3        15        18     9      180.000000        1.146818         2    ;  uncertainty k = 0.049977
         2         3        15        18     9        0.000000        0.326366         3    ;  uncertainty k = 0.044525
         2         3        15        18     9      180.000000        0.178101         4    ;  uncertainty k = 0.021929
         3         2         1         6     9        0.000000       -0.201982         1    ;  uncertainty k = 0.150324
         3         2         1         6     9      180.000000       11.508886         2    ;  uncertainty k = 0.229943
         3         2         1         6     9        0.000000       -0.233297         3    ;  uncertainty k = 0.403825
         3         2         1         6     9      180.000000        0.964147         4    ;  uncertainty k = 0.321658
         3         2         1         7     9        0.000000        0.157680         1    ;  uncertainty k = 0.087827
         3         2         1         7     9      180.000000        9.825638         2    ;  uncertainty k = 0.426025
         3         2         1         7     9        0.000000        1.434032         3    ;  uncertainty k = 0.264801
         3         2         1         7     9      180.000000        1.818919         4    ;  uncertainty k = 0.185846
         3         4         5         6     9        0.000000       -0.074685         1    ;  uncertainty k = 0.168957
         3         4         5         6     9      180.000000       14.296969         2    ;  uncertainty k = 0.260419
         3         4         5         6     9        0.000000       -1.064037         3    ;  uncertainty k = 0.518016
         3         4         5         6     9      180.000000        0.662290         4    ;  uncertainty k = 0.272541
         3         4         5        10     9        0.000000        0.112109         1    ;  uncertainty k = 0.182523
         3         4         5        10     9      180.000000        7.282082         2    ;  uncertainty k = 0.335473
         3         4         5        10     9        0.000000        1.499175         3    ;  uncertainty k = 0.261279
         3         4         5        10     9      180.000000        1.821785         4    ;  uncertainty k = 0.188496
         4         3         2         8     9        0.000000        0.099099         1    ;  uncertainty k = 0.098943
         4         3         2         8     9      180.000000        7.502400         2    ;  uncertainty k = 0.323382
         4         3         2         8     9        0.000000        1.544909         3    ;  uncertainty k = 0.376426
         4         3         2         8     9      180.000000        1.652913         4    ;  uncertainty k = 0.150135
         4         3        15        16     9        0.000000        0.038148         1    ;  uncertainty k = 0.017941
         4         3        15        16     9      180.000000        1.121438         2    ;  uncertainty k = 0.055629
         4         3        15        16     9        0.000000        0.300688         3    ;  uncertainty k = 0.032361
         4         3        15        16     9      180.000000        0.175343         4    ;  uncertainty k = 0.033318
         4         3        15        17     9        0.000000        0.038148         1    ;  uncertainty k = 0.017941
         4         3        15        17     9      180.000000        1.121438         2    ;  uncertainty k = 0.055629
         4         3        15        17     9        0.000000        0.300688         3    ;  uncertainty k = 0.032361
         4         3        15        17     9      180.000000        0.175343         4    ;  uncertainty k = 0.033318
         4         3        15        18     9        0.000000        0.038148         1    ;  uncertainty k = 0.017941
         4         3        15        18     9      180.000000        1.121438         2    ;  uncertainty k = 0.055629
         4         3        15        18     9        0.000000        0.300688         3    ;  uncertainty k = 0.032361
         4         3        15        18     9      180.000000        0.175343         4    ;  uncertainty k = 0.033318
         4         5         6        11     9        0.000000        0.118864         1    ;  uncertainty k = 0.107110
         4         5         6        11     9      180.000000        7.948597         2    ;  uncertainty k = 0.372024
         4         5         6        11     9        0.000000        1.473874         3    ;  uncertainty k = 0.299788
         4         5         6        11     9      180.000000        1.822993         4    ;  uncertainty k = 0.202506
         5         4         3        15     9        0.000000        0.245018         1    ;  uncertainty k = 0.223307
         5         4         3        15     9      180.000000        9.792189         2    ;  uncertainty k = 0.340877
         5         4         3        15     9        0.000000        1.393543         3    ;  uncertainty k = 0.245650
         5         4         3        15     9      180.000000        1.812239         4    ;  uncertainty k = 0.158222
         5         6         1         7     9        0.000000        0.245018         1    ;  uncertainty k = 0.223307
         5         6         1         7     9      180.000000        9.792189         2    ;  uncertainty k = 0.340877
         5         6         1         7     9        0.000000        1.393543         3    ;  uncertainty k = 0.245650
         5         6         1         7     9      180.000000        1.812239         4    ;  uncertainty k = 0.158222
         6         1         2         8     9        0.000000        0.099099         1    ;  uncertainty k = 0.098943
         6         1         2         8     9      180.000000        7.502400         2    ;  uncertainty k = 0.323382
         6         1         2         8     9        0.000000        1.544909         3    ;  uncertainty k = 0.376426
         6         1         2         8     9      180.000000        1.652913         4    ;  uncertainty k = 0.150135
         6         1         7        12     9        0.000000        0.038148         1    ;  uncertainty k = 0.017941
         6         1         7        12     9      180.000000        1.121438         2    ;  uncertainty k = 0.055629
         6         1         7        12     9        0.000000        0.300688         3    ;  uncertainty k = 0.032361
         6         1         7        12     9      180.000000        0.175343         4    ;  uncertainty k = 0.033318
         6         1         7        13     9        0.000000        0.038148         1    ;  uncertainty k = 0.017941
         6         1         7        13     9      180.000000        1.121438         2    ;  uncertainty k = 0.055629
         6         1         7        13     9        0.000000        0.300688         3    ;  uncertainty k = 0.032361
         6         1         7        13     9      180.000000        0.175343         4    ;  uncertainty k = 0.033318
         6         1         7        14     9        0.000000        0.038148         1    ;  uncertainty k = 0.017941
         6         1         7        14     9      180.000000        1.121438         2    ;  uncertainty k = 0.055629
         6         1         7        14     9        0.000000        0.300688         3    ;  uncertainty k = 0.032361
         6         1         7        14     9      180.000000        0.175343         4    ;  uncertainty k = 0.033318
         6         5         4         9     9        0.000000        0.118864         1    ;  uncertainty k = 0.107110
         6         5         4         9     9      180.000000        7.948597         2    ;  uncertainty k = 0.372024
         6         5         4         9     9        0.000000        1.473874         3    ;  uncertainty k = 0.299788
         6         5         4         9     9      180.000000        1.822993         4    ;  uncertainty k = 0.202506
         7         1         2         8     9        0.000000       -0.361201         1    ;  uncertainty k = 0.388535
         7         1         2         8     9      180.000000        8.536611         2    ;  uncertainty k = 0.256426
         7         1         2         8     9        0.000000        0.508412         3    ;  uncertainty k = 0.243067
         7         1         2         8     9      180.000000        0.912637         4    ;  uncertainty k = 0.204882
         7         1         6        11     9        0.000000       -0.385563         1    ;  uncertainty k = 0.438783
         7         1         6        11     9      180.000000        8.375883         2    ;  uncertainty k = 0.215276
         7         1         6        11     9        0.000000        0.491213         3    ;  uncertainty k = 0.256072
         7         1         6        11     9      180.000000        0.880293         4    ;  uncertainty k = 0.223948
         8         2         3        15     9        0.000000       -0.361201         1    ;  uncertainty k = 0.388535
         8         2         3        15     9      180.000000        8.536611         2    ;  uncertainty k = 0.256426
         8         2         3        15     9        0.000000        0.508412         3    ;  uncertainty k = 0.243067
         8         2         3        15     9      180.000000        0.912637         4    ;  uncertainty k = 0.204882
         9         4         3        15     9        0.000000       -0.385563         1    ;  uncertainty k = 0.438783
         9         4         3        15     9      180.000000        8.375883         2    ;  uncertainty k = 0.215276
         9         4         3        15     9        0.000000        0.491213         3    ;  uncertainty k = 0.256072
         9         4         3        15     9      180.000000        0.880293         4    ;  uncertainty k = 0.223948
         9         4         5        10     9        0.000000        0.029139         1    ;  uncertainty k = 0.099107
         9         4         5        10     9      180.000000        7.573454         2    ;  uncertainty k = 0.299212
         9         4         5        10     9        0.000000       -0.429448         3    ;  uncertainty k = 0.254763
         9         4         5        10     9      180.000000        0.085791         4    ;  uncertainty k = 0.095490
        10         5         6        11     9        0.000000        0.029139         1    ;  uncertainty k = 0.099107
        10         5         6        11     9      180.000000        7.573454         2    ;  uncertainty k = 0.299212
        10         5         6        11     9        0.000000       -0.429448         3    ;  uncertainty k = 0.254763
        10         5         6        11     9      180.000000        0.085791         4    ;  uncertainty k = 0.095490

[ dihedrals ] ; impropers
;       ai        aj        ak        al funct           phase               k        pn
         1         2         6         7     4      180.000000       16.145899         2    ;  uncertainty k = 0.061515
         1         6         7         2     4      180.000000       16.145899         2    ;  uncertainty k = 0.061515
         1         7         2         6     4      180.000000       16.145899         2    ;  uncertainty k = 0.061515
         2         1         3         8     4      180.000000        4.102484         2    ;  uncertainty k = 0.236250
         2         3         8         1     4      180.000000        4.102484         2    ;  uncertainty k = 0.236250
         2         8         1         3     4      180.000000        4.102484         2    ;  uncertainty k = 0.236250
         3         2         4        15     4      180.000000       16.145900         2    ;  uncertainty k = 0.061515
         3         4        15         2     4      180.000000       16.145900         2    ;  uncertainty k = 0.061515
         3        15         2         4     4      180.000000       16.145900         2    ;  uncertainty k = 0.061515
         4         3         5         9     4      180.000000        3.651813         2    ;  uncertainty k = 0.085083
         4         5         9         3     4      180.000000        3.651813         2    ;  uncertainty k = 0.085083
         4         9         3         5     4      180.000000        3.651813         2    ;  uncertainty k = 0.085083
         5         4         6        10     4      180.000000        4.437851         2    ;  uncertainty k = 0.021020
         5         6        10         4     4      180.000000        4.437851         2    ;  uncertainty k = 0.021020
         5        10         4         6     4      180.000000        4.437851         2    ;  uncertainty k = 0.021020
         6         1         5        11     4      180.000000        3.651811         2    ;  uncertainty k = 0.085082
         6         5        11         1     4      180.000000        3.651811         2    ;  uncertainty k = 0.085082
         6        11         1         5     4      180.000000        3.651811         2    ;  uncertainty k = 0.085082

[ pairs ]
;       ai        aj funct
         1         4     1
         1        10     1
         1        15     1
         2         5     1
         2         9     1
         2        11     1
         2        12     1
         2        13     1
         2        14     1
         2        16     1
         2        17     1
         2        18     1
         3         6     1
         3         7     1
         3        10     1
         4         8     1
         4        11     1
         4        16     1
         4        17     1
         4        18     1
         5         7     1
         5        15     1
         6         8     1
         6         9     1
         6        12     1
         6        13     1
         6        14     1
         7         8     1
         7        11     1
         8        15     1
         9        10     1
         9        15     1
        10        11     1
