; ITP file created by ByteFF-joint-25, 2025-07-14 11:28:00.829554

[ atomtypes ]
;name           bonded.type        at.num        mass        charge   ptype           sigma         epsilon
 c0bf                                   6      0.0000       0.00000       A     3.31532e-01     4.13152e-01    ;  uncertainty sigma = 0.000003, epsilon = 0.000846
 c1bf                                   6      0.0000       0.00000       A     3.31525e-01     4.13318e-01    ;  uncertainty sigma = 0.000005, epsilon = 0.000604
 c2bf                                   6      0.0000       0.00000       A     3.31514e-01     4.13218e-01    ;  uncertainty sigma = 0.000004, epsilon = 0.000680
 c3bf                                   6      0.0000       0.00000       A     3.31523e-01     4.13289e-01    ;  uncertainty sigma = 0.000004, epsilon = 0.000540
 c4bf                                   6      0.0000       0.00000       A     3.31520e-01     4.13361e-01    ;  uncertainty sigma = 0.000004, epsilon = 0.000533
 c5bf                                   6      0.0000       0.00000       A     3.31520e-01     4.13318e-01    ;  uncertainty sigma = 0.000004, epsilon = 0.000529
 c6bf                                   6      0.0000       0.00000       A     3.39752e-01     4.50338e-01    ;  uncertainty sigma = 0.000012, epsilon = 0.000889
 c7bf                                   6      0.0000       0.00000       A     3.39786e-01     4.50780e-01    ;  uncertainty sigma = 0.000004, epsilon = 0.000302
 h8bf                                   1      0.0000       0.00000       A     2.62562e-01     6.72221e-02    ;  uncertainty sigma = 0.000007, epsilon = 0.000620
 h9bf                                   1      0.0000       0.00000       A     2.62563e-01     6.71298e-02    ;  uncertainty sigma = 0.000007, epsilon = 0.000527
 h10bf                                  1      0.0000       0.00000       A     2.62562e-01     6.70209e-02    ;  uncertainty sigma = 0.000009, epsilon = 0.000413
 h11bf                                  1      0.0000       0.00000       A     2.62565e-01     6.71217e-02    ;  uncertainty sigma = 0.000005, epsilon = 0.000518
 h12bf                                  1      0.0000       0.00000       A     2.60022e-01     8.67252e-02    ;  uncertainty sigma = 0.000019, epsilon = 0.000696
 h13bf                                  1      0.0000       0.00000       A     2.60022e-01     8.67252e-02    ;  uncertainty sigma = 0.000019, epsilon = 0.000696
 h14bf                                  1      0.0000       0.00000       A     2.60024e-01     8.66316e-02    ;  uncertainty sigma = 0.000009, epsilon = 0.000658
 h15bf                                  1      0.0000       0.00000       A     2.60024e-01     8.66316e-02    ;  uncertainty sigma = 0.000009, epsilon = 0.000658
 h16bf                                  1      0.0000       0.00000       A     2.60024e-01     8.66316e-02    ;  uncertainty sigma = 0.000009, epsilon = 0.000658
 c17bf                                  6      0.0000       0.00000       A     3.39774e-01     4.50863e-01    ;  uncertainty sigma = 0.000004, epsilon = 0.000451
 h18bf                                  1      0.0000       0.00000       A     2.60034e-01     8.66894e-02    ;  uncertainty sigma = 0.000006, epsilon = 0.000488
 h19bf                                  1      0.0000       0.00000       A     2.60034e-01     8.66894e-02    ;  uncertainty sigma = 0.000006, epsilon = 0.000488
 h20bf                                  1      0.0000       0.00000       A     2.60034e-01     8.66893e-02    ;  uncertainty sigma = 0.000006, epsilon = 0.000488

[ moleculetype ]
;name             nrexcl
 MOL                   3

[ atoms ]
;       nr            type      resi   res      atom      cgnr      charge          mass ; qtot
         1            c0bf         1   UNL        c0         1    -0.07888       12.0110 ; qtot   -0.079
         2            c1bf         1   UNL        c1         2    -0.12774       12.0110 ; qtot   -0.207
         3            c2bf         1   UNL        c2         3    -0.07705       12.0110 ; qtot   -0.284
         4            c3bf         1   UNL        c3         4    -0.12889       12.0110 ; qtot   -0.413
         5            c4bf         1   UNL        c4         5    -0.12799       12.0110 ; qtot   -0.541
         6            c5bf         1   UNL        c5         6    -0.13163       12.0110 ; qtot   -0.672
         7            c6bf         1   UNL        c6         7    -0.03450       12.0110 ; qtot   -0.707
         8            c7bf         1   UNL        c7         8    -0.08928       12.0110 ; qtot   -0.796
         9            h8bf         1   UNL        h8         9     0.12761        1.0080 ; qtot   -0.668
        10            h9bf         1   UNL        h9        10     0.13019        1.0080 ; qtot   -0.538
        11           h10bf         1   UNL       h10        11     0.12977        1.0080 ; qtot   -0.408
        12           h11bf         1   UNL       h11        12     0.13128        1.0080 ; qtot   -0.277
        13           h12bf         1   UNL       h12        13     0.04471        1.0080 ; qtot   -0.232
        14           h13bf         1   UNL       h13        14     0.04471        1.0080 ; qtot   -0.188
        15           h14bf         1   UNL       h14        15     0.03541        1.0080 ; qtot   -0.152
        16           h15bf         1   UNL       h15        16     0.03541        1.0080 ; qtot   -0.117
        17           h16bf         1   UNL       h16        17     0.03541        1.0080 ; qtot   -0.081
        18           c17bf         1   UNL       c17        18    -0.04813       12.0110 ; qtot   -0.130
        19           h18bf         1   UNL       h18        19     0.04320        1.0080 ; qtot   -0.086
        20           h19bf         1   UNL       h19        20     0.04320        1.0080 ; qtot   -0.043
        21           h20bf         1   UNL       h20        21     0.04319        1.0080 ; qtot    0.000

[ bonds ]
;       ai        aj funct               r               k
         1         2     1        0.139964   349773.053418    ;  uncertainty r = 0.000026, k = 4.861056
         1         6     1        0.139916   351282.219971    ;  uncertainty r = 0.000021, k = 3.475540
         1         7     1        0.151322   234039.129102    ;  uncertainty r = 0.000024, k = 2.362905
         2         3     1        0.140158   351089.491406    ;  uncertainty r = 0.000028, k = 3.822272
         2         9     1        0.108971   334065.764795    ;  uncertainty r = 0.000017, k = 0.763583
         3         4     1        0.140159   352154.491016    ;  uncertainty r = 0.000020, k = 2.184824
         3        18     1        0.151197   252923.744873    ;  uncertainty r = 0.000014, k = 5.467444
         4         5     1        0.139674   369552.540576    ;  uncertainty r = 0.000024, k = 3.076006
         4        10     1        0.108886   334899.500342    ;  uncertainty r = 0.000010, k = 0.557311
         5         6     1        0.139662   369816.824121    ;  uncertainty r = 0.000025, k = 1.712642
         5        11     1        0.108830   334100.622949    ;  uncertainty r = 0.000008, k = 0.957915
         6        12     1        0.108912   334449.332178    ;  uncertainty r = 0.000018, k = 0.583478
         7         8     1        0.154175   229422.530469    ;  uncertainty r = 0.000050, k = 5.090741
         7        13     1        0.109673   306874.540234    ;  uncertainty r = 0.000029, k = 2.611126
         7        14     1        0.109673   306874.540234    ;  uncertainty r = 0.000029, k = 2.611126
         8        15     1        0.109610   309233.607324    ;  uncertainty r = 0.000011, k = 0.969538
         8        16     1        0.109610   309233.607324    ;  uncertainty r = 0.000011, k = 0.969538
         8        17     1        0.109610   309233.607324    ;  uncertainty r = 0.000011, k = 0.969538
        18        19     1        0.109533   307752.812500    ;  uncertainty r = 0.000008, k = 1.157812
        18        20     1        0.109533   307752.812500    ;  uncertainty r = 0.000008, k = 1.157812
        18        21     1        0.109533   307752.812500    ;  uncertainty r = 0.000008, k = 1.157820

[ angles ]
;       ai        aj        ak funct           theta             cth
         1         2         3     1      122.704407      529.633360    ;  uncertainty theta = 0.001787, k = 0.100651
         1         2         9     1      118.475220      270.516547    ;  uncertainty theta = 0.001885, k = 0.063058
         1         6         5     1      120.296898      524.431770    ;  uncertainty theta = 0.001134, k = 0.042695
         1         6        12     1      119.141891      271.388607    ;  uncertainty theta = 0.002098, k = 0.056606
         1         7         8     1      111.801613      565.214566    ;  uncertainty theta = 0.002154, k = 0.055633
         1         7        13     1      107.178185      393.568800    ;  uncertainty theta = 0.001814, k = 0.045096
         1         7        14     1      107.178185      393.568800    ;  uncertainty theta = 0.001814, k = 0.045096
         2         1         6     1      119.667137      464.537289    ;  uncertainty theta = 0.001995, k = 0.082529
         2         1         7     1      120.942764      421.707024    ;  uncertainty theta = 0.002887, k = 0.078251
         2         3         4     1      119.123123      462.335128    ;  uncertainty theta = 0.002134, k = 0.092369
         2         3        18     1      120.445877      427.630324    ;  uncertainty theta = 0.000929, k = 0.103227
         3         2         9     1      118.823463      283.673872    ;  uncertainty theta = 0.002130, k = 0.056129
         3         4         5     1      120.088234      527.763118    ;  uncertainty theta = 0.001040, k = 0.065012
         3         4        10     1      119.445984      279.994326    ;  uncertainty theta = 0.001490, k = 0.046210
         3        18        19     1      109.998489      396.621442    ;  uncertainty theta = 0.001205, k = 0.026965
         3        18        20     1      109.998489      396.621442    ;  uncertainty theta = 0.001205, k = 0.026965
         3        18        21     1      109.998489      396.621442    ;  uncertainty theta = 0.001205, k = 0.026965
         4         3        18     1      120.804077      439.432459    ;  uncertainty theta = 0.000511, k = 0.042169
         4         5         6     1      119.922142      512.515995    ;  uncertainty theta = 0.000940, k = 0.069457
         4         5        11     1      120.325302      287.616866    ;  uncertainty theta = 0.001567, k = 0.036109
         5         4        10     1      120.357948      291.045127    ;  uncertainty theta = 0.001579, k = 0.017991
         5         6        12     1      120.433693      293.336220    ;  uncertainty theta = 0.001908, k = 0.037328
         6         1         7     1      121.196800      431.808195    ;  uncertainty theta = 0.002191, k = 0.074997
         6         5        11     1      120.320862      286.536774    ;  uncertainty theta = 0.001536, k = 0.051424
         7         8        15     1      108.485924      413.523849    ;  uncertainty theta = 0.001719, k = 0.033361
         7         8        16     1      108.485924      413.523849    ;  uncertainty theta = 0.001719, k = 0.033361
         7         8        17     1      108.485924      413.523849    ;  uncertainty theta = 0.001719, k = 0.033361
         8         7        13     1      107.858238      407.914974    ;  uncertainty theta = 0.001841, k = 0.042639
         8         7        14     1      107.858238      407.914974    ;  uncertainty theta = 0.001841, k = 0.042639
        13         7        14     1      103.867966      310.341062    ;  uncertainty theta = 0.002775, k = 0.057019
        15         8        16     1      105.139038      315.510156    ;  uncertainty theta = 0.002270, k = 0.015366
        15         8        17     1      105.139038      315.510156    ;  uncertainty theta = 0.002270, k = 0.015366
        16         8        17     1      105.139038      315.510156    ;  uncertainty theta = 0.002270, k = 0.015366
        19        18        20     1      106.745865      317.409064    ;  uncertainty theta = 0.001083, k = 0.005022
        19        18        21     1      106.745865      317.409064    ;  uncertainty theta = 0.001083, k = 0.005022
        20        18        21     1      106.745865      317.409064    ;  uncertainty theta = 0.001083, k = 0.005022

[ dihedrals ] ; propers for gromacs 4.5 or higher, use funct 9
;       ai        aj        ak        al funct           phase               k        pn
         1         2         3         4     9        0.000000       -0.137935         1    ;  uncertainty k = 0.114057
         1         2         3         4     9      180.000000       11.131401         2    ;  uncertainty k = 0.245430
         1         2         3         4     9        0.000000       -0.199419         3    ;  uncertainty k = 0.387057
         1         2         3         4     9      180.000000        1.003605         4    ;  uncertainty k = 0.368117
         1         2         3        18     9        0.000000        0.130421         1    ;  uncertainty k = 0.111999
         1         2         3        18     9      180.000000        9.659319         2    ;  uncertainty k = 0.363638
         1         2         3        18     9        0.000000        1.372342         3    ;  uncertainty k = 0.267319
         1         2         3        18     9      180.000000        1.790546         4    ;  uncertainty k = 0.124644
         1         6         5         4     9        0.000000       -0.047191         1    ;  uncertainty k = 0.151375
         1         6         5         4     9      180.000000       13.934855         2    ;  uncertainty k = 0.240526
         1         6         5         4     9        0.000000       -1.029217         3    ;  uncertainty k = 0.478244
         1         6         5         4     9      180.000000        0.685797         4    ;  uncertainty k = 0.294738
         1         6         5        11     9        0.000000        0.072959         1    ;  uncertainty k = 0.154413
         1         6         5        11     9      180.000000        7.327895         2    ;  uncertainty k = 0.388144
         1         6         5        11     9        0.000000        1.489431         3    ;  uncertainty k = 0.226944
         1         6         5        11     9      180.000000        1.807975         4    ;  uncertainty k = 0.167587
         1         7         8        15     9        0.000000        0.028598         1    ;  uncertainty k = 0.157361
         1         7         8        15     9      180.000000       -0.392422         2    ;  uncertainty k = 0.363523
         1         7         8        15     9        0.000000        1.468923         3    ;  uncertainty k = 0.068362
         1         7         8        15     9      180.000000       -0.049359         4    ;  uncertainty k = 0.046501
         1         7         8        16     9        0.000000        0.028598         1    ;  uncertainty k = 0.157361
         1         7         8        16     9      180.000000       -0.392422         2    ;  uncertainty k = 0.363523
         1         7         8        16     9        0.000000        1.468923         3    ;  uncertainty k = 0.068362
         1         7         8        16     9      180.000000       -0.049359         4    ;  uncertainty k = 0.046501
         1         7         8        17     9        0.000000        0.028598         1    ;  uncertainty k = 0.157361
         1         7         8        17     9      180.000000       -0.392422         2    ;  uncertainty k = 0.363523
         1         7         8        17     9        0.000000        1.468923         3    ;  uncertainty k = 0.068362
         1         7         8        17     9      180.000000       -0.049359         4    ;  uncertainty k = 0.046501
         2         1         6         5     9        0.000000       -0.144992         1    ;  uncertainty k = 0.104805
         2         1         6         5     9      180.000000       11.940558         2    ;  uncertainty k = 0.384547
         2         1         6         5     9        0.000000       -0.491281         3    ;  uncertainty k = 0.383183
         2         1         6         5     9      180.000000        0.745694         4    ;  uncertainty k = 0.408463
         2         1         6        12     9        0.000000        0.089381         1    ;  uncertainty k = 0.228362
         2         1         6        12     9      180.000000        7.122750         2    ;  uncertainty k = 0.528361
         2         1         6        12     9        0.000000        1.459315         3    ;  uncertainty k = 0.353237
         2         1         6        12     9      180.000000        1.640762         4    ;  uncertainty k = 0.119282
         2         1         7         8     9        0.000000       -0.581088         1    ;  uncertainty k = 0.477056
         2         1         7         8     9      180.000000        1.927060         2    ;  uncertainty k = 0.246981
         2         1         7         8     9        0.000000        0.473808         3    ;  uncertainty k = 0.080791
         2         1         7         8     9      180.000000        0.422614         4    ;  uncertainty k = 0.036420
         2         1         7        13     9        0.000000        0.155336         1    ;  uncertainty k = 0.301702
         2         1         7        13     9      180.000000        1.708153         2    ;  uncertainty k = 0.217895
         2         1         7        13     9        0.000000        0.449066         3    ;  uncertainty k = 0.076086
         2         1         7        13     9      180.000000        0.201297         4    ;  uncertainty k = 0.026965
         2         1         7        14     9        0.000000        0.155336         1    ;  uncertainty k = 0.301702
         2         1         7        14     9      180.000000        1.708153         2    ;  uncertainty k = 0.217895
         2         1         7        14     9        0.000000        0.449066         3    ;  uncertainty k = 0.076086
         2         1         7        14     9      180.000000        0.201297         4    ;  uncertainty k = 0.026965
         2         3         4         5     9        0.000000       -0.180843         1    ;  uncertainty k = 0.105620
         2         3         4         5     9      180.000000       12.242066         2    ;  uncertainty k = 0.326866
         2         3         4         5     9        0.000000       -0.557455         3    ;  uncertainty k = 0.424715
         2         3         4         5     9      180.000000        0.764457         4    ;  uncertainty k = 0.386122
         2         3         4        10     9        0.000000        0.071708         1    ;  uncertainty k = 0.164959
         2         3         4        10     9      180.000000        7.129994         2    ;  uncertainty k = 0.453153
         2         3         4        10     9        0.000000        1.508257         3    ;  uncertainty k = 0.340380
         2         3         4        10     9      180.000000        1.636811         4    ;  uncertainty k = 0.139536
         2         3        18        19     9        0.000000        0.047511         1    ;  uncertainty k = 0.059712
         2         3        18        19     9      180.000000        1.122691         2    ;  uncertainty k = 0.065867
         2         3        18        19     9        0.000000        0.338654         3    ;  uncertainty k = 0.019367
         2         3        18        19     9      180.000000        0.176685         4    ;  uncertainty k = 0.026381
         2         3        18        20     9        0.000000        0.047511         1    ;  uncertainty k = 0.059712
         2         3        18        20     9      180.000000        1.122691         2    ;  uncertainty k = 0.065867
         2         3        18        20     9        0.000000        0.338654         3    ;  uncertainty k = 0.019367
         2         3        18        20     9      180.000000        0.176685         4    ;  uncertainty k = 0.026381
         2         3        18        21     9        0.000000        0.047511         1    ;  uncertainty k = 0.059712
         2         3        18        21     9      180.000000        1.122691         2    ;  uncertainty k = 0.065867
         2         3        18        21     9        0.000000        0.338654         3    ;  uncertainty k = 0.019367
         2         3        18        21     9      180.000000        0.176685         4    ;  uncertainty k = 0.026381
         3         2         1         6     9        0.000000       -0.163635         1    ;  uncertainty k = 0.200014
         3         2         1         6     9      180.000000       11.187526         2    ;  uncertainty k = 0.222625
         3         2         1         6     9        0.000000       -0.172339         3    ;  uncertainty k = 0.349665
         3         2         1         6     9      180.000000        0.941181         4    ;  uncertainty k = 0.343994
         3         2         1         7     9        0.000000        0.154655         1    ;  uncertainty k = 0.284825
         3         2         1         7     9      180.000000        9.298812         2    ;  uncertainty k = 0.441173
         3         2         1         7     9        0.000000        1.456175         3    ;  uncertainty k = 0.220307
         3         2         1         7     9      180.000000        1.815973         4    ;  uncertainty k = 0.192160
         3         4         5         6     9        0.000000       -0.111961         1    ;  uncertainty k = 0.221071
         3         4         5         6     9      180.000000       14.278822         2    ;  uncertainty k = 0.244604
         3         4         5         6     9        0.000000       -1.031460         3    ;  uncertainty k = 0.500220
         3         4         5         6     9      180.000000        0.649471         4    ;  uncertainty k = 0.258437
         3         4         5        11     9        0.000000        0.105666         1    ;  uncertainty k = 0.159497
         3         4         5        11     9      180.000000        7.221447         2    ;  uncertainty k = 0.325487
         3         4         5        11     9        0.000000        1.467138         3    ;  uncertainty k = 0.266297
         3         4         5        11     9      180.000000        1.813313         4    ;  uncertainty k = 0.183921
         4         3         2         9     9        0.000000        0.058237         1    ;  uncertainty k = 0.112025
         4         3         2         9     9      180.000000        7.454534         2    ;  uncertainty k = 0.352532
         4         3         2         9     9        0.000000        1.508702         3    ;  uncertainty k = 0.361027
         4         3         2         9     9      180.000000        1.666157         4    ;  uncertainty k = 0.134701
         4         3        18        19     9        0.000000        0.027944         1    ;  uncertainty k = 0.033129
         4         3        18        19     9      180.000000        1.114334         2    ;  uncertainty k = 0.050515
         4         3        18        19     9        0.000000        0.300177         3    ;  uncertainty k = 0.021085
         4         3        18        19     9      180.000000        0.174314         4    ;  uncertainty k = 0.031778
         4         3        18        20     9        0.000000        0.027944         1    ;  uncertainty k = 0.033129
         4         3        18        20     9      180.000000        1.114334         2    ;  uncertainty k = 0.050515
         4         3        18        20     9        0.000000        0.300177         3    ;  uncertainty k = 0.021085
         4         3        18        20     9      180.000000        0.174314         4    ;  uncertainty k = 0.031778
         4         3        18        21     9        0.000000        0.027944         1    ;  uncertainty k = 0.033129
         4         3        18        21     9      180.000000        1.114334         2    ;  uncertainty k = 0.050515
         4         3        18        21     9        0.000000        0.300177         3    ;  uncertainty k = 0.021085
         4         3        18        21     9      180.000000        0.174314         4    ;  uncertainty k = 0.031778
         4         5         6        12     9        0.000000        0.096750         1    ;  uncertainty k = 0.105665
         4         5         6        12     9      180.000000        7.860005         2    ;  uncertainty k = 0.348595
         4         5         6        12     9        0.000000        1.450860         3    ;  uncertainty k = 0.302599
         4         5         6        12     9      180.000000        1.832191         4    ;  uncertainty k = 0.190783
         5         4         3        18     9        0.000000        0.229920         1    ;  uncertainty k = 0.214956
         5         4         3        18     9      180.000000        9.829098         2    ;  uncertainty k = 0.349774
         5         4         3        18     9        0.000000        1.369267         3    ;  uncertainty k = 0.249499
         5         4         3        18     9      180.000000        1.805471         4    ;  uncertainty k = 0.159504
         5         6         1         7     9        0.000000        0.257484         1    ;  uncertainty k = 0.326795
         5         6         1         7     9      180.000000        9.328880         2    ;  uncertainty k = 0.417303
         5         6         1         7     9        0.000000        1.422048         3    ;  uncertainty k = 0.286312
         5         6         1         7     9      180.000000        1.818479         4    ;  uncertainty k = 0.185171
         6         1         2         9     9        0.000000        0.127394         1    ;  uncertainty k = 0.138587
         6         1         2         9     9      180.000000        7.372208         2    ;  uncertainty k = 0.431827
         6         1         2         9     9        0.000000        1.483018         3    ;  uncertainty k = 0.362381
         6         1         2         9     9      180.000000        1.649612         4    ;  uncertainty k = 0.119566
         6         1         7         8     9        0.000000       -0.605636         1    ;  uncertainty k = 0.424109
         6         1         7         8     9      180.000000        1.919022         2    ;  uncertainty k = 0.181778
         6         1         7         8     9        0.000000        0.492747         3    ;  uncertainty k = 0.088728
         6         1         7         8     9      180.000000        0.428023         4    ;  uncertainty k = 0.016004
         6         1         7        13     9        0.000000        0.058917         1    ;  uncertainty k = 0.254000
         6         1         7        13     9      180.000000        1.690410         2    ;  uncertainty k = 0.210504
         6         1         7        13     9        0.000000        0.423990         3    ;  uncertainty k = 0.067465
         6         1         7        13     9      180.000000        0.195179         4    ;  uncertainty k = 0.024028
         6         1         7        14     9        0.000000        0.058917         1    ;  uncertainty k = 0.254000
         6         1         7        14     9      180.000000        1.690410         2    ;  uncertainty k = 0.210504
         6         1         7        14     9        0.000000        0.423990         3    ;  uncertainty k = 0.067465
         6         1         7        14     9      180.000000        0.195179         4    ;  uncertainty k = 0.024028
         6         5         4        10     9        0.000000        0.103106         1    ;  uncertainty k = 0.081910
         6         5         4        10     9      180.000000        7.834068         2    ;  uncertainty k = 0.400704
         6         5         4        10     9        0.000000        1.472367         3    ;  uncertainty k = 0.304689
         6         5         4        10     9      180.000000        1.817041         4    ;  uncertainty k = 0.197803
         7         1         2         9     9        0.000000       -0.206872         1    ;  uncertainty k = 0.252869
         7         1         2         9     9      180.000000        8.004754         2    ;  uncertainty k = 0.185129
         7         1         2         9     9        0.000000        0.614303         3    ;  uncertainty k = 0.272430
         7         1         2         9     9      180.000000        1.002299         4    ;  uncertainty k = 0.180790
         7         1         6        12     9        0.000000       -0.225413         1    ;  uncertainty k = 0.279644
         7         1         6        12     9      180.000000        7.822275         2    ;  uncertainty k = 0.203744
         7         1         6        12     9        0.000000        0.608285         3    ;  uncertainty k = 0.280423
         7         1         6        12     9      180.000000        0.978107         4    ;  uncertainty k = 0.179096
         9         2         3        18     9        0.000000       -0.316609         1    ;  uncertainty k = 0.314795
         9         2         3        18     9      180.000000        8.461296         2    ;  uncertainty k = 0.212802
         9         2         3        18     9        0.000000        0.548343         3    ;  uncertainty k = 0.251772
         9         2         3        18     9      180.000000        0.964931         4    ;  uncertainty k = 0.183306
        10         4         3        18     9        0.000000       -0.357270         1    ;  uncertainty k = 0.406619
        10         4         3        18     9      180.000000        8.347977         2    ;  uncertainty k = 0.206203
        10         4         3        18     9        0.000000        0.497548         3    ;  uncertainty k = 0.256094
        10         4         3        18     9      180.000000        0.888222         4    ;  uncertainty k = 0.210655
        10         4         5        11     9        0.000000        0.000551         1    ;  uncertainty k = 0.096151
        10         4         5        11     9      180.000000        7.522360         2    ;  uncertainty k = 0.270530
        10         4         5        11     9        0.000000       -0.444206         3    ;  uncertainty k = 0.261914
        10         4         5        11     9      180.000000        0.082424         4    ;  uncertainty k = 0.104199
        11         5         6        12     9        0.000000       -0.006732         1    ;  uncertainty k = 0.087921
        11         5         6        12     9      180.000000        7.493914         2    ;  uncertainty k = 0.290003
        11         5         6        12     9        0.000000       -0.449713         3    ;  uncertainty k = 0.264283
        11         5         6        12     9      180.000000        0.090471         4    ;  uncertainty k = 0.100100
        13         7         8        15     9        0.000000        0.503999         1    ;  uncertainty k = 0.189248
        13         7         8        15     9      180.000000       -0.611290         2    ;  uncertainty k = 0.248146
        13         7         8        15     9        0.000000        0.712705         3    ;  uncertainty k = 0.035625
        13         7         8        15     9      180.000000        0.004418         4    ;  uncertainty k = 0.031165
        13         7         8        16     9        0.000000        0.503999         1    ;  uncertainty k = 0.189248
        13         7         8        16     9      180.000000       -0.611290         2    ;  uncertainty k = 0.248146
        13         7         8        16     9        0.000000        0.712705         3    ;  uncertainty k = 0.035625
        13         7         8        16     9      180.000000        0.004418         4    ;  uncertainty k = 0.031165
        13         7         8        17     9        0.000000        0.503999         1    ;  uncertainty k = 0.189248
        13         7         8        17     9      180.000000       -0.611290         2    ;  uncertainty k = 0.248146
        13         7         8        17     9        0.000000        0.712705         3    ;  uncertainty k = 0.035625
        13         7         8        17     9      180.000000        0.004418         4    ;  uncertainty k = 0.031165
        14         7         8        15     9        0.000000        0.503999         1    ;  uncertainty k = 0.189248
        14         7         8        15     9      180.000000       -0.611290         2    ;  uncertainty k = 0.248146
        14         7         8        15     9        0.000000        0.712705         3    ;  uncertainty k = 0.035625
        14         7         8        15     9      180.000000        0.004418         4    ;  uncertainty k = 0.031165
        14         7         8        16     9        0.000000        0.503999         1    ;  uncertainty k = 0.189248
        14         7         8        16     9      180.000000       -0.611290         2    ;  uncertainty k = 0.248146
        14         7         8        16     9        0.000000        0.712705         3    ;  uncertainty k = 0.035625
        14         7         8        16     9      180.000000        0.004418         4    ;  uncertainty k = 0.031165
        14         7         8        17     9        0.000000        0.503999         1    ;  uncertainty k = 0.189248
        14         7         8        17     9      180.000000       -0.611290         2    ;  uncertainty k = 0.248146
        14         7         8        17     9        0.000000        0.712705         3    ;  uncertainty k = 0.035625
        14         7         8        17     9      180.000000        0.004418         4    ;  uncertainty k = 0.031165

[ dihedrals ] ; impropers
;       ai        aj        ak        al funct           phase               k        pn
         1         2         6         7     4      180.000000       14.549537         2    ;  uncertainty k = 0.062728
         1         6         7         2     4      180.000000       14.549537         2    ;  uncertainty k = 0.062728
         1         7         2         6     4      180.000000       14.549537         2    ;  uncertainty k = 0.062728
         2         1         3         9     4      180.000000        4.321225         2    ;  uncertainty k = 0.196052
         2         3         9         1     4      180.000000        4.321225         2    ;  uncertainty k = 0.196052
         2         9         1         3     4      180.000000        4.321225         2    ;  uncertainty k = 0.196052
         3         2         4        18     4      180.000000       15.845055         2    ;  uncertainty k = 0.050710
         3         4        18         2     4      180.000000       15.845055         2    ;  uncertainty k = 0.050710
         3        18         2         4     4      180.000000       15.845055         2    ;  uncertainty k = 0.050710
         4         3         5        10     4      180.000000        3.783832         2    ;  uncertainty k = 0.076955
         4         5        10         3     4      180.000000        3.783832         2    ;  uncertainty k = 0.076955
         4        10         3         5     4      180.000000        3.783832         2    ;  uncertainty k = 0.076955
         5         4         6        11     4      180.000000        4.287778         2    ;  uncertainty k = 0.051175
         5         6        11         4     4      180.000000        4.287778         2    ;  uncertainty k = 0.051175
         5        11         4         6     4      180.000000        4.287778         2    ;  uncertainty k = 0.051175
         6         1         5        12     4      180.000000        3.871240         2    ;  uncertainty k = 0.119357
         6         5        12         1     4      180.000000        3.871240         2    ;  uncertainty k = 0.119357
         6        12         1         5     4      180.000000        3.871240         2    ;  uncertainty k = 0.119357

[ pairs ]
;       ai        aj funct
         1         4     1
         1        11     1
         1        15     1
         1        16     1
         1        17     1
         1        18     1
         2         5     1
         2         8     1
         2        10     1
         2        12     1
         2        13     1
         2        14     1
         2        19     1
         2        20     1
         2        21     1
         3         6     1
         3         7     1
         3        11     1
         4         9     1
         4        12     1
         4        19     1
         4        20     1
         4        21     1
         5         7     1
         5        18     1
         6         8     1
         6         9     1
         6        10     1
         6        13     1
         6        14     1
         7         9     1
         7        12     1
         9        18     1
        10        11     1
        10        18     1
        11        12     1
        13        15     1
        13        16     1
        13        17     1
        14        15     1
        14        16     1
        14        17     1
