; ITP file created by ByteFF-joint-25, 2025-07-14 11:28:01.069985

[ atomtypes ]
;name           bonded.type        at.num        mass        charge   ptype           sigma         epsilon
 c0bf                                   6      0.0000       0.00000       A     3.31516e-01     4.13145e-01    ;  uncertainty sigma = 0.000004, epsilon = 0.000657
 c1bf                                   6      0.0000       0.00000       A     3.31523e-01     4.13316e-01    ;  uncertainty sigma = 0.000004, epsilon = 0.000587
 c2bf                                   6      0.0000       0.00000       A     3.31518e-01     4.13359e-01    ;  uncertainty sigma = 0.000003, epsilon = 0.000588
 c3bf                                   6      0.0000       0.00000       A     3.31519e-01     4.13331e-01    ;  uncertainty sigma = 0.000003, epsilon = 0.000569
 c4bf                                   6      0.0000       0.00000       A     3.31518e-01     4.13359e-01    ;  uncertainty sigma = 0.000003, epsilon = 0.000588
 c5bf                                   6      0.0000       0.00000       A     3.31523e-01     4.13316e-01    ;  uncertainty sigma = 0.000004, epsilon = 0.000587
 h6bf                                   1      0.0000       0.00000       A     2.62563e-01     6.71299e-02    ;  uncertainty sigma = 0.000007, epsilon = 0.000527
 h7bf                                   1      0.0000       0.00000       A     2.62558e-01     6.70324e-02    ;  uncertainty sigma = 0.000010, epsilon = 0.000442
 h8bf                                   1      0.0000       0.00000       A     2.62552e-01     6.70646e-02    ;  uncertainty sigma = 0.000011, epsilon = 0.000453
 h9bf                                   1      0.0000       0.00000       A     2.62558e-01     6.70324e-02    ;  uncertainty sigma = 0.000010, epsilon = 0.000442
 h10bf                                  1      0.0000       0.00000       A     2.62563e-01     6.71299e-02    ;  uncertainty sigma = 0.000007, epsilon = 0.000527
 c11bf                                  6      0.0000       0.00000       A     3.39773e-01     4.50878e-01    ;  uncertainty sigma = 0.000005, epsilon = 0.000421
 h12bf                                  1      0.0000       0.00000       A     2.60034e-01     8.66894e-02    ;  uncertainty sigma = 0.000006, epsilon = 0.000488
 h13bf                                  1      0.0000       0.00000       A     2.60034e-01     8.66894e-02    ;  uncertainty sigma = 0.000006, epsilon = 0.000488
 h14bf                                  1      0.0000       0.00000       A     2.60034e-01     8.66894e-02    ;  uncertainty sigma = 0.000006, epsilon = 0.000488

[ moleculetype ]
;name             nrexcl
 MOL                   3

[ atoms ]
;       nr            type      resi   res      atom      cgnr      charge          mass ; qtot
         1            c0bf         1   UNL        c0         1    -0.07689       12.0110 ; qtot   -0.077
         2            c1bf         1   UNL        c1         2    -0.13119       12.0110 ; qtot   -0.208
         3            c2bf         1   UNL        c2         3    -0.12836       12.0110 ; qtot   -0.336
         4            c3bf         1   UNL        c3         4    -0.13427       12.0110 ; qtot   -0.471
         5            c4bf         1   UNL        c4         5    -0.12836       12.0110 ; qtot   -0.599
         6            c5bf         1   UNL        c5         6    -0.13119       12.0110 ; qtot   -0.730
         7            h6bf         1   UNL        h6         7     0.12903        1.0080 ; qtot   -0.601
         8            h7bf         1   UNL        h7         8     0.12982        1.0080 ; qtot   -0.471
         9            h8bf         1   UNL        h8         9     0.13198        1.0080 ; qtot   -0.339
        10            h9bf         1   UNL        h9        10     0.12982        1.0080 ; qtot   -0.210
        11           h10bf         1   UNL       h10        11     0.12903        1.0080 ; qtot   -0.081
        12           c11bf         1   UNL       c11        12    -0.04930       12.0110 ; qtot   -0.130
        13           h12bf         1   UNL       h12        13     0.04329        1.0080 ; qtot   -0.087
        14           h13bf         1   UNL       h13        14     0.04329        1.0080 ; qtot   -0.043
        15           h14bf         1   UNL       h14        15     0.04330        1.0080 ; qtot   -0.000

[ bonds ]
;       ai        aj funct               r               k
         1         2     1        0.140278   349224.873828    ;  uncertainty r = 0.000013, k = 3.827917
         1         6     1        0.140278   349224.873828    ;  uncertainty r = 0.000013, k = 3.827906
         1        12     1        0.151153   252835.182178    ;  uncertainty r = 0.000014, k = 5.492285
         2         3     1        0.139732   366856.358105    ;  uncertainty r = 0.000025, k = 3.306911
         2         7     1        0.108902   334957.137598    ;  uncertainty r = 0.000009, k = 0.634527
         3         4     1        0.139680   369261.851660    ;  uncertainty r = 0.000022, k = 2.005289
         3         8     1        0.108843   334655.084668    ;  uncertainty r = 0.000011, k = 0.798628
         4         5     1        0.139680   369261.826123    ;  uncertainty r = 0.000022, k = 2.005310
         4         9     1        0.108851   334582.457129    ;  uncertainty r = 0.000012, k = 0.680635
         5         6     1        0.139732   366856.358105    ;  uncertainty r = 0.000025, k = 3.306945
         5        10     1        0.108843   334655.084668    ;  uncertainty r = 0.000011, k = 0.798628
         6        11     1        0.108902   334957.137598    ;  uncertainty r = 0.000009, k = 0.634482
        12        13     1        0.109534   307895.003125    ;  uncertainty r = 0.000008, k = 1.140258
        12        14     1        0.109534   307895.003125    ;  uncertainty r = 0.000008, k = 1.140262
        12        15     1        0.109534   307895.028662    ;  uncertainty r = 0.000008, k = 1.140255

[ angles ]
;       ai        aj        ak funct           theta             cth
         1         2         3     1      121.019119      531.108894    ;  uncertainty theta = 0.001820, k = 0.090900
         1         2         7     1      119.250000      281.652291    ;  uncertainty theta = 0.001057, k = 0.079793
         1         6         5     1      121.019119      531.108862    ;  uncertainty theta = 0.001820, k = 0.090900
         1         6        11     1      119.250000      281.652259    ;  uncertainty theta = 0.001057, k = 0.079793
         1        12        13     1      109.996964      397.630733    ;  uncertainty theta = 0.001103, k = 0.028969
         1        12        14     1      109.996964      397.630733    ;  uncertainty theta = 0.001103, k = 0.028969
         1        12        15     1      109.996964      397.630733    ;  uncertainty theta = 0.001103, k = 0.028968
         2         1         6     1      119.013550      471.920355    ;  uncertainty theta = 0.002251, k = 0.116298
         2         1        12     1      120.678787      428.257420    ;  uncertainty theta = 0.000850, k = 0.090773
         2         3         4     1      119.508095      521.255815    ;  uncertainty theta = 0.000999, k = 0.024330
         2         3         8     1      120.227188      287.354887    ;  uncertainty theta = 0.001664, k = 0.031119
         3         2         7     1      120.147415      290.418478    ;  uncertainty theta = 0.001032, k = 0.016661
         3         4         5     1      118.447510      529.307985    ;  uncertainty theta = 0.000918, k = 0.038241
         3         4         9     1      120.753403      289.207764    ;  uncertainty theta = 0.001496, k = 0.023522
         4         3         8     1      120.525063      288.655173    ;  uncertainty theta = 0.001345, k = 0.024826
         4         5         6     1      119.508102      521.255815    ;  uncertainty theta = 0.000999, k = 0.024330
         4         5        10     1      120.525063      288.655141    ;  uncertainty theta = 0.001345, k = 0.024826
         5         4         9     1      120.753403      289.207764    ;  uncertainty theta = 0.001496, k = 0.023522
         5         6        11     1      120.147415      290.418478    ;  uncertainty theta = 0.001032, k = 0.016661
         6         1        12     1      120.678787      428.257420    ;  uncertainty theta = 0.000850, k = 0.090773
         6         5        10     1      120.227173      287.354887    ;  uncertainty theta = 0.001664, k = 0.031119
        13        12        14     1      106.736984      316.781394    ;  uncertainty theta = 0.000965, k = 0.019303
        13        12        15     1      106.736984      316.781394    ;  uncertainty theta = 0.000965, k = 0.019302
        14        12        15     1      106.736984      316.781394    ;  uncertainty theta = 0.000965, k = 0.019302

[ dihedrals ] ; propers for gromacs 4.5 or higher, use funct 9
;       ai        aj        ak        al funct           phase               k        pn
         1         2         3         4     9        0.000000       -0.140045         1    ;  uncertainty k = 0.172918
         1         2         3         4     9      180.000000       14.271366         2    ;  uncertainty k = 0.268261
         1         2         3         4     9        0.000000       -0.969370         3    ;  uncertainty k = 0.508772
         1         2         3         4     9      180.000000        0.677395         4    ;  uncertainty k = 0.270718
         1         2         3         8     9        0.000000        0.100154         1    ;  uncertainty k = 0.200377
         1         2         3         8     9      180.000000        7.395436         2    ;  uncertainty k = 0.336495
         1         2         3         8     9        0.000000        1.498214         3    ;  uncertainty k = 0.245412
         1         2         3         8     9      180.000000        1.838064         4    ;  uncertainty k = 0.181725
         1         6         5         4     9        0.000000       -0.140044         1    ;  uncertainty k = 0.172917
         1         6         5         4     9      180.000000       14.271366         2    ;  uncertainty k = 0.268260
         1         6         5         4     9        0.000000       -0.969370         3    ;  uncertainty k = 0.508771
         1         6         5         4     9      180.000000        0.677395         4    ;  uncertainty k = 0.270719
         1         6         5        10     9        0.000000        0.100154         1    ;  uncertainty k = 0.200376
         1         6         5        10     9      180.000000        7.395437         2    ;  uncertainty k = 0.336495
         1         6         5        10     9        0.000000        1.498214         3    ;  uncertainty k = 0.245412
         1         6         5        10     9      180.000000        1.838064         4    ;  uncertainty k = 0.181725
         2         1         6         5     9        0.000000       -0.212957         1    ;  uncertainty k = 0.099981
         2         1         6         5     9      180.000000       11.956141         2    ;  uncertainty k = 0.323720
         2         1         6         5     9        0.000000       -0.462111         3    ;  uncertainty k = 0.400027
         2         1         6         5     9      180.000000        0.802883         4    ;  uncertainty k = 0.378922
         2         1         6        11     9        0.000000        0.069848         1    ;  uncertainty k = 0.123358
         2         1         6        11     9      180.000000        7.258136         2    ;  uncertainty k = 0.389367
         2         1         6        11     9        0.000000        1.519481         3    ;  uncertainty k = 0.365993
         2         1         6        11     9      180.000000        1.641985         4    ;  uncertainty k = 0.137508
         2         1        12        13     9        0.000000        0.045912         1    ;  uncertainty k = 0.023020
         2         1        12        13     9      180.000000        1.136439         2    ;  uncertainty k = 0.056358
         2         1        12        13     9        0.000000        0.309927         3    ;  uncertainty k = 0.026870
         2         1        12        13     9      180.000000        0.178911         4    ;  uncertainty k = 0.025392
         2         1        12        14     9        0.000000        0.045912         1    ;  uncertainty k = 0.023020
         2         1        12        14     9      180.000000        1.136439         2    ;  uncertainty k = 0.056358
         2         1        12        14     9        0.000000        0.309927         3    ;  uncertainty k = 0.026870
         2         1        12        14     9      180.000000        0.178911         4    ;  uncertainty k = 0.025392
         2         1        12        15     9        0.000000        0.045912         1    ;  uncertainty k = 0.023019
         2         1        12        15     9      180.000000        1.136439         2    ;  uncertainty k = 0.056357
         2         1        12        15     9        0.000000        0.309927         3    ;  uncertainty k = 0.026870
         2         1        12        15     9      180.000000        0.178911         4    ;  uncertainty k = 0.025393
         2         3         4         5     9        0.000000        0.001720         1    ;  uncertainty k = 0.104886
         2         3         4         5     9      180.000000       14.946613         2    ;  uncertainty k = 0.269682
         2         3         4         5     9        0.000000       -1.255131         3    ;  uncertainty k = 0.530027
         2         3         4         5     9      180.000000        0.512856         4    ;  uncertainty k = 0.290909
         2         3         4         9     9        0.000000        0.095051         1    ;  uncertainty k = 0.024705
         2         3         4         9     9      180.000000        7.609455         2    ;  uncertainty k = 0.344876
         2         3         4         9     9        0.000000        1.464314         3    ;  uncertainty k = 0.293998
         2         3         4         9     9      180.000000        1.806731         4    ;  uncertainty k = 0.182606
         3         2         1         6     9        0.000000       -0.212957         1    ;  uncertainty k = 0.099981
         3         2         1         6     9      180.000000       11.956137         2    ;  uncertainty k = 0.323721
         3         2         1         6     9        0.000000       -0.462111         3    ;  uncertainty k = 0.400026
         3         2         1         6     9      180.000000        0.802884         4    ;  uncertainty k = 0.378922
         3         2         1        12     9        0.000000        0.187442         1    ;  uncertainty k = 0.161550
         3         2         1        12     9      180.000000        9.804387         2    ;  uncertainty k = 0.308103
         3         2         1        12     9        0.000000        1.409818         3    ;  uncertainty k = 0.248007
         3         2         1        12     9      180.000000        1.822308         4    ;  uncertainty k = 0.156526
         3         4         5         6     9        0.000000        0.001720         1    ;  uncertainty k = 0.104887
         3         4         5         6     9      180.000000       14.946610         2    ;  uncertainty k = 0.269683
         3         4         5         6     9        0.000000       -1.255131         3    ;  uncertainty k = 0.530026
         3         4         5         6     9      180.000000        0.512856         4    ;  uncertainty k = 0.290909
         3         4         5        10     9        0.000000        0.106667         1    ;  uncertainty k = 0.041180
         3         4         5        10     9      180.000000        7.580803         2    ;  uncertainty k = 0.317284
         3         4         5        10     9        0.000000        1.467735         3    ;  uncertainty k = 0.329614
         3         4         5        10     9      180.000000        1.804098         4    ;  uncertainty k = 0.165215
         4         3         2         7     9        0.000000        0.120421         1    ;  uncertainty k = 0.090124
         4         3         2         7     9      180.000000        8.003240         2    ;  uncertainty k = 0.332180
         4         3         2         7     9        0.000000        1.472336         3    ;  uncertainty k = 0.318104
         4         3         2         7     9      180.000000        1.840422         4    ;  uncertainty k = 0.181931
         4         5         6        11     9        0.000000        0.120420         1    ;  uncertainty k = 0.090124
         4         5         6        11     9      180.000000        8.003240         2    ;  uncertainty k = 0.332183
         4         5         6        11     9        0.000000        1.472336         3    ;  uncertainty k = 0.318103
         4         5         6        11     9      180.000000        1.840422         4    ;  uncertainty k = 0.181932
         5         4         3         8     9        0.000000        0.106666         1    ;  uncertainty k = 0.041179
         5         4         3         8     9      180.000000        7.580801         2    ;  uncertainty k = 0.317284
         5         4         3         8     9        0.000000        1.467736         3    ;  uncertainty k = 0.329615
         5         4         3         8     9      180.000000        1.804098         4    ;  uncertainty k = 0.165215
         5         6         1        12     9        0.000000        0.187443         1    ;  uncertainty k = 0.161552
         5         6         1        12     9      180.000000        9.804388         2    ;  uncertainty k = 0.308101
         5         6         1        12     9        0.000000        1.409818         3    ;  uncertainty k = 0.248006
         5         6         1        12     9      180.000000        1.822309         4    ;  uncertainty k = 0.156526
         6         1         2         7     9        0.000000        0.069848         1    ;  uncertainty k = 0.123357
         6         1         2         7     9      180.000000        7.258135         2    ;  uncertainty k = 0.389368
         6         1         2         7     9        0.000000        1.519481         3    ;  uncertainty k = 0.365993
         6         1         2         7     9      180.000000        1.641985         4    ;  uncertainty k = 0.137509
         6         1        12        13     9        0.000000        0.045912         1    ;  uncertainty k = 0.023020
         6         1        12        13     9      180.000000        1.136439         2    ;  uncertainty k = 0.056356
         6         1        12        13     9        0.000000        0.309926         3    ;  uncertainty k = 0.026869
         6         1        12        13     9      180.000000        0.178911         4    ;  uncertainty k = 0.025392
         6         1        12        14     9        0.000000        0.045912         1    ;  uncertainty k = 0.023020
         6         1        12        14     9      180.000000        1.136439         2    ;  uncertainty k = 0.056356
         6         1        12        14     9        0.000000        0.309926         3    ;  uncertainty k = 0.026869
         6         1        12        14     9      180.000000        0.178911         4    ;  uncertainty k = 0.025392
         6         1        12        15     9        0.000000        0.045913         1    ;  uncertainty k = 0.023019
         6         1        12        15     9      180.000000        1.136440         2    ;  uncertainty k = 0.056356
         6         1        12        15     9        0.000000        0.309927         3    ;  uncertainty k = 0.026870
         6         1        12        15     9      180.000000        0.178911         4    ;  uncertainty k = 0.025392
         6         5         4         9     9        0.000000        0.095050         1    ;  uncertainty k = 0.024704
         6         5         4         9     9      180.000000        7.609456         2    ;  uncertainty k = 0.344876
         6         5         4         9     9        0.000000        1.464314         3    ;  uncertainty k = 0.293996
         6         5         4         9     9      180.000000        1.806731         4    ;  uncertainty k = 0.182607
         7         2         1        12     9        0.000000       -0.388965         1    ;  uncertainty k = 0.424211
         7         2         1        12     9      180.000000        8.397689         2    ;  uncertainty k = 0.178173
         7         2         1        12     9        0.000000        0.490829         3    ;  uncertainty k = 0.258159
         7         2         1        12     9      180.000000        0.893963         4    ;  uncertainty k = 0.198320
         7         2         3         8     9        0.000000        0.023508         1    ;  uncertainty k = 0.075724
         7         2         3         8     9      180.000000        7.716995         2    ;  uncertainty k = 0.295637
         7         2         3         8     9        0.000000       -0.434776         3    ;  uncertainty k = 0.235711
         7         2         3         8     9      180.000000        0.087159         4    ;  uncertainty k = 0.097718
         8         3         4         9     9        0.000000        0.012701         1    ;  uncertainty k = 0.107733
         8         3         4         9     9      180.000000        7.503877         2    ;  uncertainty k = 0.396938
         8         3         4         9     9        0.000000       -0.409116         3    ;  uncertainty k = 0.273669
         8         3         4         9     9      180.000000        0.052928         4    ;  uncertainty k = 0.124931
         9         4         5        10     9        0.000000        0.012700         1    ;  uncertainty k = 0.107734
         9         4         5        10     9      180.000000        7.503879         2    ;  uncertainty k = 0.396940
         9         4         5        10     9        0.000000       -0.409116         3    ;  uncertainty k = 0.273669
         9         4         5        10     9      180.000000        0.052928         4    ;  uncertainty k = 0.124931
        10         5         6        11     9        0.000000        0.023508         1    ;  uncertainty k = 0.075724
        10         5         6        11     9      180.000000        7.716998         2    ;  uncertainty k = 0.295636
        10         5         6        11     9        0.000000       -0.434776         3    ;  uncertainty k = 0.235711
        10         5         6        11     9      180.000000        0.087159         4    ;  uncertainty k = 0.097718
        11         6         1        12     9        0.000000       -0.388965         1    ;  uncertainty k = 0.424211
        11         6         1        12     9      180.000000        8.397686         2    ;  uncertainty k = 0.178174
        11         6         1        12     9        0.000000        0.490829         3    ;  uncertainty k = 0.258159
        11         6         1        12     9      180.000000        0.893963         4    ;  uncertainty k = 0.198320

[ dihedrals ] ; impropers
;       ai        aj        ak        al funct           phase               k        pn
         1         2         6        12     4      180.000000       15.874793         2    ;  uncertainty k = 0.051109
         1         6        12         2     4      180.000000       15.874793         2    ;  uncertainty k = 0.051109
         1        12         2         6     4      180.000000       15.874793         2    ;  uncertainty k = 0.051109
         2         1         3         7     4      180.000000        4.063876         2    ;  uncertainty k = 0.070819
         2         3         7         1     4      180.000000        4.063876         2    ;  uncertainty k = 0.070819
         2         7         1         3     4      180.000000        4.063876         2    ;  uncertainty k = 0.070819
         3         2         4         8     4      180.000000        4.476675         2    ;  uncertainty k = 0.046979
         3         4         8         2     4      180.000000        4.476675         2    ;  uncertainty k = 0.046979
         3         8         2         4     4      180.000000        4.476675         2    ;  uncertainty k = 0.046979
         4         3         5         9     4      180.000000        4.087915         2    ;  uncertainty k = 0.163501
         4         5         9         3     4      180.000000        4.087915         2    ;  uncertainty k = 0.163501
         4         9         3         5     4      180.000000        4.087915         2    ;  uncertainty k = 0.163501
         5         4         6        10     4      180.000000        4.476677         2    ;  uncertainty k = 0.046979
         5         6        10         4     4      180.000000        4.476677         2    ;  uncertainty k = 0.046979
         5        10         4         6     4      180.000000        4.476677         2    ;  uncertainty k = 0.046979
         6         1         5        11     4      180.000000        4.063875         2    ;  uncertainty k = 0.070820
         6         5        11         1     4      180.000000        4.063875         2    ;  uncertainty k = 0.070820
         6        11         1         5     4      180.000000        4.063875         2    ;  uncertainty k = 0.070820

[ pairs ]
;       ai        aj funct
         1         4     1
         1         8     1
         1        10     1
         2         5     1
         2         9     1
         2        11     1
         2        13     1
         2        14     1
         2        15     1
         3         6     1
         3        10     1
         3        12     1
         4         7     1
         4        11     1
         5         8     1
         5        12     1
         6         7     1
         6         9     1
         6        13     1
         6        14     1
         6        15     1
         7         8     1
         7        12     1
         8         9     1
         9        10     1
        10        11     1
        11        12     1
