; ITP file created by ByteFF-joint-25, 2025-07-14 11:28:00.311253

[ atomtypes ]
;name           bonded.type        at.num        mass        charge   ptype           sigma         epsilon
 c0bf                                   6      0.0000       0.00000       A     3.31525e-01     4.13157e-01    ;  uncertainty sigma = 0.000011, epsilon = 0.000630
 c1bf                                   6      0.0000       0.00000       A     3.31534e-01     4.13227e-01    ;  uncertainty sigma = 0.000004, epsilon = 0.000717
 c2bf                                   6      0.0000       0.00000       A     3.31519e-01     4.13215e-01    ;  uncertainty sigma = 0.000005, epsilon = 0.000603
 c3bf                                   6      0.0000       0.00000       A     3.31519e-01     4.13349e-01    ;  uncertainty sigma = 0.000004, epsilon = 0.000536
 c4bf                                   6      0.0000       0.00000       A     3.31518e-01     4.13297e-01    ;  uncertainty sigma = 0.000003, epsilon = 0.000503
 c5bf                                   6      0.0000       0.00000       A     3.31519e-01     4.13394e-01    ;  uncertainty sigma = 0.000005, epsilon = 0.000617
 c6bf                                   6      0.0000       0.00000       A     3.39751e-01     4.50288e-01    ;  uncertainty sigma = 0.000016, epsilon = 0.000898
 c7bf                                   6      0.0000       0.00000       A     3.39788e-01     4.50706e-01    ;  uncertainty sigma = 0.000001, epsilon = 0.000403
 h8bf                                   1      0.0000       0.00000       A     2.62563e-01     6.70889e-02    ;  uncertainty sigma = 0.000008, epsilon = 0.000441
 h9bf                                   1      0.0000       0.00000       A     2.62558e-01     6.70324e-02    ;  uncertainty sigma = 0.000010, epsilon = 0.000442
 h10bf                                  1      0.0000       0.00000       A     2.62558e-01     6.70324e-02    ;  uncertainty sigma = 0.000010, epsilon = 0.000442
 h11bf                                  1      0.0000       0.00000       A     2.62562e-01     6.71045e-02    ;  uncertainty sigma = 0.000010, epsilon = 0.000444
 h12bf                                  1      0.0000       0.00000       A     2.60037e-01     8.66361e-02    ;  uncertainty sigma = 0.000020, epsilon = 0.000554
 h13bf                                  1      0.0000       0.00000       A     2.60037e-01     8.66361e-02    ;  uncertainty sigma = 0.000020, epsilon = 0.000554
 h14bf                                  1      0.0000       0.00000       A     2.60024e-01     8.66316e-02    ;  uncertainty sigma = 0.000009, epsilon = 0.000658
 h15bf                                  1      0.0000       0.00000       A     2.60024e-01     8.66316e-02    ;  uncertainty sigma = 0.000009, epsilon = 0.000658
 h16bf                                  1      0.0000       0.00000       A     2.60024e-01     8.66316e-02    ;  uncertainty sigma = 0.000009, epsilon = 0.000658
 c17bf                                  6      0.0000       0.00000       A     3.39772e-01     4.50875e-01    ;  uncertainty sigma = 0.000003, epsilon = 0.000521
 h18bf                                  1      0.0000       0.00000       A     2.60030e-01     8.67016e-02    ;  uncertainty sigma = 0.000007, epsilon = 0.000472
 h19bf                                  1      0.0000       0.00000       A     2.60030e-01     8.67016e-02    ;  uncertainty sigma = 0.000007, epsilon = 0.000472
 h20bf                                  1      0.0000       0.00000       A     2.60030e-01     8.67016e-02    ;  uncertainty sigma = 0.000007, epsilon = 0.000472

[ moleculetype ]
;name             nrexcl
 MOL                   3

[ atoms ]
;       nr            type      resi   res      atom      cgnr      charge          mass ; qtot
         1            c0bf         1   UNL        c0         1    -0.07952       12.0110 ; qtot   -0.080
         2            c1bf         1   UNL        c1         2    -0.07286       12.0110 ; qtot   -0.152
         3            c2bf         1   UNL        c2         3    -0.13207       12.0110 ; qtot   -0.284
         4            c3bf         1   UNL        c3         4    -0.12429       12.0110 ; qtot   -0.409
         5            c4bf         1   UNL        c4         5    -0.13393       12.0110 ; qtot   -0.543
         6            c5bf         1   UNL        c5         6    -0.12691       12.0110 ; qtot   -0.670
         7            c6bf         1   UNL        c6         7    -0.03502       12.0110 ; qtot   -0.705
         8            c7bf         1   UNL        c7         8    -0.08889       12.0110 ; qtot   -0.793
         9            h8bf         1   UNL        h8         9     0.12885        1.0080 ; qtot   -0.665
        10            h9bf         1   UNL        h9        10     0.13078        1.0080 ; qtot   -0.534
        11           h10bf         1   UNL       h10        11     0.13224        1.0080 ; qtot   -0.402
        12           h11bf         1   UNL       h11        12     0.12891        1.0080 ; qtot   -0.273
        13           h12bf         1   UNL       h12        13     0.04347        1.0080 ; qtot   -0.229
        14           h13bf         1   UNL       h13        14     0.04347        1.0080 ; qtot   -0.186
        15           h14bf         1   UNL       h14        15     0.03528        1.0080 ; qtot   -0.150
        16           h15bf         1   UNL       h15        16     0.03528        1.0080 ; qtot   -0.115
        17           h16bf         1   UNL       h16        17     0.03528        1.0080 ; qtot   -0.080
        18           c17bf         1   UNL       c17        18    -0.05044       12.0110 ; qtot   -0.130
        19           h18bf         1   UNL       h18        19     0.04345        1.0080 ; qtot   -0.087
        20           h19bf         1   UNL       h19        20     0.04345        1.0080 ; qtot   -0.043
        21           h20bf         1   UNL       h20        21     0.04347        1.0080 ; qtot    0.000

[ bonds ]
;       ai        aj funct               r               k
         1         2     1        0.141193   334225.448340    ;  uncertainty r = 0.000081, k = 7.083009
         1         6     1        0.140064   348270.398828    ;  uncertainty r = 0.000023, k = 3.888000
         1         7     1        0.151390   227463.987402    ;  uncertainty r = 0.000070, k = 3.152677
         2         3     1        0.140153   351432.301563    ;  uncertainty r = 0.000040, k = 1.036955
         2        18     1        0.151227   235629.733496    ;  uncertainty r = 0.000022, k = 4.155955
         3         4     1        0.139680   371834.970801    ;  uncertainty r = 0.000023, k = 3.401551
         3         9     1        0.108869   334703.988232    ;  uncertainty r = 0.000013, k = 0.749865
         4         5     1        0.139476   376348.552734    ;  uncertainty r = 0.000016, k = 1.811381
         4        10     1        0.108829   334275.833057    ;  uncertainty r = 0.000009, k = 0.960276
         5         6     1        0.139675   371924.299609    ;  uncertainty r = 0.000023, k = 2.437503
         5        11     1        0.108840   333844.077148    ;  uncertainty r = 0.000012, k = 0.951457
         6        12     1        0.108863   334351.525049    ;  uncertainty r = 0.000016, k = 0.740372
         7         8     1        0.154205   227165.381982    ;  uncertainty r = 0.000055, k = 5.364994
         7        13     1        0.109649   307376.931787    ;  uncertainty r = 0.000029, k = 2.571886
         7        14     1        0.109649   307376.931787    ;  uncertainty r = 0.000029, k = 2.571886
         8        15     1        0.109599   309345.766309    ;  uncertainty r = 0.000015, k = 1.199199
         8        16     1        0.109599   309345.766309    ;  uncertainty r = 0.000015, k = 1.199199
         8        17     1        0.109599   309345.766309    ;  uncertainty r = 0.000015, k = 1.199199
        18        19     1        0.109521   308755.910156    ;  uncertainty r = 0.000010, k = 0.968105
        18        20     1        0.109521   308755.910156    ;  uncertainty r = 0.000010, k = 0.968105
        18        21     1        0.109521   308755.910156    ;  uncertainty r = 0.000010, k = 0.968105

[ angles ]
;       ai        aj        ak funct           theta             cth
         1         2         3     1      121.458603      475.133817    ;  uncertainty theta = 0.002969, k = 0.059044
         1         2        18     1      118.804138      409.571502    ;  uncertainty theta = 0.001359, k = 0.159361
         1         6         5     1      121.972549      517.360289    ;  uncertainty theta = 0.001566, k = 0.024620
         1         6        12     1      117.949722      268.094607    ;  uncertainty theta = 0.001679, k = 0.092452
         1         7         8     1      112.070778      564.739575    ;  uncertainty theta = 0.001293, k = 0.064268
         1         7        13     1      107.137512      394.734314    ;  uncertainty theta = 0.002686, k = 0.022079
         1         7        14     1      107.137512      394.734314    ;  uncertainty theta = 0.002686, k = 0.022079
         2         1         6     1      121.969727      472.385098    ;  uncertainty theta = 0.002363, k = 0.100870
         2         1         7     1      119.384377      412.995103    ;  uncertainty theta = 0.001583, k = 0.176638
         2         3         4     1      121.851212      521.158679    ;  uncertainty theta = 0.000787, k = 0.078150
         2         3         9     1      118.332664      273.678839    ;  uncertainty theta = 0.001089, k = 0.076174
         2        18        19     1      110.253494      393.924372    ;  uncertainty theta = 0.000866, k = 0.024419
         2        18        20     1      110.253494      393.924372    ;  uncertainty theta = 0.000866, k = 0.024419
         2        18        21     1      110.253494      393.924372    ;  uncertainty theta = 0.000866, k = 0.024419
         3         2        18     1      119.742287      431.911685    ;  uncertainty theta = 0.001468, k = 0.106125
         3         4         5     1      118.152634      517.886449    ;  uncertainty theta = 0.001316, k = 0.026148
         3         4        10     1      120.514793      288.579998    ;  uncertainty theta = 0.001368, k = 0.031158
         4         3         9     1      120.123985      291.343209    ;  uncertainty theta = 0.001095, k = 0.028646
         4         5         6     1      118.379990      515.020164    ;  uncertainty theta = 0.000428, k = 0.042288
         4         5        11     1      120.987343      289.223182    ;  uncertainty theta = 0.001296, k = 0.033980
         5         4        10     1      120.839828      289.086782    ;  uncertainty theta = 0.001370, k = 0.029924
         5         6        12     1      120.013550      292.459085    ;  uncertainty theta = 0.001808, k = 0.014221
         6         1         7     1      119.875473      428.187448    ;  uncertainty theta = 0.001972, k = 0.140448
         6         5        11     1      120.658463      287.747264    ;  uncertainty theta = 0.001085, k = 0.032829
         7         8        15     1      108.473717      411.075446    ;  uncertainty theta = 0.001923, k = 0.025966
         7         8        16     1      108.473717      411.075446    ;  uncertainty theta = 0.001923, k = 0.025966
         7         8        17     1      108.473717      411.075446    ;  uncertainty theta = 0.001923, k = 0.025966
         8         7        13     1      107.714172      410.699891    ;  uncertainty theta = 0.002374, k = 0.041471
         8         7        14     1      107.714172      410.699891    ;  uncertainty theta = 0.002374, k = 0.041471
        13         7        14     1      103.857765      312.191577    ;  uncertainty theta = 0.002791, k = 0.057930
        15         8        16     1      105.142838      315.494355    ;  uncertainty theta = 0.002199, k = 0.014336
        15         8        17     1      105.142838      315.494355    ;  uncertainty theta = 0.002199, k = 0.014336
        16         8        17     1      105.142838      315.494355    ;  uncertainty theta = 0.002199, k = 0.014336
        19        18        20     1      106.666710      317.769009    ;  uncertainty theta = 0.001350, k = 0.018358
        19        18        21     1      106.666710      317.769009    ;  uncertainty theta = 0.001350, k = 0.018358
        20        18        21     1      106.666710      317.769009    ;  uncertainty theta = 0.001350, k = 0.018358

[ dihedrals ] ; propers for gromacs 4.5 or higher, use funct 9
;       ai        aj        ak        al funct           phase               k        pn
         1         2         3         4     9        0.000000       -0.085908         1    ;  uncertainty k = 0.183781
         1         2         3         4     9      180.000000       10.867670         2    ;  uncertainty k = 0.439333
         1         2         3         4     9        0.000000        0.114397         3    ;  uncertainty k = 0.312204
         1         2         3         4     9      180.000000        1.101969         4    ;  uncertainty k = 0.291406
         1         2         3         9     9        0.000000        0.075646         1    ;  uncertainty k = 0.306448
         1         2         3         9     9      180.000000        7.208403         2    ;  uncertainty k = 0.559475
         1         2         3         9     9        0.000000        1.532516         3    ;  uncertainty k = 0.308206
         1         2         3         9     9      180.000000        1.652492         4    ;  uncertainty k = 0.125632
         1         2        18        19     9        0.000000        0.234854         1    ;  uncertainty k = 0.287825
         1         2        18        19     9      180.000000        1.819628         2    ;  uncertainty k = 0.118613
         1         2        18        19     9        0.000000        0.489040         3    ;  uncertainty k = 0.063574
         1         2        18        19     9      180.000000        0.314356         4    ;  uncertainty k = 0.071824
         1         2        18        20     9        0.000000        0.234854         1    ;  uncertainty k = 0.287825
         1         2        18        20     9      180.000000        1.819628         2    ;  uncertainty k = 0.118613
         1         2        18        20     9        0.000000        0.489040         3    ;  uncertainty k = 0.063574
         1         2        18        20     9      180.000000        0.314356         4    ;  uncertainty k = 0.071824
         1         2        18        21     9        0.000000        0.234854         1    ;  uncertainty k = 0.287825
         1         2        18        21     9      180.000000        1.819628         2    ;  uncertainty k = 0.118613
         1         2        18        21     9        0.000000        0.489040         3    ;  uncertainty k = 0.063574
         1         2        18        21     9      180.000000        0.314356         4    ;  uncertainty k = 0.071824
         1         6         5         4     9        0.000000       -0.016156         1    ;  uncertainty k = 0.189219
         1         6         5         4     9      180.000000       13.623716         2    ;  uncertainty k = 0.194808
         1         6         5         4     9        0.000000       -1.100255         3    ;  uncertainty k = 0.635716
         1         6         5         4     9      180.000000        0.690189         4    ;  uncertainty k = 0.312061
         1         6         5        11     9        0.000000        0.098606         1    ;  uncertainty k = 0.136261
         1         6         5        11     9      180.000000        7.142375         2    ;  uncertainty k = 0.430316
         1         6         5        11     9        0.000000        1.472039         3    ;  uncertainty k = 0.185028
         1         6         5        11     9      180.000000        1.811643         4    ;  uncertainty k = 0.164596
         1         7         8        15     9        0.000000        0.282336         1    ;  uncertainty k = 0.158044
         1         7         8        15     9      180.000000       -0.542354         2    ;  uncertainty k = 0.425967
         1         7         8        15     9        0.000000        1.460200         3    ;  uncertainty k = 0.116531
         1         7         8        15     9      180.000000       -0.032278         4    ;  uncertainty k = 0.034105
         1         7         8        16     9        0.000000        0.282336         1    ;  uncertainty k = 0.158044
         1         7         8        16     9      180.000000       -0.542354         2    ;  uncertainty k = 0.425967
         1         7         8        16     9        0.000000        1.460200         3    ;  uncertainty k = 0.116531
         1         7         8        16     9      180.000000       -0.032278         4    ;  uncertainty k = 0.034105
         1         7         8        17     9        0.000000        0.282336         1    ;  uncertainty k = 0.158044
         1         7         8        17     9      180.000000       -0.542354         2    ;  uncertainty k = 0.425967
         1         7         8        17     9        0.000000        1.460200         3    ;  uncertainty k = 0.116531
         1         7         8        17     9      180.000000       -0.032278         4    ;  uncertainty k = 0.034105
         2         1         6         5     9        0.000000        0.002588         1    ;  uncertainty k = 0.258542
         2         1         6         5     9      180.000000       10.953107         2    ;  uncertainty k = 0.322517
         2         1         6         5     9        0.000000        0.098740         3    ;  uncertainty k = 0.311947
         2         1         6         5     9      180.000000        1.041522         4    ;  uncertainty k = 0.292081
         2         1         6        12     9        0.000000        0.192588         1    ;  uncertainty k = 0.153456
         2         1         6        12     9      180.000000        7.300751         2    ;  uncertainty k = 0.489972
         2         1         6        12     9        0.000000        1.495228         3    ;  uncertainty k = 0.278740
         2         1         6        12     9      180.000000        1.683736         4    ;  uncertainty k = 0.110834
         2         1         7         8     9        0.000000       -0.450049         1    ;  uncertainty k = 0.291016
         2         1         7         8     9      180.000000        2.425649         2    ;  uncertainty k = 0.172571
         2         1         7         8     9        0.000000        0.867356         3    ;  uncertainty k = 0.050284
         2         1         7         8     9      180.000000        0.405596         4    ;  uncertainty k = 0.082876
         2         1         7        13     9        0.000000        0.398522         1    ;  uncertainty k = 0.516310
         2         1         7        13     9      180.000000        2.272720         2    ;  uncertainty k = 0.083493
         2         1         7        13     9        0.000000        0.502398         3    ;  uncertainty k = 0.052344
         2         1         7        13     9      180.000000        0.282860         4    ;  uncertainty k = 0.032928
         2         1         7        14     9        0.000000        0.398522         1    ;  uncertainty k = 0.516310
         2         1         7        14     9      180.000000        2.272720         2    ;  uncertainty k = 0.083493
         2         1         7        14     9        0.000000        0.502398         3    ;  uncertainty k = 0.052344
         2         1         7        14     9      180.000000        0.282860         4    ;  uncertainty k = 0.032928
         2         3         4         5     9        0.000000       -0.042059         1    ;  uncertainty k = 0.181753
         2         3         4         5     9      180.000000       13.912815         2    ;  uncertainty k = 0.212590
         2         3         4         5     9        0.000000       -1.128601         3    ;  uncertainty k = 0.601995
         2         3         4         5     9      180.000000        0.625762         4    ;  uncertainty k = 0.274996
         2         3         4        10     9        0.000000        0.137579         1    ;  uncertainty k = 0.198943
         2         3         4        10     9      180.000000        7.029072         2    ;  uncertainty k = 0.373704
         2         3         4        10     9        0.000000        1.503404         3    ;  uncertainty k = 0.197901
         2         3         4        10     9      180.000000        1.821212         4    ;  uncertainty k = 0.152205
         3         2         1         6     9        0.000000       -0.335441         1    ;  uncertainty k = 0.372594
         3         2         1         6     9      180.000000        7.974993         2    ;  uncertainty k = 0.659354
         3         2         1         6     9        0.000000        0.195326         3    ;  uncertainty k = 0.277240
         3         2         1         6     9      180.000000        1.086650         4    ;  uncertainty k = 0.395688
         3         2         1         7     9        0.000000        0.091495         1    ;  uncertainty k = 0.332370
         3         2         1         7     9      180.000000        8.540540         2    ;  uncertainty k = 0.176661
         3         2         1         7     9        0.000000        1.481006         3    ;  uncertainty k = 0.340287
         3         2         1         7     9      180.000000        1.672300         4    ;  uncertainty k = 0.102203
         3         2        18        19     9        0.000000        0.046004         1    ;  uncertainty k = 0.076400
         3         2        18        19     9      180.000000        1.366442         2    ;  uncertainty k = 0.104982
         3         2        18        19     9        0.000000        0.300801         3    ;  uncertainty k = 0.045742
         3         2        18        19     9      180.000000        0.206032         4    ;  uncertainty k = 0.022458
         3         2        18        20     9        0.000000        0.046004         1    ;  uncertainty k = 0.076400
         3         2        18        20     9      180.000000        1.366442         2    ;  uncertainty k = 0.104982
         3         2        18        20     9        0.000000        0.300801         3    ;  uncertainty k = 0.045742
         3         2        18        20     9      180.000000        0.206032         4    ;  uncertainty k = 0.022458
         3         2        18        21     9        0.000000        0.046004         1    ;  uncertainty k = 0.076400
         3         2        18        21     9      180.000000        1.366442         2    ;  uncertainty k = 0.104982
         3         2        18        21     9        0.000000        0.300801         3    ;  uncertainty k = 0.045742
         3         2        18        21     9      180.000000        0.206032         4    ;  uncertainty k = 0.022458
         3         4         5         6     9        0.000000        0.118327         1    ;  uncertainty k = 0.142722
         3         4         5         6     9      180.000000       15.242483         2    ;  uncertainty k = 0.323329
         3         4         5         6     9        0.000000       -1.423911         3    ;  uncertainty k = 0.494573
         3         4         5         6     9      180.000000        0.452078         4    ;  uncertainty k = 0.306447
         3         4         5        11     9        0.000000        0.109922         1    ;  uncertainty k = 0.141339
         3         4         5        11     9      180.000000        7.656761         2    ;  uncertainty k = 0.351996
         3         4         5        11     9        0.000000        1.426501         3    ;  uncertainty k = 0.311494
         3         4         5        11     9      180.000000        1.762929         4    ;  uncertainty k = 0.178840
         4         3         2        18     9        0.000000        0.109738         1    ;  uncertainty k = 0.152727
         4         3         2        18     9      180.000000       10.480930         2    ;  uncertainty k = 0.326862
         4         3         2        18     9        0.000000        1.410789         3    ;  uncertainty k = 0.294014
         4         3         2        18     9      180.000000        1.791071         4    ;  uncertainty k = 0.183239
         4         5         6        12     9        0.000000        0.135544         1    ;  uncertainty k = 0.133540
         4         5         6        12     9      180.000000        7.841761         2    ;  uncertainty k = 0.316215
         4         5         6        12     9        0.000000        1.429372         3    ;  uncertainty k = 0.325554
         4         5         6        12     9      180.000000        1.820848         4    ;  uncertainty k = 0.173289
         5         4         3         9     9        0.000000        0.100573         1    ;  uncertainty k = 0.130783
         5         4         3         9     9      180.000000        7.868475         2    ;  uncertainty k = 0.314474
         5         4         3         9     9        0.000000        1.410277         3    ;  uncertainty k = 0.336981
         5         4         3         9     9      180.000000        1.804155         4    ;  uncertainty k = 0.197946
         5         6         1         7     9        0.000000        0.235996         1    ;  uncertainty k = 0.415252
         5         6         1         7     9      180.000000        9.998739         2    ;  uncertainty k = 0.511224
         5         6         1         7     9        0.000000        1.498052         3    ;  uncertainty k = 0.309273
         5         6         1         7     9      180.000000        1.808903         4    ;  uncertainty k = 0.205783
         6         1         2        18     9        0.000000        0.073557         1    ;  uncertainty k = 0.361323
         6         1         2        18     9      180.000000        8.659944         2    ;  uncertainty k = 0.298495
         6         1         2        18     9        0.000000        1.394778         3    ;  uncertainty k = 0.297231
         6         1         2        18     9      180.000000        1.669922         4    ;  uncertainty k = 0.120129
         6         1         7         8     9        0.000000       -0.882332         1    ;  uncertainty k = 0.207904
         6         1         7         8     9      180.000000        2.168257         2    ;  uncertainty k = 0.085372
         6         1         7         8     9        0.000000        0.215886         3    ;  uncertainty k = 0.097727
         6         1         7         8     9      180.000000        0.440952         4    ;  uncertainty k = 0.044113
         6         1         7        13     9        0.000000        0.146787         1    ;  uncertainty k = 0.308367
         6         1         7        13     9      180.000000        1.950792         2    ;  uncertainty k = 0.202003
         6         1         7        13     9        0.000000        0.320324         3    ;  uncertainty k = 0.060767
         6         1         7        13     9      180.000000        0.191957         4    ;  uncertainty k = 0.038459
         6         1         7        14     9        0.000000        0.146787         1    ;  uncertainty k = 0.308367
         6         1         7        14     9      180.000000        1.950792         2    ;  uncertainty k = 0.202003
         6         1         7        14     9        0.000000        0.320324         3    ;  uncertainty k = 0.060767
         6         1         7        14     9      180.000000        0.191957         4    ;  uncertainty k = 0.038459
         6         5         4        10     9        0.000000        0.163623         1    ;  uncertainty k = 0.090155
         6         5         4        10     9      180.000000        7.607586         2    ;  uncertainty k = 0.336822
         6         5         4        10     9        0.000000        1.447388         3    ;  uncertainty k = 0.315162
         6         5         4        10     9      180.000000        1.772055         4    ;  uncertainty k = 0.174155
         7         1         2        18     9        0.000000       -0.339829         1    ;  uncertainty k = 0.444786
         7         1         2        18     9      180.000000       10.436341         2    ;  uncertainty k = 0.480245
         7         1         2        18     9        0.000000        0.758345         3    ;  uncertainty k = 0.262137
         7         1         2        18     9      180.000000        1.128252         4    ;  uncertainty k = 0.399171
         7         1         6        12     9        0.000000       -0.215266         1    ;  uncertainty k = 0.147718
         7         1         6        12     9      180.000000        8.126936         2    ;  uncertainty k = 0.201531
         7         1         6        12     9        0.000000        0.662237         3    ;  uncertainty k = 0.281056
         7         1         6        12     9      180.000000        1.131768         4    ;  uncertainty k = 0.143835
         9         3         2        18     9        0.000000       -0.346780         1    ;  uncertainty k = 0.338320
         9         3         2        18     9      180.000000        8.550233         2    ;  uncertainty k = 0.248562
         9         3         2        18     9        0.000000        0.453353         3    ;  uncertainty k = 0.265382
         9         3         2        18     9      180.000000        1.008664         4    ;  uncertainty k = 0.180578
         9         3         4        10     9        0.000000        0.009085         1    ;  uncertainty k = 0.102073
         9         3         4        10     9      180.000000        7.581146         2    ;  uncertainty k = 0.282063
         9         3         4        10     9        0.000000       -0.449033         3    ;  uncertainty k = 0.260869
         9         3         4        10     9      180.000000        0.097629         4    ;  uncertainty k = 0.096884
        10         4         5        11     9        0.000000        0.008311         1    ;  uncertainty k = 0.121141
        10         4         5        11     9      180.000000        7.402727         2    ;  uncertainty k = 0.361605
        10         4         5        11     9        0.000000       -0.413370         3    ;  uncertainty k = 0.291045
        10         4         5        11     9      180.000000        0.048769         4    ;  uncertainty k = 0.138881
        11         5         6        12     9        0.000000       -0.006197         1    ;  uncertainty k = 0.072984
        11         5         6        12     9      180.000000        7.578665         2    ;  uncertainty k = 0.283281
        11         5         6        12     9        0.000000       -0.445362         3    ;  uncertainty k = 0.270718
        11         5         6        12     9      180.000000        0.116284         4    ;  uncertainty k = 0.107253
        13         7         8        15     9        0.000000        0.499261         1    ;  uncertainty k = 0.174180
        13         7         8        15     9      180.000000       -0.605761         2    ;  uncertainty k = 0.239459
        13         7         8        15     9        0.000000        0.705203         3    ;  uncertainty k = 0.047935
        13         7         8        15     9      180.000000        0.010190         4    ;  uncertainty k = 0.032266
        13         7         8        16     9        0.000000        0.499261         1    ;  uncertainty k = 0.174180
        13         7         8        16     9      180.000000       -0.605761         2    ;  uncertainty k = 0.239459
        13         7         8        16     9        0.000000        0.705203         3    ;  uncertainty k = 0.047935
        13         7         8        16     9      180.000000        0.010190         4    ;  uncertainty k = 0.032266
        13         7         8        17     9        0.000000        0.499261         1    ;  uncertainty k = 0.174180
        13         7         8        17     9      180.000000       -0.605761         2    ;  uncertainty k = 0.239459
        13         7         8        17     9        0.000000        0.705203         3    ;  uncertainty k = 0.047935
        13         7         8        17     9      180.000000        0.010190         4    ;  uncertainty k = 0.032266
        14         7         8        15     9        0.000000        0.499261         1    ;  uncertainty k = 0.174180
        14         7         8        15     9      180.000000       -0.605761         2    ;  uncertainty k = 0.239459
        14         7         8        15     9        0.000000        0.705203         3    ;  uncertainty k = 0.047935
        14         7         8        15     9      180.000000        0.010190         4    ;  uncertainty k = 0.032266
        14         7         8        16     9        0.000000        0.499261         1    ;  uncertainty k = 0.174180
        14         7         8        16     9      180.000000       -0.605761         2    ;  uncertainty k = 0.239459
        14         7         8        16     9        0.000000        0.705203         3    ;  uncertainty k = 0.047935
        14         7         8        16     9      180.000000        0.010190         4    ;  uncertainty k = 0.032266
        14         7         8        17     9        0.000000        0.499261         1    ;  uncertainty k = 0.174180
        14         7         8        17     9      180.000000       -0.605761         2    ;  uncertainty k = 0.239459
        14         7         8        17     9        0.000000        0.705203         3    ;  uncertainty k = 0.047935
        14         7         8        17     9      180.000000        0.010190         4    ;  uncertainty k = 0.032266

[ dihedrals ] ; impropers
;       ai        aj        ak        al funct           phase               k        pn
         1         2         6         7     4      180.000000       13.929170         2    ;  uncertainty k = 0.087805
         1         6         7         2     4      180.000000       13.929170         2    ;  uncertainty k = 0.087805
         1         7         2         6     4      180.000000       13.929170         2    ;  uncertainty k = 0.087805
         2         1         3        18     4      180.000000       15.912217         2    ;  uncertainty k = 0.052219
         2         3        18         1     4      180.000000       15.912217         2    ;  uncertainty k = 0.052219
         2        18         1         3     4      180.000000       15.912217         2    ;  uncertainty k = 0.052219
         3         2         4         9     4      180.000000        3.585782         2    ;  uncertainty k = 0.173397
         3         4         9         2     4      180.000000        3.585782         2    ;  uncertainty k = 0.173397
         3         9         2         4     4      180.000000        3.585782         2    ;  uncertainty k = 0.173397
         4         3         5        10     4      180.000000        4.111785         2    ;  uncertainty k = 0.139656
         4         5        10         3     4      180.000000        4.111785         2    ;  uncertainty k = 0.139656
         4        10         3         5     4      180.000000        4.111785         2    ;  uncertainty k = 0.139656
         5         4         6        11     4      180.000000        3.724546         2    ;  uncertainty k = 0.174971
         5         6        11         4     4      180.000000        3.724546         2    ;  uncertainty k = 0.174971
         5        11         4         6     4      180.000000        3.724546         2    ;  uncertainty k = 0.174971
         6         1         5        12     4      180.000000        3.966283         2    ;  uncertainty k = 0.161132
         6         5        12         1     4      180.000000        3.966283         2    ;  uncertainty k = 0.161132
         6        12         1         5     4      180.000000        3.966283         2    ;  uncertainty k = 0.161132

[ pairs ]
;       ai        aj funct
         1         4     1
         1         9     1
         1        11     1
         1        15     1
         1        16     1
         1        17     1
         1        19     1
         1        20     1
         1        21     1
         2         5     1
         2         8     1
         2        10     1
         2        12     1
         2        13     1
         2        14     1
         3         6     1
         3         7     1
         3        11     1
         3        19     1
         3        20     1
         3        21     1
         4        12     1
         4        18     1
         5         7     1
         5         9     1
         6         8     1
         6        10     1
         6        13     1
         6        14     1
         6        18     1
         7        12     1
         7        18     1
         9        10     1
         9        18     1
        10        11     1
        11        12     1
        13        15     1
        13        16     1
        13        17     1
        14        15     1
        14        16     1
        14        17     1
