; ITP file created by ByteFF-joint-25, 2025-07-14 11:28:02.071375

[ atomtypes ]
;name           bonded.type        at.num        mass        charge   ptype           sigma         epsilon
 c0bf                                   6      0.0000       0.00000       A     3.31536e-01     4.13184e-01    ;  uncertainty sigma = 0.000004, epsilon = 0.000847
 c1bf                                   6      0.0000       0.00000       A     3.31523e-01     4.13444e-01    ;  uncertainty sigma = 0.000005, epsilon = 0.000512
 c2bf                                   6      0.0000       0.00000       A     3.31524e-01     4.13341e-01    ;  uncertainty sigma = 0.000004, epsilon = 0.000539
 c3bf                                   6      0.0000       0.00000       A     3.31519e-01     4.13184e-01    ;  uncertainty sigma = 0.000004, epsilon = 0.000662
 c4bf                                   6      0.0000       0.00000       A     3.31524e-01     4.13341e-01    ;  uncertainty sigma = 0.000004, epsilon = 0.000539
 c5bf                                   6      0.0000       0.00000       A     3.31523e-01     4.13444e-01    ;  uncertainty sigma = 0.000005, epsilon = 0.000512
 c6bf                                   6      0.0000       0.00000       A     3.39751e-01     4.50352e-01    ;  uncertainty sigma = 0.000013, epsilon = 0.000873
 c7bf                                   6      0.0000       0.00000       A     3.39786e-01     4.50780e-01    ;  uncertainty sigma = 0.000004, epsilon = 0.000302
 h8bf                                   1      0.0000       0.00000       A     2.62563e-01     6.71305e-02    ;  uncertainty sigma = 0.000008, epsilon = 0.000494
 h9bf                                   1      0.0000       0.00000       A     2.62564e-01     6.71089e-02    ;  uncertainty sigma = 0.000008, epsilon = 0.000514
 h10bf                                  1      0.0000       0.00000       A     2.62564e-01     6.71089e-02    ;  uncertainty sigma = 0.000008, epsilon = 0.000514
 h11bf                                  1      0.0000       0.00000       A     2.62563e-01     6.71305e-02    ;  uncertainty sigma = 0.000008, epsilon = 0.000494
 h12bf                                  1      0.0000       0.00000       A     2.60022e-01     8.67252e-02    ;  uncertainty sigma = 0.000019, epsilon = 0.000696
 h13bf                                  1      0.0000       0.00000       A     2.60022e-01     8.67252e-02    ;  uncertainty sigma = 0.000019, epsilon = 0.000696
 h14bf                                  1      0.0000       0.00000       A     2.60024e-01     8.66316e-02    ;  uncertainty sigma = 0.000009, epsilon = 0.000658
 h15bf                                  1      0.0000       0.00000       A     2.60024e-01     8.66316e-02    ;  uncertainty sigma = 0.000009, epsilon = 0.000658
 h16bf                                  1      0.0000       0.00000       A     2.60024e-01     8.66316e-02    ;  uncertainty sigma = 0.000009, epsilon = 0.000658
 c17bf                                  6      0.0000       0.00000       A     3.39773e-01     4.50878e-01    ;  uncertainty sigma = 0.000005, epsilon = 0.000421
 h18bf                                  1      0.0000       0.00000       A     2.60034e-01     8.66894e-02    ;  uncertainty sigma = 0.000006, epsilon = 0.000488
 h19bf                                  1      0.0000       0.00000       A     2.60034e-01     8.66894e-02    ;  uncertainty sigma = 0.000006, epsilon = 0.000488
 h20bf                                  1      0.0000       0.00000       A     2.60034e-01     8.66893e-02    ;  uncertainty sigma = 0.000006, epsilon = 0.000488

[ moleculetype ]
;name             nrexcl
 MOL                   3

[ atoms ]
;       nr            type      resi   res      atom      cgnr      charge          mass ; qtot
         1            c0bf         1   UNL        c0         1    -0.08654       12.0110 ; qtot   -0.087
         2            c1bf         1   UNL        c1         2    -0.12457       12.0110 ; qtot   -0.211
         3            c2bf         1   UNL        c2         3    -0.12995       12.0110 ; qtot   -0.341
         4            c3bf         1   UNL        c3         4    -0.07504       12.0110 ; qtot   -0.416
         5            c4bf         1   UNL        c4         5    -0.12995       12.0110 ; qtot   -0.546
         6            c5bf         1   UNL        c5         6    -0.12457       12.0110 ; qtot   -0.671
         7            c6bf         1   UNL        c6         7    -0.03422       12.0110 ; qtot   -0.705
         8            c7bf         1   UNL        c7         8    -0.08925       12.0110 ; qtot   -0.794
         9            h8bf         1   UNL        h8         9     0.12943        1.0080 ; qtot   -0.665
        10            h9bf         1   UNL        h9        10     0.12925        1.0080 ; qtot   -0.535
        11           h10bf         1   UNL       h10        11     0.12925        1.0080 ; qtot   -0.406
        12           h11bf         1   UNL       h11        12     0.12943        1.0080 ; qtot   -0.277
        13           h12bf         1   UNL       h12        13     0.04468        1.0080 ; qtot   -0.232
        14           h13bf         1   UNL       h13        14     0.04468        1.0080 ; qtot   -0.187
        15           h14bf         1   UNL       h14        15     0.03541        1.0080 ; qtot   -0.152
        16           h15bf         1   UNL       h15        16     0.03541        1.0080 ; qtot   -0.117
        17           h16bf         1   UNL       h16        17     0.03541        1.0080 ; qtot   -0.081
        18           c17bf         1   UNL       c17        18    -0.04872       12.0110 ; qtot   -0.130
        19           h18bf         1   UNL       h18        19     0.04329        1.0080 ; qtot   -0.087
        20           h19bf         1   UNL       h19        20     0.04329        1.0080 ; qtot   -0.043
        21           h20bf         1   UNL       h20        21     0.04328        1.0080 ; qtot   -0.000

[ bonds ]
;       ai        aj funct               r               k
         1         2     1        0.139928   352091.644189    ;  uncertainty r = 0.000029, k = 2.911357
         1         6     1        0.139928   352091.644189    ;  uncertainty r = 0.000029, k = 2.911357
         1         7     1        0.151282   234514.349170    ;  uncertainty r = 0.000023, k = 2.501464
         2         3     1        0.139714   366694.784814    ;  uncertainty r = 0.000034, k = 2.294209
         2         9     1        0.108905   334272.334473    ;  uncertainty r = 0.000016, k = 0.672521
         3         4     1        0.140167   352907.580371    ;  uncertainty r = 0.000018, k = 2.033974
         3        10     1        0.108896   334567.109326    ;  uncertainty r = 0.000006, k = 0.604585
         4         5     1        0.140167   352907.580371    ;  uncertainty r = 0.000018, k = 2.033974
         4        18     1        0.151123   253095.277637    ;  uncertainty r = 0.000012, k = 5.229613
         5         6     1        0.139714   366694.784814    ;  uncertainty r = 0.000034, k = 2.294209
         5        11     1        0.108896   334567.109326    ;  uncertainty r = 0.000006, k = 0.604585
         6        12     1        0.108905   334272.334473    ;  uncertainty r = 0.000016, k = 0.672521
         7         8     1        0.154176   229470.208252    ;  uncertainty r = 0.000050, k = 5.033000
         7        13     1        0.109674   306909.602686    ;  uncertainty r = 0.000029, k = 2.580537
         7        14     1        0.109674   306909.602686    ;  uncertainty r = 0.000029, k = 2.580537
         8        15     1        0.109610   309233.607324    ;  uncertainty r = 0.000011, k = 0.969538
         8        16     1        0.109610   309233.607324    ;  uncertainty r = 0.000011, k = 0.969538
         8        17     1        0.109610   309233.607324    ;  uncertainty r = 0.000011, k = 0.969538
        18        19     1        0.109534   307895.054199    ;  uncertainty r = 0.000008, k = 1.140244
        18        20     1        0.109534   307895.054199    ;  uncertainty r = 0.000008, k = 1.140244
        18        21     1        0.109534   307895.028662    ;  uncertainty r = 0.000008, k = 1.140238

[ angles ]
;       ai        aj        ak funct           theta             cth
         1         2         3     1      121.373756      519.279594    ;  uncertainty theta = 0.001340, k = 0.046200
         1         2         9     1      118.917648      270.924885    ;  uncertainty theta = 0.001779, k = 0.056077
         1         6         5     1      121.373756      519.279594    ;  uncertainty theta = 0.001340, k = 0.046200
         1         6        12     1      118.917648      270.924885    ;  uncertainty theta = 0.001779, k = 0.056077
         1         7         8     1      111.775925      564.019876    ;  uncertainty theta = 0.002167, k = 0.059272
         1         7        13     1      107.142334      393.682696    ;  uncertainty theta = 0.001947, k = 0.040482
         1         7        14     1      107.142334      393.682696    ;  uncertainty theta = 0.001947, k = 0.040482
         2         1         6     1      118.818336      467.012346    ;  uncertainty theta = 0.002023, k = 0.076616
         2         1         7     1      121.330017      430.689925    ;  uncertainty theta = 0.002477, k = 0.067864
         2         3         4     1      121.381210      526.555436    ;  uncertainty theta = 0.000885, k = 0.044333
         2         3        10     1      119.951843      287.749276    ;  uncertainty theta = 0.001279, k = 0.042187
         3         2         9     1      119.891258      291.218556    ;  uncertainty theta = 0.001875, k = 0.041425
         3         4         5     1      118.131042      465.615466    ;  uncertainty theta = 0.001552, k = 0.085520
         3         4        18     1      120.871353      432.189975    ;  uncertainty theta = 0.001425, k = 0.018103
         4         3        10     1      119.335228      281.530798    ;  uncertainty theta = 0.000957, k = 0.073521
         4         5         6     1      121.381210      526.555436    ;  uncertainty theta = 0.000885, k = 0.044333
         4         5        11     1      119.335228      281.530798    ;  uncertainty theta = 0.000957, k = 0.073521
         4        18        19     1      109.989296      397.927410    ;  uncertainty theta = 0.001064, k = 0.027037
         4        18        20     1      109.989296      397.927410    ;  uncertainty theta = 0.001064, k = 0.027037
         4        18        21     1      109.989296      397.927410    ;  uncertainty theta = 0.001064, k = 0.027037
         5         4        18     1      120.871353      432.189975    ;  uncertainty theta = 0.001425, k = 0.018103
         5         6        12     1      119.891258      291.218556    ;  uncertainty theta = 0.001875, k = 0.041425
         6         1         7     1      121.330017      430.689925    ;  uncertainty theta = 0.002477, k = 0.067864
         6         5        11     1      119.951843      287.749276    ;  uncertainty theta = 0.001279, k = 0.042187
         7         8        15     1      108.485817      413.596725    ;  uncertainty theta = 0.001715, k = 0.032644
         7         8        16     1      108.485817      413.596725    ;  uncertainty theta = 0.001715, k = 0.032644
         7         8        17     1      108.485817      413.596725    ;  uncertainty theta = 0.001715, k = 0.032644
         8         7        13     1      107.851059      407.897417    ;  uncertainty theta = 0.001854, k = 0.042131
         8         7        14     1      107.851059      407.897417    ;  uncertainty theta = 0.001854, k = 0.042131
        13         7        14     1      103.862747      310.477877    ;  uncertainty theta = 0.002748, k = 0.059351
        15         8        16     1      105.139038      315.510156    ;  uncertainty theta = 0.002270, k = 0.015366
        15         8        17     1      105.139038      315.510156    ;  uncertainty theta = 0.002270, k = 0.015366
        16         8        17     1      105.139038      315.510156    ;  uncertainty theta = 0.002270, k = 0.015366
        19        18        20     1      106.736984      316.781394    ;  uncertainty theta = 0.000965, k = 0.019303
        19        18        21     1      106.736984      316.781394    ;  uncertainty theta = 0.000965, k = 0.019303
        20        18        21     1      106.736984      316.781394    ;  uncertainty theta = 0.000965, k = 0.019303

[ dihedrals ] ; propers for gromacs 4.5 or higher, use funct 9
;       ai        aj        ak        al funct           phase               k        pn
         1         2         3         4     9        0.000000       -0.087103         1    ;  uncertainty k = 0.232644
         1         2         3         4     9      180.000000       13.537573         2    ;  uncertainty k = 0.125641
         1         2         3         4     9        0.000000       -0.848380         3    ;  uncertainty k = 0.514534
         1         2         3         4     9      180.000000        0.804882         4    ;  uncertainty k = 0.318875
         1         2         3        10     9        0.000000        0.114653         1    ;  uncertainty k = 0.155940
         1         2         3        10     9      180.000000        7.791577         2    ;  uncertainty k = 0.401895
         1         2         3        10     9        0.000000        1.484185         3    ;  uncertainty k = 0.258937
         1         2         3        10     9      180.000000        1.854422         4    ;  uncertainty k = 0.181851
         1         6         5         4     9        0.000000       -0.087103         1    ;  uncertainty k = 0.232644
         1         6         5         4     9      180.000000       13.537573         2    ;  uncertainty k = 0.125641
         1         6         5         4     9        0.000000       -0.848380         3    ;  uncertainty k = 0.514534
         1         6         5         4     9      180.000000        0.804882         4    ;  uncertainty k = 0.318875
         1         6         5        11     9        0.000000        0.114653         1    ;  uncertainty k = 0.155940
         1         6         5        11     9      180.000000        7.791577         2    ;  uncertainty k = 0.401895
         1         6         5        11     9        0.000000        1.484185         3    ;  uncertainty k = 0.258937
         1         6         5        11     9      180.000000        1.854422         4    ;  uncertainty k = 0.181851
         1         7         8        15     9        0.000000        0.000910         1    ;  uncertainty k = 0.149832
         1         7         8        15     9      180.000000       -0.409682         2    ;  uncertainty k = 0.368615
         1         7         8        15     9        0.000000        1.463612         3    ;  uncertainty k = 0.066634
         1         7         8        15     9      180.000000       -0.054021         4    ;  uncertainty k = 0.054036
         1         7         8        16     9        0.000000        0.000910         1    ;  uncertainty k = 0.149832
         1         7         8        16     9      180.000000       -0.409682         2    ;  uncertainty k = 0.368615
         1         7         8        16     9        0.000000        1.463612         3    ;  uncertainty k = 0.066634
         1         7         8        16     9      180.000000       -0.054021         4    ;  uncertainty k = 0.054036
         1         7         8        17     9        0.000000        0.000910         1    ;  uncertainty k = 0.149832
         1         7         8        17     9      180.000000       -0.409682         2    ;  uncertainty k = 0.368615
         1         7         8        17     9        0.000000        1.463612         3    ;  uncertainty k = 0.066634
         1         7         8        17     9      180.000000       -0.054021         4    ;  uncertainty k = 0.054036
         2         1         6         5     9        0.000000       -0.109160         1    ;  uncertainty k = 0.144329
         2         1         6         5     9      180.000000       11.631768         2    ;  uncertainty k = 0.398628
         2         1         6         5     9        0.000000       -0.494545         3    ;  uncertainty k = 0.302434
         2         1         6         5     9      180.000000        0.772064         4    ;  uncertainty k = 0.412152
         2         1         6        12     9        0.000000        0.118321         1    ;  uncertainty k = 0.216224
         2         1         6        12     9      180.000000        7.084289         2    ;  uncertainty k = 0.499611
         2         1         6        12     9        0.000000        1.450518         3    ;  uncertainty k = 0.359017
         2         1         6        12     9      180.000000        1.632504         4    ;  uncertainty k = 0.116172
         2         1         7         8     9        0.000000       -0.601503         1    ;  uncertainty k = 0.397816
         2         1         7         8     9      180.000000        1.869632         2    ;  uncertainty k = 0.197537
         2         1         7         8     9        0.000000        0.502382         3    ;  uncertainty k = 0.083431
         2         1         7         8     9      180.000000        0.426167         4    ;  uncertainty k = 0.010475
         2         1         7        13     9        0.000000        0.048172         1    ;  uncertainty k = 0.253191
         2         1         7        13     9      180.000000        1.663384         2    ;  uncertainty k = 0.219960
         2         1         7        13     9        0.000000        0.449510         3    ;  uncertainty k = 0.072811
         2         1         7        13     9      180.000000        0.194628         4    ;  uncertainty k = 0.021449
         2         1         7        14     9        0.000000        0.048172         1    ;  uncertainty k = 0.253191
         2         1         7        14     9      180.000000        1.663384         2    ;  uncertainty k = 0.219960
         2         1         7        14     9        0.000000        0.449510         3    ;  uncertainty k = 0.072811
         2         1         7        14     9      180.000000        0.194628         4    ;  uncertainty k = 0.021449
         2         3         4         5     9        0.000000       -0.157498         1    ;  uncertainty k = 0.178295
         2         3         4         5     9      180.000000       11.957353         2    ;  uncertainty k = 0.386742
         2         3         4         5     9        0.000000       -0.575379         3    ;  uncertainty k = 0.396911
         2         3         4         5     9      180.000000        0.792391         4    ;  uncertainty k = 0.412340
         2         3         4        18     9        0.000000        0.140005         1    ;  uncertainty k = 0.153667
         2         3         4        18     9      180.000000        9.322612         2    ;  uncertainty k = 0.295680
         2         3         4        18     9        0.000000        1.409462         3    ;  uncertainty k = 0.299277
         2         3         4        18     9      180.000000        1.847495         4    ;  uncertainty k = 0.155956
         3         2         1         6     9        0.000000       -0.109160         1    ;  uncertainty k = 0.144329
         3         2         1         6     9      180.000000       11.631768         2    ;  uncertainty k = 0.398628
         3         2         1         6     9        0.000000       -0.494545         3    ;  uncertainty k = 0.302434
         3         2         1         6     9      180.000000        0.772064         4    ;  uncertainty k = 0.412152
         3         2         1         7     9        0.000000        0.188870         1    ;  uncertainty k = 0.331298
         3         2         1         7     9      180.000000        9.014477         2    ;  uncertainty k = 0.382147
         3         2         1         7     9        0.000000        1.420673         3    ;  uncertainty k = 0.307241
         3         2         1         7     9      180.000000        1.832881         4    ;  uncertainty k = 0.171967
         3         4         5         6     9        0.000000       -0.157498         1    ;  uncertainty k = 0.178295
         3         4         5         6     9      180.000000       11.957353         2    ;  uncertainty k = 0.386742
         3         4         5         6     9        0.000000       -0.575379         3    ;  uncertainty k = 0.396911
         3         4         5         6     9      180.000000        0.792391         4    ;  uncertainty k = 0.412340
         3         4         5        11     9        0.000000        0.038270         1    ;  uncertainty k = 0.146934
         3         4         5        11     9      180.000000        7.128068         2    ;  uncertainty k = 0.383065
         3         4         5        11     9        0.000000        1.474886         3    ;  uncertainty k = 0.388802
         3         4         5        11     9      180.000000        1.620145         4    ;  uncertainty k = 0.154006
         3         4        18        19     9        0.000000        0.015899         1    ;  uncertainty k = 0.016802
         3         4        18        19     9      180.000000        1.112269         2    ;  uncertainty k = 0.060190
         3         4        18        19     9        0.000000        0.334870         3    ;  uncertainty k = 0.019275
         3         4        18        19     9      180.000000        0.173565         4    ;  uncertainty k = 0.025644
         3         4        18        20     9        0.000000        0.015899         1    ;  uncertainty k = 0.016802
         3         4        18        20     9      180.000000        1.112269         2    ;  uncertainty k = 0.060190
         3         4        18        20     9        0.000000        0.334870         3    ;  uncertainty k = 0.019275
         3         4        18        20     9      180.000000        0.173565         4    ;  uncertainty k = 0.025644
         3         4        18        21     9        0.000000        0.015899         1    ;  uncertainty k = 0.016802
         3         4        18        21     9      180.000000        1.112269         2    ;  uncertainty k = 0.060190
         3         4        18        21     9        0.000000        0.334870         3    ;  uncertainty k = 0.019275
         3         4        18        21     9      180.000000        0.173565         4    ;  uncertainty k = 0.025644
         4         3         2         9     9        0.000000        0.135936         1    ;  uncertainty k = 0.147000
         4         3         2         9     9      180.000000        7.613525         2    ;  uncertainty k = 0.349187
         4         3         2         9     9        0.000000        1.461035         3    ;  uncertainty k = 0.264943
         4         3         2         9     9      180.000000        1.880303         4    ;  uncertainty k = 0.193317
         4         5         6        12     9        0.000000        0.135936         1    ;  uncertainty k = 0.147000
         4         5         6        12     9      180.000000        7.613525         2    ;  uncertainty k = 0.349187
         4         5         6        12     9        0.000000        1.461035         3    ;  uncertainty k = 0.264943
         4         5         6        12     9      180.000000        1.880303         4    ;  uncertainty k = 0.193317
         5         4         3        10     9        0.000000        0.038270         1    ;  uncertainty k = 0.146934
         5         4         3        10     9      180.000000        7.128068         2    ;  uncertainty k = 0.383065
         5         4         3        10     9        0.000000        1.474886         3    ;  uncertainty k = 0.388802
         5         4         3        10     9      180.000000        1.620145         4    ;  uncertainty k = 0.154006
         5         4        18        19     9        0.000000        0.015899         1    ;  uncertainty k = 0.016802
         5         4        18        19     9      180.000000        1.112269         2    ;  uncertainty k = 0.060190
         5         4        18        19     9        0.000000        0.334870         3    ;  uncertainty k = 0.019275
         5         4        18        19     9      180.000000        0.173565         4    ;  uncertainty k = 0.025644
         5         4        18        20     9        0.000000        0.015899         1    ;  uncertainty k = 0.016802
         5         4        18        20     9      180.000000        1.112269         2    ;  uncertainty k = 0.060190
         5         4        18        20     9        0.000000        0.334870         3    ;  uncertainty k = 0.019275
         5         4        18        20     9      180.000000        0.173565         4    ;  uncertainty k = 0.025644
         5         4        18        21     9        0.000000        0.015899         1    ;  uncertainty k = 0.016802
         5         4        18        21     9      180.000000        1.112269         2    ;  uncertainty k = 0.060190
         5         4        18        21     9        0.000000        0.334870         3    ;  uncertainty k = 0.019275
         5         4        18        21     9      180.000000        0.173565         4    ;  uncertainty k = 0.025644
         5         6         1         7     9        0.000000        0.188870         1    ;  uncertainty k = 0.331298
         5         6         1         7     9      180.000000        9.014477         2    ;  uncertainty k = 0.382147
         5         6         1         7     9        0.000000        1.420673         3    ;  uncertainty k = 0.307241
         5         6         1         7     9      180.000000        1.832881         4    ;  uncertainty k = 0.171967
         6         1         2         9     9        0.000000        0.118321         1    ;  uncertainty k = 0.216224
         6         1         2         9     9      180.000000        7.084289         2    ;  uncertainty k = 0.499611
         6         1         2         9     9        0.000000        1.450518         3    ;  uncertainty k = 0.359017
         6         1         2         9     9      180.000000        1.632504         4    ;  uncertainty k = 0.116172
         6         1         7         8     9        0.000000       -0.601503         1    ;  uncertainty k = 0.397816
         6         1         7         8     9      180.000000        1.869632         2    ;  uncertainty k = 0.197537
         6         1         7         8     9        0.000000        0.502382         3    ;  uncertainty k = 0.083431
         6         1         7         8     9      180.000000        0.426167         4    ;  uncertainty k = 0.010475
         6         1         7        13     9        0.000000        0.048172         1    ;  uncertainty k = 0.253191
         6         1         7        13     9      180.000000        1.663384         2    ;  uncertainty k = 0.219960
         6         1         7        13     9        0.000000        0.449510         3    ;  uncertainty k = 0.072811
         6         1         7        13     9      180.000000        0.194628         4    ;  uncertainty k = 0.021449
         6         1         7        14     9        0.000000        0.048172         1    ;  uncertainty k = 0.253191
         6         1         7        14     9      180.000000        1.663384         2    ;  uncertainty k = 0.219960
         6         1         7        14     9        0.000000        0.449510         3    ;  uncertainty k = 0.072811
         6         1         7        14     9      180.000000        0.194628         4    ;  uncertainty k = 0.021449
         6         5         4        18     9        0.000000        0.140005         1    ;  uncertainty k = 0.153667
         6         5         4        18     9      180.000000        9.322612         2    ;  uncertainty k = 0.295680
         6         5         4        18     9        0.000000        1.409462         3    ;  uncertainty k = 0.299277
         6         5         4        18     9      180.000000        1.847495         4    ;  uncertainty k = 0.155956
         7         1         2         9     9        0.000000       -0.233728         1    ;  uncertainty k = 0.284647
         7         1         2         9     9      180.000000        7.808196         2    ;  uncertainty k = 0.204014
         7         1         2         9     9        0.000000        0.600647         3    ;  uncertainty k = 0.302972
         7         1         2         9     9      180.000000        0.961713         4    ;  uncertainty k = 0.180372
         7         1         6        12     9        0.000000       -0.233728         1    ;  uncertainty k = 0.284647
         7         1         6        12     9      180.000000        7.808196         2    ;  uncertainty k = 0.204014
         7         1         6        12     9        0.000000        0.600647         3    ;  uncertainty k = 0.302972
         7         1         6        12     9      180.000000        0.961713         4    ;  uncertainty k = 0.180372
         9         2         3        10     9        0.000000       -0.023293         1    ;  uncertainty k = 0.162399
         9         2         3        10     9      180.000000        7.762852         2    ;  uncertainty k = 0.288839
         9         2         3        10     9        0.000000       -0.483142         3    ;  uncertainty k = 0.239539
         9         2         3        10     9      180.000000        0.121795         4    ;  uncertainty k = 0.125736
        10         3         4        18     9        0.000000       -0.416243         1    ;  uncertainty k = 0.443174
        10         3         4        18     9      180.000000        8.356116         2    ;  uncertainty k = 0.199653
        10         3         4        18     9        0.000000        0.446333         3    ;  uncertainty k = 0.267288
        10         3         4        18     9      180.000000        0.848081         4    ;  uncertainty k = 0.240915
        11         5         4        18     9        0.000000       -0.416243         1    ;  uncertainty k = 0.443174
        11         5         4        18     9      180.000000        8.356116         2    ;  uncertainty k = 0.199653
        11         5         4        18     9        0.000000        0.446333         3    ;  uncertainty k = 0.267288
        11         5         4        18     9      180.000000        0.848081         4    ;  uncertainty k = 0.240915
        11         5         6        12     9        0.000000       -0.023293         1    ;  uncertainty k = 0.162399
        11         5         6        12     9      180.000000        7.762852         2    ;  uncertainty k = 0.288839
        11         5         6        12     9        0.000000       -0.483142         3    ;  uncertainty k = 0.239539
        11         5         6        12     9      180.000000        0.121795         4    ;  uncertainty k = 0.125736
        13         7         8        15     9        0.000000        0.502176         1    ;  uncertainty k = 0.190245
        13         7         8        15     9      180.000000       -0.610327         2    ;  uncertainty k = 0.247148
        13         7         8        15     9        0.000000        0.712812         3    ;  uncertainty k = 0.035197
        13         7         8        15     9      180.000000        0.004477         4    ;  uncertainty k = 0.030738
        13         7         8        16     9        0.000000        0.502176         1    ;  uncertainty k = 0.190245
        13         7         8        16     9      180.000000       -0.610327         2    ;  uncertainty k = 0.247148
        13         7         8        16     9        0.000000        0.712812         3    ;  uncertainty k = 0.035197
        13         7         8        16     9      180.000000        0.004477         4    ;  uncertainty k = 0.030738
        13         7         8        17     9        0.000000        0.502176         1    ;  uncertainty k = 0.190245
        13         7         8        17     9      180.000000       -0.610327         2    ;  uncertainty k = 0.247148
        13         7         8        17     9        0.000000        0.712812         3    ;  uncertainty k = 0.035197
        13         7         8        17     9      180.000000        0.004477         4    ;  uncertainty k = 0.030738
        14         7         8        15     9        0.000000        0.502176         1    ;  uncertainty k = 0.190245
        14         7         8        15     9      180.000000       -0.610327         2    ;  uncertainty k = 0.247148
        14         7         8        15     9        0.000000        0.712812         3    ;  uncertainty k = 0.035197
        14         7         8        15     9      180.000000        0.004477         4    ;  uncertainty k = 0.030738
        14         7         8        16     9        0.000000        0.502176         1    ;  uncertainty k = 0.190245
        14         7         8        16     9      180.000000       -0.610327         2    ;  uncertainty k = 0.247148
        14         7         8        16     9        0.000000        0.712812         3    ;  uncertainty k = 0.035197
        14         7         8        16     9      180.000000        0.004477         4    ;  uncertainty k = 0.030738
        14         7         8        17     9        0.000000        0.502176         1    ;  uncertainty k = 0.190245
        14         7         8        17     9      180.000000       -0.610327         2    ;  uncertainty k = 0.247148
        14         7         8        17     9        0.000000        0.712812         3    ;  uncertainty k = 0.035197
        14         7         8        17     9      180.000000        0.004477         4    ;  uncertainty k = 0.030738

[ dihedrals ] ; impropers
;       ai        aj        ak        al funct           phase               k        pn
         1         2         6         7     4      180.000000       13.639981         2    ;  uncertainty k = 0.070134
         1         6         7         2     4      180.000000       13.639981         2    ;  uncertainty k = 0.070134
         1         7         2         6     4      180.000000       13.639981         2    ;  uncertainty k = 0.070134
         2         1         3         9     4      180.000000        4.318423         2    ;  uncertainty k = 0.134247
         2         3         9         1     4      180.000000        4.318423         2    ;  uncertainty k = 0.134247
         2         9         1         3     4      180.000000        4.318423         2    ;  uncertainty k = 0.134247
         3         2         4        10     4      180.000000        3.932613         2    ;  uncertainty k = 0.060274
         3         4        10         2     4      180.000000        3.932613         2    ;  uncertainty k = 0.060274
         3        10         2         4     4      180.000000        3.932613         2    ;  uncertainty k = 0.060274
         4         3         5        18     4      180.000000       15.426089         2    ;  uncertainty k = 0.061870
         4         5        18         3     4      180.000000       15.426089         2    ;  uncertainty k = 0.061870
         4        18         3         5     4      180.000000       15.426089         2    ;  uncertainty k = 0.061870
         5         4         6        11     4      180.000000        3.932612         2    ;  uncertainty k = 0.060273
         5         6        11         4     4      180.000000        3.932612         2    ;  uncertainty k = 0.060273
         5        11         4         6     4      180.000000        3.932612         2    ;  uncertainty k = 0.060273
         6         1         5        12     4      180.000000        4.318422         2    ;  uncertainty k = 0.134247
         6         5        12         1     4      180.000000        4.318422         2    ;  uncertainty k = 0.134247
         6        12         1         5     4      180.000000        4.318422         2    ;  uncertainty k = 0.134247

[ pairs ]
;       ai        aj funct
         1         4     1
         1        10     1
         1        11     1
         1        15     1
         1        16     1
         1        17     1
         2         5     1
         2         8     1
         2        12     1
         2        13     1
         2        14     1
         2        18     1
         3         6     1
         3         7     1
         3        11     1
         3        19     1
         3        20     1
         3        21     1
         4         9     1
         4        12     1
         5         7     1
         5        10     1
         5        19     1
         5        20     1
         5        21     1
         6         8     1
         6         9     1
         6        13     1
         6        14     1
         6        18     1
         7         9     1
         7        12     1
         9        10     1
        10        18     1
        11        12     1
        11        18     1
        13        15     1
        13        16     1
        13        17     1
        14        15     1
        14        16     1
        14        17     1
