; ITP file created by ByteFF-joint-25, 2025-07-14 11:28:00.043485

[ atomtypes ]
;name           bonded.type        at.num        mass        charge   ptype           sigma         epsilon
 c0bf                                   6      0.0000       0.00000       A     3.31533e-01     4.13038e-01    ;  uncertainty sigma = 0.000004, epsilon = 0.000681
 c1bf                                   6      0.0000       0.00000       A     3.31519e-01     4.13357e-01    ;  uncertainty sigma = 0.000003, epsilon = 0.000561
 c2bf                                   6      0.0000       0.00000       A     3.31518e-01     4.13343e-01    ;  uncertainty sigma = 0.000003, epsilon = 0.000526
 c3bf                                   6      0.0000       0.00000       A     3.31519e-01     4.13331e-01    ;  uncertainty sigma = 0.000003, epsilon = 0.000569
 c4bf                                   6      0.0000       0.00000       A     3.31518e-01     4.13343e-01    ;  uncertainty sigma = 0.000003, epsilon = 0.000526
 c5bf                                   6      0.0000       0.00000       A     3.31519e-01     4.13357e-01    ;  uncertainty sigma = 0.000003, epsilon = 0.000561
 c6bf                                   6      0.0000       0.00000       A     3.39771e-01     4.50385e-01    ;  uncertainty sigma = 0.000014, epsilon = 0.001416
 c7bf                                   6      0.0000       0.00000       A     3.39783e-01     4.50531e-01    ;  uncertainty sigma = 0.000012, epsilon = 0.000892
 c8bf                                   6      0.0000       0.00000       A     3.39781e-01     4.50935e-01    ;  uncertainty sigma = 0.000005, epsilon = 0.000447
 h9bf                                   1      0.0000       0.00000       A     2.62565e-01     6.71217e-02    ;  uncertainty sigma = 0.000005, epsilon = 0.000518
 h10bf                                  1      0.0000       0.00000       A     2.62558e-01     6.70324e-02    ;  uncertainty sigma = 0.000010, epsilon = 0.000442
 h11bf                                  1      0.0000       0.00000       A     2.62552e-01     6.70645e-02    ;  uncertainty sigma = 0.000011, epsilon = 0.000453
 h12bf                                  1      0.0000       0.00000       A     2.62558e-01     6.70324e-02    ;  uncertainty sigma = 0.000010, epsilon = 0.000442
 h13bf                                  1      0.0000       0.00000       A     2.62565e-01     6.71217e-02    ;  uncertainty sigma = 0.000005, epsilon = 0.000518
 h14bf                                  1      0.0000       0.00000       A     2.60057e-01     8.63984e-02    ;  uncertainty sigma = 0.000021, epsilon = 0.000599
 h15bf                                  1      0.0000       0.00000       A     2.60057e-01     8.63984e-02    ;  uncertainty sigma = 0.000021, epsilon = 0.000599
 h16bf                                  1      0.0000       0.00000       A     2.60032e-01     8.65583e-02    ;  uncertainty sigma = 0.000009, epsilon = 0.000346
 h17bf                                  1      0.0000       0.00000       A     2.60032e-01     8.65583e-02    ;  uncertainty sigma = 0.000009, epsilon = 0.000346
 h18bf                                  1      0.0000       0.00000       A     2.60017e-01     8.66368e-02    ;  uncertainty sigma = 0.000014, epsilon = 0.000726
 h19bf                                  1      0.0000       0.00000       A     2.60017e-01     8.66368e-02    ;  uncertainty sigma = 0.000014, epsilon = 0.000726
 h20bf                                  1      0.0000       0.00000       A     2.60017e-01     8.66368e-02    ;  uncertainty sigma = 0.000014, epsilon = 0.000726

[ moleculetype ]
;name             nrexcl
 MOL                   3

[ atoms ]
;       nr            type      resi   res      atom      cgnr      charge          mass ; qtot
         1            c0bf         1   UNL        c0         1    -0.08158       12.0110 ; qtot   -0.082
         2            c1bf         1   UNL        c1         2    -0.12734       12.0110 ; qtot   -0.209
         3            c2bf         1   UNL        c2         3    -0.12973       12.0110 ; qtot   -0.339
         4            c3bf         1   UNL        c3         4    -0.12782       12.0110 ; qtot   -0.466
         5            c4bf         1   UNL        c4         5    -0.12973       12.0110 ; qtot   -0.596
         6            c5bf         1   UNL        c5         6    -0.12734       12.0110 ; qtot   -0.724
         7            c6bf         1   UNL        c6         7    -0.03558       12.0110 ; qtot   -0.759
         8            c7bf         1   UNL        c7         8    -0.07591       12.0110 ; qtot   -0.835
         9            c8bf         1   UNL        c8         9    -0.09206       12.0110 ; qtot   -0.927
        10            h9bf         1   UNL        h9        10     0.13140        1.0080 ; qtot   -0.796
        11           h10bf         1   UNL       h10        11     0.13082        1.0080 ; qtot   -0.665
        12           h11bf         1   UNL       h11        12     0.13198        1.0080 ; qtot   -0.533
        13           h12bf         1   UNL       h12        13     0.13082        1.0080 ; qtot   -0.402
        14           h13bf         1   UNL       h13        14     0.13140        1.0080 ; qtot   -0.271
        15           h14bf         1   UNL       h14        15     0.04537        1.0080 ; qtot   -0.225
        16           h15bf         1   UNL       h15        16     0.04537        1.0080 ; qtot   -0.180
        17           h16bf         1   UNL       h16        17     0.03980        1.0080 ; qtot   -0.140
        18           h17bf         1   UNL       h17        18     0.03980        1.0080 ; qtot   -0.100
        19           h18bf         1   UNL       h18        19     0.03344        1.0080 ; qtot   -0.067
        20           h19bf         1   UNL       h19        20     0.03344        1.0080 ; qtot   -0.033
        21           h20bf         1   UNL       h20        21     0.03345        1.0080 ; qtot   -0.000

[ bonds ]
;       ai        aj funct               r               k
         1         2     1        0.139990   350715.679199    ;  uncertainty r = 0.000021, k = 1.604643
         1         6     1        0.139990   350715.679199    ;  uncertainty r = 0.000021, k = 1.604643
         1         7     1        0.151229   232475.645117    ;  uncertainty r = 0.000038, k = 2.532064
         2         3     1        0.139659   367494.581543    ;  uncertainty r = 0.000018, k = 1.539924
         2        10     1        0.108922   334327.290332    ;  uncertainty r = 0.000017, k = 0.744709
         3         4     1        0.139637   370587.431934    ;  uncertainty r = 0.000019, k = 1.259389
         3        11     1        0.108854   334327.188184    ;  uncertainty r = 0.000010, k = 0.904566
         4         5     1        0.139637   370587.431934    ;  uncertainty r = 0.000019, k = 1.259389
         4        12     1        0.108851   334582.457129    ;  uncertainty r = 0.000012, k = 0.680655
         5         6     1        0.139659   367494.581543    ;  uncertainty r = 0.000018, k = 1.539924
         5        13     1        0.108854   334327.188184    ;  uncertainty r = 0.000010, k = 0.904566
         6        14     1        0.108922   334327.290332    ;  uncertainty r = 0.000017, k = 0.744709
         7         8     1        0.154070   212897.505298    ;  uncertainty r = 0.000038, k = 7.560411
         7        15     1        0.109739   306612.912549    ;  uncertainty r = 0.000020, k = 2.208050
         7        16     1        0.109739   306612.912549    ;  uncertainty r = 0.000020, k = 2.208050
         8         9     1        0.153622   222917.871191    ;  uncertainty r = 0.000022, k = 2.531702
         8        17     1        0.109712   305194.326123    ;  uncertainty r = 0.000008, k = 1.484533
         8        18     1        0.109712   305194.326123    ;  uncertainty r = 0.000008, k = 1.484533
         9        19     1        0.109681   309430.575049    ;  uncertainty r = 0.000015, k = 1.526844
         9        20     1        0.109681   309430.575049    ;  uncertainty r = 0.000015, k = 1.526844
         9        21     1        0.109681   309430.600586    ;  uncertainty r = 0.000015, k = 1.526851

[ angles ]
;       ai        aj        ak funct           theta             cth
         1         2         3     1      121.081444      521.066266    ;  uncertainty theta = 0.001379, k = 0.027588
         1         2        10     1      118.984596      270.593094    ;  uncertainty theta = 0.001979, k = 0.029150
         1         6         5     1      121.081444      521.066266    ;  uncertainty theta = 0.001379, k = 0.027588
         1         6        14     1      118.984596      270.593094    ;  uncertainty theta = 0.001979, k = 0.029150
         1         7         8     1      111.695618      556.783808    ;  uncertainty theta = 0.001333, k = 0.097495
         1         7        15     1      107.127419      394.465983    ;  uncertainty theta = 0.001379, k = 0.047892
         1         7        16     1      107.127419      394.465983    ;  uncertainty theta = 0.001379, k = 0.047892
         2         1         6     1      119.543884      463.975058    ;  uncertainty theta = 0.001990, k = 0.079656
         2         1         7     1      121.311050      432.216534    ;  uncertainty theta = 0.002417, k = 0.055203
         2         3         4     1      119.555870      516.132561    ;  uncertainty theta = 0.000749, k = 0.026402
         2         3        11     1      120.233009      285.337742    ;  uncertainty theta = 0.001610, k = 0.021016
         3         2        10     1      120.160477      292.670947    ;  uncertainty theta = 0.001967, k = 0.007566
         3         4         5     1      118.329407      526.152652    ;  uncertainty theta = 0.000907, k = 0.031471
         3         4        12     1      120.672157      289.503835    ;  uncertainty theta = 0.001676, k = 0.008297
         4         3        11     1      120.568382      288.279586    ;  uncertainty theta = 0.001545, k = 0.013753
         4         5         6     1      119.555870      516.132561    ;  uncertainty theta = 0.000749, k = 0.026402
         4         5        13     1      120.568382      288.279586    ;  uncertainty theta = 0.001545, k = 0.013753
         5         4        12     1      120.672157      289.503835    ;  uncertainty theta = 0.001676, k = 0.008297
         5         6        14     1      120.160477      292.670947    ;  uncertainty theta = 0.001967, k = 0.007566
         6         1         7     1      121.311050      432.216534    ;  uncertainty theta = 0.002417, k = 0.055203
         6         5        13     1      120.233009      285.337742    ;  uncertainty theta = 0.001610, k = 0.021016
         7         8         9     1      110.939598      599.343125    ;  uncertainty theta = 0.000917, k = 0.049862
         7         8        17     1      107.082993      398.165671    ;  uncertainty theta = 0.001951, k = 0.017080
         7         8        18     1      107.082993      398.165671    ;  uncertainty theta = 0.001951, k = 0.017080
         8         7        15     1      107.409279      397.998148    ;  uncertainty theta = 0.001482, k = 0.046369
         8         7        16     1      107.409279      397.998148    ;  uncertainty theta = 0.001482, k = 0.046369
         8         9        19     1      108.486206      409.779087    ;  uncertainty theta = 0.001535, k = 0.020212
         8         9        20     1      108.486206      409.779087    ;  uncertainty theta = 0.001535, k = 0.020212
         8         9        21     1      108.486206      409.779087    ;  uncertainty theta = 0.001535, k = 0.020212
         9         8        17     1      107.940018      412.858511    ;  uncertainty theta = 0.001509, k = 0.014206
         9         8        18     1      107.940018      412.858511    ;  uncertainty theta = 0.001509, k = 0.014206
        15         7        16     1      104.136093      315.178110    ;  uncertainty theta = 0.002146, k = 0.043618
        17         8        18     1      104.105331      315.151552    ;  uncertainty theta = 0.002095, k = 0.028755
        19         9        20     1      104.951859      316.108682    ;  uncertainty theta = 0.001970, k = 0.020002
        19         9        21     1      104.951859      316.108682    ;  uncertainty theta = 0.001970, k = 0.020002
        20         9        21     1      104.951859      316.108682    ;  uncertainty theta = 0.001970, k = 0.020002

[ dihedrals ] ; propers for gromacs 4.5 or higher, use funct 9
;       ai        aj        ak        al funct           phase               k        pn
         1         2         3         4     9        0.000000       -0.123251         1    ;  uncertainty k = 0.162970
         1         2         3         4     9      180.000000       14.047618         2    ;  uncertainty k = 0.208726
         1         2         3         4     9        0.000000       -0.979937         3    ;  uncertainty k = 0.483626
         1         2         3         4     9      180.000000        0.668888         4    ;  uncertainty k = 0.282111
         1         2         3        11     9        0.000000        0.053115         1    ;  uncertainty k = 0.166640
         1         2         3        11     9      180.000000        7.474795         2    ;  uncertainty k = 0.393031
         1         2         3        11     9        0.000000        1.484584         3    ;  uncertainty k = 0.211240
         1         2         3        11     9      180.000000        1.802693         4    ;  uncertainty k = 0.144038
         1         6         5         4     9        0.000000       -0.123251         1    ;  uncertainty k = 0.162970
         1         6         5         4     9      180.000000       14.047618         2    ;  uncertainty k = 0.208726
         1         6         5         4     9        0.000000       -0.979937         3    ;  uncertainty k = 0.483626
         1         6         5         4     9      180.000000        0.668888         4    ;  uncertainty k = 0.282111
         1         6         5        13     9        0.000000        0.053115         1    ;  uncertainty k = 0.166640
         1         6         5        13     9      180.000000        7.474795         2    ;  uncertainty k = 0.393031
         1         6         5        13     9        0.000000        1.484584         3    ;  uncertainty k = 0.211240
         1         6         5        13     9      180.000000        1.802693         4    ;  uncertainty k = 0.144038
         1         7         8         9     9        0.000000       -2.895662         1    ;  uncertainty k = 0.358324
         1         7         8         9     9      180.000000       -0.062908         2    ;  uncertainty k = 0.139967
         1         7         8         9     9        0.000000        1.793240         3    ;  uncertainty k = 0.142929
         1         7         8         9     9      180.000000       -0.204985         4    ;  uncertainty k = 0.113059
         1         7         8        17     9        0.000000        0.385485         1    ;  uncertainty k = 0.114535
         1         7         8        17     9      180.000000       -0.329672         2    ;  uncertainty k = 0.149819
         1         7         8        17     9        0.000000        1.162226         3    ;  uncertainty k = 0.049268
         1         7         8        17     9      180.000000       -0.002878         4    ;  uncertainty k = 0.029679
         1         7         8        18     9        0.000000        0.385485         1    ;  uncertainty k = 0.114535
         1         7         8        18     9      180.000000       -0.329672         2    ;  uncertainty k = 0.149819
         1         7         8        18     9        0.000000        1.162226         3    ;  uncertainty k = 0.049268
         1         7         8        18     9      180.000000       -0.002878         4    ;  uncertainty k = 0.029679
         2         1         6         5     9        0.000000       -0.197694         1    ;  uncertainty k = 0.147135
         2         1         6         5     9      180.000000       11.678100         2    ;  uncertainty k = 0.398238
         2         1         6         5     9        0.000000       -0.425273         3    ;  uncertainty k = 0.337487
         2         1         6         5     9      180.000000        0.763989         4    ;  uncertainty k = 0.405471
         2         1         6        14     9        0.000000        0.123976         1    ;  uncertainty k = 0.156721
         2         1         6        14     9      180.000000        7.163468         2    ;  uncertainty k = 0.501364
         2         1         6        14     9        0.000000        1.460883         3    ;  uncertainty k = 0.337620
         2         1         6        14     9      180.000000        1.632371         4    ;  uncertainty k = 0.140718
         2         1         7         8     9        0.000000       -0.474179         1    ;  uncertainty k = 0.362767
         2         1         7         8     9      180.000000        1.662240         2    ;  uncertainty k = 0.212451
         2         1         7         8     9        0.000000        0.546996         3    ;  uncertainty k = 0.103927
         2         1         7         8     9      180.000000        0.453956         4    ;  uncertainty k = 0.022440
         2         1         7        15     9        0.000000        0.022408         1    ;  uncertainty k = 0.305663
         2         1         7        15     9      180.000000        1.816251         2    ;  uncertainty k = 0.183232
         2         1         7        15     9        0.000000        0.408199         3    ;  uncertainty k = 0.060632
         2         1         7        15     9      180.000000        0.203023         4    ;  uncertainty k = 0.031668
         2         1         7        16     9        0.000000        0.022408         1    ;  uncertainty k = 0.305663
         2         1         7        16     9      180.000000        1.816251         2    ;  uncertainty k = 0.183232
         2         1         7        16     9        0.000000        0.408199         3    ;  uncertainty k = 0.060632
         2         1         7        16     9      180.000000        0.203023         4    ;  uncertainty k = 0.031668
         2         3         4         5     9        0.000000        0.008703         1    ;  uncertainty k = 0.050772
         2         3         4         5     9      180.000000       15.046028         2    ;  uncertainty k = 0.277330
         2         3         4         5     9        0.000000       -1.246691         3    ;  uncertainty k = 0.519222
         2         3         4         5     9      180.000000        0.482905         4    ;  uncertainty k = 0.303364
         2         3         4        12     9        0.000000        0.059329         1    ;  uncertainty k = 0.062171
         2         3         4        12     9      180.000000        7.509835         2    ;  uncertainty k = 0.371213
         2         3         4        12     9        0.000000        1.460519         3    ;  uncertainty k = 0.299639
         2         3         4        12     9      180.000000        1.795198         4    ;  uncertainty k = 0.183074
         3         2         1         6     9        0.000000       -0.197694         1    ;  uncertainty k = 0.147135
         3         2         1         6     9      180.000000       11.678100         2    ;  uncertainty k = 0.398238
         3         2         1         6     9        0.000000       -0.425273         3    ;  uncertainty k = 0.337487
         3         2         1         6     9      180.000000        0.763989         4    ;  uncertainty k = 0.405471
         3         2         1         7     9        0.000000        0.214496         1    ;  uncertainty k = 0.293191
         3         2         1         7     9      180.000000        9.249924         2    ;  uncertainty k = 0.428027
         3         2         1         7     9        0.000000        1.404263         3    ;  uncertainty k = 0.362219
         3         2         1         7     9      180.000000        1.817790         4    ;  uncertainty k = 0.196853
         3         4         5         6     9        0.000000        0.008703         1    ;  uncertainty k = 0.050772
         3         4         5         6     9      180.000000       15.046028         2    ;  uncertainty k = 0.277330
         3         4         5         6     9        0.000000       -1.246691         3    ;  uncertainty k = 0.519222
         3         4         5         6     9      180.000000        0.482905         4    ;  uncertainty k = 0.303364
         3         4         5        13     9        0.000000        0.061791         1    ;  uncertainty k = 0.040367
         3         4         5        13     9      180.000000        7.533637         2    ;  uncertainty k = 0.335061
         3         4         5        13     9        0.000000        1.445862         3    ;  uncertainty k = 0.325059
         3         4         5        13     9      180.000000        1.795809         4    ;  uncertainty k = 0.164033
         4         3         2        10     9        0.000000        0.078445         1    ;  uncertainty k = 0.071863
         4         3         2        10     9      180.000000        7.870133         2    ;  uncertainty k = 0.305806
         4         3         2        10     9        0.000000        1.451405         3    ;  uncertainty k = 0.313659
         4         3         2        10     9      180.000000        1.844420         4    ;  uncertainty k = 0.169238
         4         5         6        14     9        0.000000        0.078445         1    ;  uncertainty k = 0.071863
         4         5         6        14     9      180.000000        7.870133         2    ;  uncertainty k = 0.305806
         4         5         6        14     9        0.000000        1.451405         3    ;  uncertainty k = 0.313659
         4         5         6        14     9      180.000000        1.844420         4    ;  uncertainty k = 0.169238
         5         4         3        11     9        0.000000        0.061791         1    ;  uncertainty k = 0.040367
         5         4         3        11     9      180.000000        7.533637         2    ;  uncertainty k = 0.335061
         5         4         3        11     9        0.000000        1.445862         3    ;  uncertainty k = 0.325059
         5         4         3        11     9      180.000000        1.795809         4    ;  uncertainty k = 0.164033
         5         6         1         7     9        0.000000        0.214496         1    ;  uncertainty k = 0.293191
         5         6         1         7     9      180.000000        9.249924         2    ;  uncertainty k = 0.428027
         5         6         1         7     9        0.000000        1.404263         3    ;  uncertainty k = 0.362219
         5         6         1         7     9      180.000000        1.817790         4    ;  uncertainty k = 0.196853
         6         1         2        10     9        0.000000        0.123976         1    ;  uncertainty k = 0.156721
         6         1         2        10     9      180.000000        7.163468         2    ;  uncertainty k = 0.501364
         6         1         2        10     9        0.000000        1.460883         3    ;  uncertainty k = 0.337620
         6         1         2        10     9      180.000000        1.632371         4    ;  uncertainty k = 0.140718
         6         1         7         8     9        0.000000       -0.474179         1    ;  uncertainty k = 0.362767
         6         1         7         8     9      180.000000        1.662240         2    ;  uncertainty k = 0.212451
         6         1         7         8     9        0.000000        0.546996         3    ;  uncertainty k = 0.103927
         6         1         7         8     9      180.000000        0.453956         4    ;  uncertainty k = 0.022440
         6         1         7        15     9        0.000000        0.022408         1    ;  uncertainty k = 0.305663
         6         1         7        15     9      180.000000        1.816251         2    ;  uncertainty k = 0.183232
         6         1         7        15     9        0.000000        0.408199         3    ;  uncertainty k = 0.060632
         6         1         7        15     9      180.000000        0.203023         4    ;  uncertainty k = 0.031668
         6         1         7        16     9        0.000000        0.022408         1    ;  uncertainty k = 0.305663
         6         1         7        16     9      180.000000        1.816251         2    ;  uncertainty k = 0.183232
         6         1         7        16     9        0.000000        0.408199         3    ;  uncertainty k = 0.060632
         6         1         7        16     9      180.000000        0.203023         4    ;  uncertainty k = 0.031668
         6         5         4        12     9        0.000000        0.059329         1    ;  uncertainty k = 0.062171
         6         5         4        12     9      180.000000        7.509835         2    ;  uncertainty k = 0.371213
         6         5         4        12     9        0.000000        1.460519         3    ;  uncertainty k = 0.299639
         6         5         4        12     9      180.000000        1.795198         4    ;  uncertainty k = 0.183074
         7         1         2        10     9        0.000000       -0.236058         1    ;  uncertainty k = 0.253370
         7         1         2        10     9      180.000000        7.752453         2    ;  uncertainty k = 0.176462
         7         1         2        10     9        0.000000        0.623999         3    ;  uncertainty k = 0.303409
         7         1         2        10     9      180.000000        1.008337         4    ;  uncertainty k = 0.195109
         7         1         6        14     9        0.000000       -0.236058         1    ;  uncertainty k = 0.253370
         7         1         6        14     9      180.000000        7.752453         2    ;  uncertainty k = 0.176462
         7         1         6        14     9        0.000000        0.623999         3    ;  uncertainty k = 0.303409
         7         1         6        14     9      180.000000        1.008337         4    ;  uncertainty k = 0.195109
         7         8         9        19     9        0.000000       -1.947486         1    ;  uncertainty k = 0.413853
         7         8         9        19     9      180.000000       -0.906910         2    ;  uncertainty k = 0.311491
         7         8         9        19     9        0.000000        1.439361         3    ;  uncertainty k = 0.094479
         7         8         9        19     9      180.000000       -0.304689         4    ;  uncertainty k = 0.045853
         7         8         9        20     9        0.000000       -1.947486         1    ;  uncertainty k = 0.413853
         7         8         9        20     9      180.000000       -0.906910         2    ;  uncertainty k = 0.311491
         7         8         9        20     9        0.000000        1.439361         3    ;  uncertainty k = 0.094479
         7         8         9        20     9      180.000000       -0.304689         4    ;  uncertainty k = 0.045853
         7         8         9        21     9        0.000000       -1.947486         1    ;  uncertainty k = 0.413853
         7         8         9        21     9      180.000000       -0.906910         2    ;  uncertainty k = 0.311491
         7         8         9        21     9        0.000000        1.439361         3    ;  uncertainty k = 0.094479
         7         8         9        21     9      180.000000       -0.304689         4    ;  uncertainty k = 0.045853
         9         8         7        15     9        0.000000       -2.317326         1    ;  uncertainty k = 0.335696
         9         8         7        15     9      180.000000       -0.004635         2    ;  uncertainty k = 0.135745
         9         8         7        15     9        0.000000        1.227911         3    ;  uncertainty k = 0.038831
         9         8         7        15     9      180.000000       -0.265855         4    ;  uncertainty k = 0.040040
         9         8         7        16     9        0.000000       -2.317326         1    ;  uncertainty k = 0.335696
         9         8         7        16     9      180.000000       -0.004635         2    ;  uncertainty k = 0.135745
         9         8         7        16     9        0.000000        1.227911         3    ;  uncertainty k = 0.038831
         9         8         7        16     9      180.000000       -0.265855         4    ;  uncertainty k = 0.040040
        10         2         3        11     9        0.000000       -0.035524         1    ;  uncertainty k = 0.092399
        10         2         3        11     9      180.000000        7.630383         2    ;  uncertainty k = 0.262455
        10         2         3        11     9        0.000000       -0.453036         3    ;  uncertainty k = 0.237945
        10         2         3        11     9      180.000000        0.092177         4    ;  uncertainty k = 0.101978
        11         3         4        12     9        0.000000       -0.006373         1    ;  uncertainty k = 0.088779
        11         3         4        12     9      180.000000        7.464233         2    ;  uncertainty k = 0.352345
        11         3         4        12     9        0.000000       -0.416733         3    ;  uncertainty k = 0.274619
        11         3         4        12     9      180.000000        0.051450         4    ;  uncertainty k = 0.138379
        12         4         5        13     9        0.000000       -0.006373         1    ;  uncertainty k = 0.088779
        12         4         5        13     9      180.000000        7.464233         2    ;  uncertainty k = 0.352345
        12         4         5        13     9        0.000000       -0.416733         3    ;  uncertainty k = 0.274619
        12         4         5        13     9      180.000000        0.051450         4    ;  uncertainty k = 0.138379
        13         5         6        14     9        0.000000       -0.035524         1    ;  uncertainty k = 0.092399
        13         5         6        14     9      180.000000        7.630383         2    ;  uncertainty k = 0.262455
        13         5         6        14     9        0.000000       -0.453036         3    ;  uncertainty k = 0.237945
        13         5         6        14     9      180.000000        0.092177         4    ;  uncertainty k = 0.101978
        15         7         8        17     9        0.000000        0.852390         1    ;  uncertainty k = 0.148261
        15         7         8        17     9      180.000000       -0.598250         2    ;  uncertainty k = 0.237874
        15         7         8        17     9        0.000000        0.154209         3    ;  uncertainty k = 0.050419
        15         7         8        17     9      180.000000       -0.023425         4    ;  uncertainty k = 0.042729
        15         7         8        18     9        0.000000        0.852390         1    ;  uncertainty k = 0.148261
        15         7         8        18     9      180.000000       -0.598250         2    ;  uncertainty k = 0.237874
        15         7         8        18     9        0.000000        0.154209         3    ;  uncertainty k = 0.050419
        15         7         8        18     9      180.000000       -0.023425         4    ;  uncertainty k = 0.042729
        16         7         8        17     9        0.000000        0.852390         1    ;  uncertainty k = 0.148261
        16         7         8        17     9      180.000000       -0.598250         2    ;  uncertainty k = 0.237874
        16         7         8        17     9        0.000000        0.154209         3    ;  uncertainty k = 0.050419
        16         7         8        17     9      180.000000       -0.023425         4    ;  uncertainty k = 0.042729
        16         7         8        18     9        0.000000        0.852390         1    ;  uncertainty k = 0.148261
        16         7         8        18     9      180.000000       -0.598250         2    ;  uncertainty k = 0.237874
        16         7         8        18     9        0.000000        0.154209         3    ;  uncertainty k = 0.050419
        16         7         8        18     9      180.000000       -0.023425         4    ;  uncertainty k = 0.042729
        17         8         9        19     9        0.000000        0.867065         1    ;  uncertainty k = 0.329673
        17         8         9        19     9      180.000000       -0.750496         2    ;  uncertainty k = 0.173165
        17         8         9        19     9        0.000000        0.566597         3    ;  uncertainty k = 0.019603
        17         8         9        19     9      180.000000       -0.020444         4    ;  uncertainty k = 0.049258
        17         8         9        20     9        0.000000        0.867065         1    ;  uncertainty k = 0.329673
        17         8         9        20     9      180.000000       -0.750496         2    ;  uncertainty k = 0.173165
        17         8         9        20     9        0.000000        0.566597         3    ;  uncertainty k = 0.019603
        17         8         9        20     9      180.000000       -0.020444         4    ;  uncertainty k = 0.049258
        17         8         9        21     9        0.000000        0.867065         1    ;  uncertainty k = 0.329673
        17         8         9        21     9      180.000000       -0.750496         2    ;  uncertainty k = 0.173165
        17         8         9        21     9        0.000000        0.566597         3    ;  uncertainty k = 0.019603
        17         8         9        21     9      180.000000       -0.020444         4    ;  uncertainty k = 0.049258
        18         8         9        19     9        0.000000        0.867065         1    ;  uncertainty k = 0.329673
        18         8         9        19     9      180.000000       -0.750496         2    ;  uncertainty k = 0.173165
        18         8         9        19     9        0.000000        0.566597         3    ;  uncertainty k = 0.019603
        18         8         9        19     9      180.000000       -0.020444         4    ;  uncertainty k = 0.049258
        18         8         9        20     9        0.000000        0.867065         1    ;  uncertainty k = 0.329673
        18         8         9        20     9      180.000000       -0.750496         2    ;  uncertainty k = 0.173165
        18         8         9        20     9        0.000000        0.566597         3    ;  uncertainty k = 0.019603
        18         8         9        20     9      180.000000       -0.020444         4    ;  uncertainty k = 0.049258
        18         8         9        21     9        0.000000        0.867065         1    ;  uncertainty k = 0.329673
        18         8         9        21     9      180.000000       -0.750496         2    ;  uncertainty k = 0.173165
        18         8         9        21     9        0.000000        0.566597         3    ;  uncertainty k = 0.019603
        18         8         9        21     9      180.000000       -0.020444         4    ;  uncertainty k = 0.049258

[ dihedrals ] ; impropers
;       ai        aj        ak        al funct           phase               k        pn
         1         2         6         7     4      180.000000       14.200819         2    ;  uncertainty k = 0.049907
         1         6         7         2     4      180.000000       14.200819         2    ;  uncertainty k = 0.049907
         1         7         2         6     4      180.000000       14.200819         2    ;  uncertainty k = 0.049907
         2         1         3        10     4      180.000000        4.098515         2    ;  uncertainty k = 0.094142
         2         3        10         1     4      180.000000        4.098515         2    ;  uncertainty k = 0.094142
         2        10         1         3     4      180.000000        4.098515         2    ;  uncertainty k = 0.094142
         3         2         4        11     4      180.000000        4.289022         2    ;  uncertainty k = 0.048653
         3         4        11         2     4      180.000000        4.289022         2    ;  uncertainty k = 0.048653
         3        11         2         4     4      180.000000        4.289022         2    ;  uncertainty k = 0.048653
         4         3         5        12     4      180.000000        4.333638         2    ;  uncertainty k = 0.163023
         4         5        12         3     4      180.000000        4.333638         2    ;  uncertainty k = 0.163023
         4        12         3         5     4      180.000000        4.333638         2    ;  uncertainty k = 0.163023
         5         4         6        13     4      180.000000        4.289018         2    ;  uncertainty k = 0.048653
         5         6        13         4     4      180.000000        4.289018         2    ;  uncertainty k = 0.048653
         5        13         4         6     4      180.000000        4.289018         2    ;  uncertainty k = 0.048653
         6         1         5        14     4      180.000000        4.098514         2    ;  uncertainty k = 0.094142
         6         5        14         1     4      180.000000        4.098514         2    ;  uncertainty k = 0.094142
         6        14         1         5     4      180.000000        4.098514         2    ;  uncertainty k = 0.094142

[ pairs ]
;       ai        aj funct
         1         4     1
         1         9     1
         1        11     1
         1        13     1
         1        17     1
         1        18     1
         2         5     1
         2         8     1
         2        12     1
         2        14     1
         2        15     1
         2        16     1
         3         6     1
         3         7     1
         3        13     1
         4        10     1
         4        14     1
         5         7     1
         5        11     1
         6         8     1
         6        10     1
         6        12     1
         6        15     1
         6        16     1
         7        10     1
         7        14     1
         7        19     1
         7        20     1
         7        21     1
         9        15     1
         9        16     1
        10        11     1
        11        12     1
        12        13     1
        13        14     1
        15        17     1
        15        18     1
        16        17     1
        16        18     1
        17        19     1
        17        20     1
        17        21     1
        18        19     1
        18        20     1
        18        21     1
