; ITP file created by ByteFF-ML, 2026-02-21 08:25:46.139272

[ atomtypes ]
;name           bonded.type        at.num        mass        charge   ptype           sigma         epsilon
 c0bf                                   6      0.0000       0.00000       A     3.31516e-01     4.11633e-01
 c1bf                                   6      0.0000       0.00000       A     3.31469e-01     4.12823e-01
 c2bf                                   6      0.0000       0.00000       A     3.31513e-01     4.12453e-01
 c3bf                                   6      0.0000       0.00000       A     3.31446e-01     4.15754e-01
 c4bf                                   6      0.0000       0.00000       A     3.31246e-01     4.10396e-01
 c5bf                                   6      0.0000       0.00000       A     3.31459e-01     4.12049e-01
 c6bf                                   6      0.0000       0.00000       A     3.31385e-01     4.12672e-01
 c7bf                                   6      0.0000       0.00000       A     3.31469e-01     4.12823e-01
 c8bf                                   6      0.0000       0.00000       A     3.31444e-01     4.13066e-01
 c9bf                                   6      0.0000       0.00000       A     3.31513e-01     4.12453e-01
 cl10bf                                17      0.0000       0.00000       A     3.46557e-01     1.10332e+00
 o11bf                                  8      0.0000       0.00000       A     3.04688e-01     6.11596e-01
 n12bf                                  7      0.0000       0.00000       A     3.27190e-01     4.85938e-01
 n13bf                                  7      0.0000       0.00000       A     3.38301e-01     3.93161e-01
 c14bf                                  6      0.0000       0.00000       A     3.31582e-01     4.14394e-01
 c15bf                                  6      0.0000       0.00000       A     3.31296e-01     4.14510e-01
 n16bf                                  7      0.0000       0.00000       A     3.26884e-01     4.85028e-01
 c17bf                                  6      0.0000       0.00000       A     3.31538e-01     4.11719e-01
 o18bf                                  8      0.0000       0.00000       A     3.04740e-01     6.12849e-01
 cl19bf                                17      0.0000       0.00000       A     3.46557e-01     1.10332e+00
 h20bf                                  1      0.0000       0.00000       A     2.62472e-01     6.72807e-02
 h21bf                                  1      0.0000       0.00000       A     2.62569e-01     6.73892e-02
 h22bf                                  1      0.0000       0.00000       A     2.53603e-01     6.75872e-02
 h23bf                                  1      0.0000       0.00000       A     2.62442e-01     6.71179e-02
 h24bf                                  1      0.0000       0.00000       A     2.62472e-01     6.72807e-02
 h25bf                                  1      0.0000       0.00000       A     1.10552e-01     4.15186e-02
 h26bf                                  1      0.0000       0.00000       A     2.62698e-01     6.80197e-02
 h27bf                                  1      0.0000       0.00000       A     1.10419e-01     4.10669e-02
 h28bf                                  1      0.0000       0.00000       A     2.59736e-01     8.67927e-02
 c29bf                                  6      0.0000       0.00000       A     3.39943e-01     4.53887e-01
 c30bf                                  6      0.0000       0.00000       A     3.39894e-01     4.51086e-01
 c31bf                                  6      0.0000       0.00000       A     3.39770e-01     4.51546e-01
 c32bf                                  6      0.0000       0.00000       A     3.39894e-01     4.51086e-01
 h33bf                                  1      0.0000       0.00000       A     2.60049e-01     8.79099e-02
 h34bf                                  1      0.0000       0.00000       A     2.60049e-01     8.79099e-02
 h35bf                                  1      0.0000       0.00000       A     2.60089e-01     8.74183e-02
 h36bf                                  1      0.0000       0.00000       A     2.60089e-01     8.74183e-02
 h37bf                                  1      0.0000       0.00000       A     2.60049e-01     8.79099e-02
 h38bf                                  1      0.0000       0.00000       A     2.60049e-01     8.79115e-02

[ moleculetype ]
;name             nrexcl
 ejm_47                3

[ atoms ]
;       nr            type      resi   res      atom      cgnr      charge          mass ; qtot
         1            c0bf         1   UNL        c0         1    -0.13969       12.0110 ; qtot   -0.140
         2            c1bf         1   UNL        c1         2     0.15319       12.0110 ; qtot    0.013
         3            c2bf         1   UNL        c2         3    -0.10353       12.0110 ; qtot   -0.090
         4            c3bf         1   UNL        c3         4     0.03995       12.0110 ; qtot   -0.050
         5            c4bf         1   UNL        c4         5     0.63693       12.0110 ; qtot    0.587
         6            c5bf         1   UNL        c5         6    -0.22521       12.0110 ; qtot    0.362
         7            c6bf         1   UNL        c6         7     0.38995       12.0110 ; qtot    0.752
         8            c7bf         1   UNL        c7         8     0.15319       12.0110 ; qtot    0.905
         9            c8bf         1   UNL        c8         9    -0.08095       12.0110 ; qtot    0.824
        10            c9bf         1   UNL        c9        10    -0.10353       12.0110 ; qtot    0.720
        11          cl10bf         1   UNL      cl10        11    -0.18538       35.4530 ; qtot    0.535
        12           o11bf         1   UNL       o11        12    -0.54820       15.9990 ; qtot   -0.013
        13           n12bf         1   UNL       n12        13    -0.14723       14.0070 ; qtot   -0.161
        14           n13bf         1   UNL       n13        14    -0.71854       14.0070 ; qtot   -0.879
        15           c14bf         1   UNL       c14        15     0.49023       12.0110 ; qtot   -0.389
        16           c15bf         1   UNL       c15        16    -0.21856       12.0110 ; qtot   -0.607
        17           n16bf         1   UNL       n16        17    -0.32624       14.0070 ; qtot   -0.934
        18           c17bf         1   UNL       c17        18     0.62131       12.0110 ; qtot   -0.312
        19           o18bf         1   UNL       o18        19    -0.56413       15.9990 ; qtot   -0.876
        20          cl19bf         1   UNL      cl19        20    -0.18538       35.4530 ; qtot   -1.062
        21           h20bf         1   UNL       h20        21     0.13919        1.0080 ; qtot   -0.923
        22           h21bf         1   UNL       h21        22     0.14093        1.0080 ; qtot   -0.782
        23           h22bf         1   UNL       h22        23     0.02391        1.0080 ; qtot   -0.758
        24           h23bf         1   UNL       h23        24     0.12973        1.0080 ; qtot   -0.628
        25           h24bf         1   UNL       h24        25     0.13919        1.0080 ; qtot   -0.489
        26           h25bf         1   UNL       h25        26     0.17125        1.0080 ; qtot   -0.318
        27           h26bf         1   UNL       h26        27     0.15931        1.0080 ; qtot   -0.158
        28           h27bf         1   UNL       h27        28     0.16599        1.0080 ; qtot    0.008
        29           h28bf         1   UNL       h28        29     0.07388        1.0080 ; qtot    0.082
        30           c29bf         1   UNL       c29        30    -0.17840       12.0110 ; qtot   -0.097
        31           c30bf         1   UNL       c30        31    -0.07387       12.0110 ; qtot   -0.171
        32           c31bf         1   UNL       c31        32    -0.09029       12.0110 ; qtot   -0.261
        33           c32bf         1   UNL       c32        33    -0.07387       12.0110 ; qtot   -0.335
        34           h33bf         1   UNL       h33        34     0.05737        1.0080 ; qtot   -0.277
        35           h34bf         1   UNL       h34        35     0.05737        1.0080 ; qtot   -0.220
        36           h35bf         1   UNL       h35        36     0.05270        1.0080 ; qtot   -0.167
        37           h36bf         1   UNL       h36        37     0.05270        1.0080 ; qtot   -0.115
        38           h37bf         1   UNL       h37        38     0.05737        1.0080 ; qtot   -0.057
        39           h38bf         1   UNL       h38        39     0.05736        1.0080 ; qtot    0.000

[ bonds ]
;       ai        aj funct               r               k
         1         2     1        0.140153   273317.935791
         1         5     1        0.151711   166028.776025
         1         8     1        0.140153   273317.935791
         2         3     1        0.139601   303384.741016
         2        11     1        0.175680   146917.122583
         3         9     1        0.139552   310746.655518
         3        21     1        0.108433   325893.481201
         4         6     1        0.140513   286751.119287
         4        13     1        0.140524   250238.798730
         4        16     1        0.139968   297928.533301
         5        12     1        0.122463   630902.561133
         5        13     1        0.137080   280552.062598
         6         7     1        0.139256   310098.600293
         6        22     1        0.108288   328862.757520
         7        14     1        0.133868   332420.153467
         7        23     1        0.108846   313284.405762
         8        10     1        0.139601   303384.741016
         8        20     1        0.175680   146917.122583
         9        10     1        0.139552   310746.655518
         9        24     1        0.108532   324260.434131
        10        25     1        0.108433   325893.481201
        13        26     1        0.101272   414819.901562
        14        15     1        0.133835   296418.830469
        15        16     1        0.140307   277476.219922
        15        17     1        0.140584   239771.801563
        16        27     1        0.108098   332573.912402
        17        18     1        0.138317   240760.675049
        17        28     1        0.101309   415648.606299
        18        19     1        0.122641   621448.927539
        18        30     1        0.151611   172079.398267
        29        30     1        0.109387   299968.795117
        30        31     1        0.156173   152105.203418
        30        33     1        0.156173   152105.203418
        31        32     1        0.155479   167634.140869
        31        34     1        0.109290   303970.689990
        31        35     1        0.109290   303970.689990
        32        33     1        0.155479   167634.140869
        32        36     1        0.109293   304731.823535
        32        37     1        0.109293   304731.823535
        33        38     1        0.109290   303970.689990
        33        39     1        0.109290   303970.664453

[ angles ]
;       ai        aj        ak funct           theta             cth
         1         2         3     1      121.751663      655.182951
         1         2        11     1      119.792053      319.960508
         1         5        12     1      120.784958      604.796191
         1         5        13     1      113.460876      443.006218
         1         8        10     1      121.751663      655.182951
         1         8        20     1      119.792053      319.960508
         2         1         5     1      121.186684      614.373182
         2         1         8     1      117.581833      636.725686
         2         3         9     1      119.116493      651.293458
         2         3        21     1      119.837120      399.290326
         3         2        11     1      118.196632      386.667652
         3         9        10     1      120.469688      692.783152
         3         9        24     1      119.783386      428.127021
         4         6         7     1      117.801376      807.940832
         4         6        22     1      121.420532      455.652322
         4        13         5     1      128.688263      489.007969
         4        13        26     1      115.373009      446.250676
         4        16        15     1      117.957436      853.342748
         4        16        27     1      120.930954      420.248376
         5         1         8     1      121.186684      614.373182
         5        13        26     1      116.072533      474.421268
         6         4        13     1      120.826538      611.104879
         6         4        16     1      118.439621      586.301323
         6         7        14     1      124.734764      697.842309
         6         7        23     1      119.546288      417.474184
         7         6        22     1      120.837181      432.142604
         7        14        15     1      117.115982      784.762458
         8        10         9     1      119.116493      651.293458
         8        10        25     1      119.837120      399.290326
         9         3        21     1      120.963661      425.124974
         9        10        25     1      120.963661      425.124974
        10         8        20     1      118.196632      386.667652
        10         9        24     1      119.783386      428.127021
        12         5        13     1      125.471703      605.741958
        13         4        16     1      120.227356      500.398956
        14         7        23     1      115.661728      406.047030
        14        15        16     1      123.861107      583.343998
        14        15        17     1      113.912720      631.352806
        15        16        27     1      120.231834      445.940049
        15        17        18     1      129.003342      535.351693
        15        17        28     1      113.107788      457.805452
        16        15        17     1      121.185425      484.254683
        17        18        19     1      123.908401      649.140616
        17        18        30     1      113.949402      450.526545
        18        17        28     1      117.386169      419.707404
        18        30        29     1      110.340431      506.460700
        18        30        31     1      116.130638      544.958467
        18        30        33     1      116.130638      544.958467
        19        18        30     1      122.434837      585.307865
        29        30        31     1      112.096680      423.321097
        29        30        33     1      112.096680      423.321097
        30        31        32     1       88.942696      493.977139
        30        31        34     1      113.648643      432.818507
        30        31        35     1      113.648643      432.818507
        30        33        32     1       88.942696      493.977139
        30        33        38     1      113.648643      432.818507
        30        33        39     1      113.648643      432.818507
        31        30        33     1       88.232826      393.543263
        31        32        33     1       88.866943      497.343696
        31        32        36     1      114.491356      449.864592
        31        32        37     1      114.491356      449.864592
        32        31        34     1      114.965103      440.335100
        32        31        35     1      114.965103      440.335100
        32        33        38     1      114.965103      440.335100
        32        33        39     1      114.965103      440.335100
        33        32        36     1      114.491356      449.864592
        33        32        37     1      114.491356      449.864592
        34        31        35     1      109.059570      355.922919
        36        32        37     1      108.790016      359.201661
        38        33        39     1      109.059570      355.922887

[ dihedrals ] ; propers for gromacs 4.5 or higher, use funct 9
;       ai        aj        ak        al funct           phase               k        pn
         1         2         3         9     9        0.000000       -0.076454         1
         1         2         3         9     9      180.000000       18.378655         2
         1         2         3         9     9        0.000000       -1.485477         3
         1         2         3         9     9      180.000000       -0.443965         4
         1         2         3        21     9        0.000000       -0.051695         1
         1         2         3        21     9      180.000000       13.896893         2
         1         2         3        21     9        0.000000       -0.582597         3
         1         2         3        21     9      180.000000        0.104501         4
         1         5        13         4     9        0.000000        1.943510         1
         1         5        13         4     9      180.000000        8.245869         2
         1         5        13         4     9        0.000000        0.553648         3
         1         5        13         4     9      180.000000       -0.727358         4
         1         5        13        26     9        0.000000        0.256954         1
         1         5        13        26     9      180.000000        8.497290         2
         1         5        13        26     9        0.000000       -0.416932         3
         1         5        13        26     9      180.000000        0.234809         4
         1         8        10         9     9        0.000000       -0.076454         1
         1         8        10         9     9      180.000000       18.378655         2
         1         8        10         9     9        0.000000       -1.485477         3
         1         8        10         9     9      180.000000       -0.443965         4
         1         8        10        25     9        0.000000       -0.051695         1
         1         8        10        25     9      180.000000       13.896893         2
         1         8        10        25     9        0.000000       -0.582597         3
         1         8        10        25     9      180.000000        0.104501         4
         2         1         5        12     9        0.000000       -2.052614         1
         2         1         5        12     9      180.000000        1.139086         2
         2         1         5        12     9        0.000000        0.054306         3
         2         1         5        12     9      180.000000       -0.099915         4
         2         1         5        13     9        0.000000        0.440757         1
         2         1         5        13     9      180.000000       -0.113254         2
         2         1         5        13     9        0.000000        0.438440         3
         2         1         5        13     9      180.000000       -0.175863         4
         2         1         8        10     9        0.000000       -0.232741         1
         2         1         8        10     9      180.000000       16.722108         2
         2         1         8        10     9        0.000000       -1.528985         3
         2         1         8        10     9      180.000000       -0.338205         4
         2         1         8        20     9        0.000000        0.390197         1
         2         1         8        20     9      180.000000       17.596084         2
         2         1         8        20     9        0.000000        0.390763         3
         2         1         8        20     9      180.000000       -0.617838         4
         2         3         9        10     9        0.000000       -0.096937         1
         2         3         9        10     9      180.000000       18.601608         2
         2         3         9        10     9        0.000000       -1.549844         3
         2         3         9        10     9      180.000000       -0.460936         4
         2         3         9        24     9        0.000000        0.064500         1
         2         3         9        24     9      180.000000       14.350299         2
         2         3         9        24     9        0.000000       -0.619285         3
         2         3         9        24     9      180.000000        0.031010         4
         3         2         1         5     9        0.000000        0.221282         1
         3         2         1         5     9      180.000000       13.281605         2
         3         2         1         5     9        0.000000       -0.048385         3
         3         2         1         5     9      180.000000       -0.286210         4
         3         2         1         8     9        0.000000       -0.232741         1
         3         2         1         8     9      180.000000       16.722108         2
         3         2         1         8     9        0.000000       -1.528985         3
         3         2         1         8     9      180.000000       -0.338205         4
         3         9        10         8     9        0.000000       -0.096937         1
         3         9        10         8     9      180.000000       18.601608         2
         3         9        10         8     9        0.000000       -1.549844         3
         3         9        10         8     9      180.000000       -0.460936         4
         3         9        10        25     9        0.000000        0.044045         1
         3         9        10        25     9      180.000000       14.360883         2
         3         9        10        25     9        0.000000       -0.708188         3
         3         9        10        25     9      180.000000        0.127882         4
         4         6         7        14     9        0.000000       -0.103739         1
         4         6         7        14     9      180.000000       18.782047         2
         4         6         7        14     9        0.000000       -1.120002         3
         4         6         7        14     9      180.000000       -0.632748         4
         4         6         7        23     9        0.000000        0.173211         1
         4         6         7        23     9      180.000000       14.523484         2
         4         6         7        23     9        0.000000       -0.533298         3
         4         6         7        23     9      180.000000       -0.020321         4
         4        13         5        12     9        0.000000       -0.902764         1
         4        13         5        12     9      180.000000        9.869690         2
         4        13         5        12     9        0.000000        0.328250         3
         4        13         5        12     9      180.000000       -0.852134         4
         4        16        15        14     9        0.000000        0.112677         1
         4        16        15        14     9      180.000000       13.236019         2
         4        16        15        14     9        0.000000       -0.303529         3
         4        16        15        14     9      180.000000       -0.362087         4
         4        16        15        17     9        0.000000        0.483748         1
         4        16        15        17     9      180.000000       15.850690         2
         4        16        15        17     9        0.000000        0.297403         3
         4        16        15        17     9      180.000000       -0.552953         4
         5         1         2        11     9        0.000000        0.372587         1
         5         1         2        11     9      180.000000       14.761763         2
         5         1         2        11     9        0.000000        0.512397         3
         5         1         2        11     9      180.000000       -0.697437         4
         5         1         8        10     9        0.000000        0.221282         1
         5         1         8        10     9      180.000000       13.281605         2
         5         1         8        10     9        0.000000       -0.048385         3
         5         1         8        10     9      180.000000       -0.286210         4
         5         1         8        20     9        0.000000        0.372587         1
         5         1         8        20     9      180.000000       14.761763         2
         5         1         8        20     9        0.000000        0.512397         3
         5         1         8        20     9      180.000000       -0.697437         4
         5        13         4         6     9        0.000000       -0.079836         1
         5        13         4         6     9      180.000000        2.906425         2
         5        13         4         6     9        0.000000       -0.037766         3
         5        13         4         6     9      180.000000        0.090064         4
         5        13         4        16     9        0.000000        0.006488         1
         5        13         4        16     9      180.000000        2.896725         2
         5        13         4        16     9        0.000000       -0.059209         3
         5        13         4        16     9      180.000000        0.086657         4
         6         4        13        26     9        0.000000        0.349725         1
         6         4        13        26     9      180.000000        3.679210         2
         6         4        13        26     9        0.000000        0.254809         3
         6         4        13        26     9      180.000000        0.088175         4
         6         4        16        15     9        0.000000       -0.040508         1
         6         4        16        15     9      180.000000       15.909768         2
         6         4        16        15     9        0.000000       -1.091428         3
         6         4        16        15     9      180.000000       -0.320710         4
         6         4        16        27     9        0.000000       -0.014450         1
         6         4        16        27     9      180.000000       13.032226         2
         6         4        16        27     9        0.000000       -0.459844         3
         6         4        16        27     9      180.000000        0.183605         4
         6         7        14        15     9        0.000000       -0.029733         1
         6         7        14        15     9      180.000000       21.571641         2
         6         7        14        15     9        0.000000       -0.762961         3
         6         7        14        15     9      180.000000       -0.104461         4
         7         6         4        13     9        0.000000        0.368706         1
         7         6         4        13     9      180.000000       17.250912         2
         7         6         4        13     9        0.000000        0.281694         3
         7         6         4        13     9      180.000000       -0.473227         4
         7         6         4        16     9        0.000000        0.080950         1
         7         6         4        16     9      180.000000       16.605699         2
         7         6         4        16     9        0.000000       -1.248476         3
         7         6         4        16     9      180.000000       -0.357350         4
         7        14        15        16     9        0.000000        0.371956         1
         7        14        15        16     9      180.000000       22.305717         2
         7        14        15        16     9        0.000000       -0.102577         3
         7        14        15        16     9      180.000000       -0.203574         4
         7        14        15        17     9        0.000000        0.447723         1
         7        14        15        17     9      180.000000       29.476228         2
         7        14        15        17     9        0.000000        0.721558         3
         7        14        15        17     9      180.000000       -0.700095         4
         8         1         2        11     9        0.000000        0.390197         1
         8         1         2        11     9      180.000000       17.596084         2
         8         1         2        11     9        0.000000        0.390763         3
         8         1         2        11     9      180.000000       -0.617838         4
         8         1         5        12     9        0.000000       -2.052614         1
         8         1         5        12     9      180.000000        1.139086         2
         8         1         5        12     9        0.000000        0.054306         3
         8         1         5        12     9      180.000000       -0.099915         4
         8         1         5        13     9        0.000000        0.440757         1
         8         1         5        13     9      180.000000       -0.113254         2
         8         1         5        13     9        0.000000        0.438440         3
         8         1         5        13     9      180.000000       -0.175863         4
         8        10         9        24     9        0.000000        0.064500         1
         8        10         9        24     9      180.000000       14.350299         2
         8        10         9        24     9        0.000000       -0.619285         3
         8        10         9        24     9      180.000000        0.031010         4
         9         3         2        11     9        0.000000        0.358058         1
         9         3         2        11     9      180.000000       20.681090         2
         9         3         2        11     9        0.000000        0.483238         3
         9         3         2        11     9      180.000000       -0.652499         4
         9        10         8        20     9        0.000000        0.358058         1
         9        10         8        20     9      180.000000       20.681090         2
         9        10         8        20     9        0.000000        0.483238         3
         9        10         8        20     9      180.000000       -0.652499         4
        10         9         3        21     9        0.000000        0.044045         1
        10         9         3        21     9      180.000000       14.360883         2
        10         9         3        21     9        0.000000       -0.708188         3
        10         9         3        21     9      180.000000        0.127882         4
        11         2         3        21     9        0.000000        0.034849         1
        11         2         3        21     9      180.000000       14.545328         2
        11         2         3        21     9        0.000000        0.037854         3
        11         2         3        21     9      180.000000        0.281396         4
        12         5        13        26     9        0.000000        0.189371         1
        12         5        13        26     9      180.000000       11.938538         2
        12         5        13        26     9        0.000000        0.390839         3
        12         5        13        26     9      180.000000        0.857293         4
        13         4         6        22     9        0.000000       -0.139266         1
        13         4         6        22     9      180.000000       13.649156         2
        13         4         6        22     9        0.000000       -0.068755         3
        13         4         6        22     9      180.000000        0.190415         4
        13         4        16        15     9        0.000000        0.316284         1
        13         4        16        15     9      180.000000       16.807157         2
        13         4        16        15     9        0.000000        0.155916         3
        13         4        16        15     9      180.000000       -0.535956         4
        13         4        16        27     9        0.000000       -0.210834         1
        13         4        16        27     9      180.000000       13.870172         2
        13         4        16        27     9        0.000000       -0.144101         3
        13         4        16        27     9      180.000000        0.223927         4
        14         7         6        22     9        0.000000        0.152296         1
        14         7         6        22     9      180.000000       15.687861         2
        14         7         6        22     9        0.000000       -0.239499         3
        14         7         6        22     9      180.000000       -0.127016         4
        14        15        16        27     9        0.000000       -0.122301         1
        14        15        16        27     9      180.000000       11.612694         2
        14        15        16        27     9        0.000000       -0.156885         3
        14        15        16        27     9      180.000000       -0.185129         4
        14        15        17        18     9        0.000000       -2.685300         1
        14        15        17        18     9      180.000000        4.680704         2
        14        15        17        18     9        0.000000        0.334034         3
        14        15        17        18     9      180.000000       -0.110605         4
        14        15        17        28     9        0.000000        2.063540         1
        14        15        17        28     9      180.000000        3.912931         2
        14        15        17        28     9        0.000000        0.161310         3
        14        15        17        28     9      180.000000       -0.268172         4
        15        14         7        23     9        0.000000        1.518094         1
        15        14         7        23     9      180.000000       20.380596         2
        15        14         7        23     9        0.000000        0.206034         3
        15        14         7        23     9      180.000000       -0.215649         4
        15        17        18        19     9        0.000000       -0.174686         1
        15        17        18        19     9      180.000000        9.493562         2
        15        17        18        19     9        0.000000       -0.174303         3
        15        17        18        19     9      180.000000       -0.261703         4
        15        17        18        30     9        0.000000        0.395194         1
        15        17        18        30     9      180.000000        8.511770         2
        15        17        18        30     9        0.000000        0.071934         3
        15        17        18        30     9      180.000000       -0.340874         4
        16         4         6        22     9        0.000000        0.125048         1
        16         4         6        22     9      180.000000       13.178304         2
        16         4         6        22     9        0.000000       -0.483904         3
        16         4         6        22     9      180.000000        0.120548         4
        16         4        13        26     9        0.000000        0.982730         1
        16         4        13        26     9      180.000000        3.696324         2
        16         4        13        26     9        0.000000        0.263607         3
        16         4        13        26     9      180.000000        0.083256         4
        16        15        17        18     9        0.000000        0.474385         1
        16        15        17        18     9      180.000000        2.875948         2
        16        15        17        18     9        0.000000       -0.015580         3
        16        15        17        18     9      180.000000        0.087981         4
        16        15        17        28     9        0.000000        0.668452         1
        16        15        17        28     9      180.000000        4.830193         2
        16        15        17        28     9        0.000000        0.773309         3
        16        15        17        28     9      180.000000       -0.121380         4
        17        15        16        27     9        0.000000        0.111707         1
        17        15        16        27     9      180.000000       13.141074         2
        17        15        16        27     9        0.000000       -0.224883         3
        17        15        16        27     9      180.000000        0.152654         4
        17        18        30        29     9        0.000000       -0.419131         1
        17        18        30        29     9      180.000000        0.185695         2
        17        18        30        29     9        0.000000       -0.303817         3
        17        18        30        29     9      180.000000        0.027480         4
        17        18        30        31     9        0.000000        0.525856         1
        17        18        30        31     9      180.000000       -0.175809         2
        17        18        30        31     9        0.000000       -0.228397         3
        17        18        30        31     9      180.000000        0.150027         4
        17        18        30        33     9        0.000000        0.525856         1
        17        18        30        33     9      180.000000       -0.175809         2
        17        18        30        33     9        0.000000       -0.228397         3
        17        18        30        33     9      180.000000        0.150027         4
        18        30        31        32     9        0.000000       -0.132800         1
        18        30        31        32     9      180.000000        2.108495         2
        18        30        31        32     9        0.000000        0.846203         3
        18        30        31        32     9      180.000000        2.396874         4
        18        30        31        34     9        0.000000        0.171100         1
        18        30        31        34     9      180.000000       -0.521739         2
        18        30        31        34     9        0.000000        1.441843         3
        18        30        31        34     9      180.000000       -0.067821         4
        18        30        31        35     9        0.000000        0.171100         1
        18        30        31        35     9      180.000000       -0.521739         2
        18        30        31        35     9        0.000000        1.441843         3
        18        30        31        35     9      180.000000       -0.067821         4
        18        30        33        32     9        0.000000       -0.132800         1
        18        30        33        32     9      180.000000        2.108495         2
        18        30        33        32     9        0.000000        0.846203         3
        18        30        33        32     9      180.000000        2.396874         4
        18        30        33        38     9        0.000000        0.171100         1
        18        30        33        38     9      180.000000       -0.521739         2
        18        30        33        38     9        0.000000        1.441843         3
        18        30        33        38     9      180.000000       -0.067821         4
        18        30        33        39     9        0.000000        0.171100         1
        18        30        33        39     9      180.000000       -0.521739         2
        18        30        33        39     9        0.000000        1.441843         3
        18        30        33        39     9      180.000000       -0.067821         4
        19        18        17        28     9        0.000000       -0.510374         1
        19        18        17        28     9      180.000000       10.702099         2
        19        18        17        28     9        0.000000        0.164561         3
        19        18        17        28     9      180.000000        0.964599         4
        19        18        30        29     9        0.000000        0.797575         1
        19        18        30        29     9      180.000000       -0.100434         2
        19        18        30        29     9        0.000000       -0.040646         3
        19        18        30        29     9      180.000000       -0.063028         4
        19        18        30        31     9        0.000000       -1.364238         1
        19        18        30        31     9      180.000000        0.143766         2
        19        18        30        31     9        0.000000       -0.051455         3
        19        18        30        31     9      180.000000        0.245888         4
        19        18        30        33     9        0.000000       -1.364238         1
        19        18        30        33     9      180.000000        0.143766         2
        19        18        30        33     9        0.000000       -0.051455         3
        19        18        30        33     9      180.000000        0.245888         4
        20         8        10        25     9        0.000000        0.034849         1
        20         8        10        25     9      180.000000       14.545328         2
        20         8        10        25     9        0.000000        0.037854         3
        20         8        10        25     9      180.000000        0.281396         4
        21         3         9        24     9        0.000000       -0.249552         1
        21         3         9        24     9      180.000000       11.261506         2
        21         3         9        24     9        0.000000       -0.621949         3
        21         3         9        24     9      180.000000        0.273003         4
        22         6         7        23     9        0.000000        0.015584         1
        22         6         7        23     9      180.000000       11.951684         2
        22         6         7        23     9        0.000000       -0.725462         3
        22         6         7        23     9      180.000000        0.280129         4
        24         9        10        25     9        0.000000       -0.249552         1
        24         9        10        25     9      180.000000       11.261506         2
        24         9        10        25     9        0.000000       -0.621949         3
        24         9        10        25     9      180.000000        0.273003         4
        28        17        18        30     9        0.000000        2.790754         1
        28        17        18        30     9      180.000000        9.819400         2
        28        17        18        30     9        0.000000       -0.036233         3
        28        17        18        30     9      180.000000        0.479163         4
        29        30        31        32     9        0.000000        0.264850         1
        29        30        31        32     9      180.000000        1.271656         2
        29        30        31        32     9        0.000000        0.364019         3
        29        30        31        32     9      180.000000        1.487120         4
        29        30        31        34     9        0.000000       -0.172977         1
        29        30        31        34     9      180.000000       -0.267581         2
        29        30        31        34     9        0.000000        1.000702         3
        29        30        31        34     9      180.000000       -0.084180         4
        29        30        31        35     9        0.000000       -0.172977         1
        29        30        31        35     9      180.000000       -0.267581         2
        29        30        31        35     9        0.000000        1.000702         3
        29        30        31        35     9      180.000000       -0.084180         4
        29        30        33        32     9        0.000000        0.264850         1
        29        30        33        32     9      180.000000        1.271656         2
        29        30        33        32     9        0.000000        0.364019         3
        29        30        33        32     9      180.000000        1.487120         4
        29        30        33        38     9        0.000000       -0.172977         1
        29        30        33        38     9      180.000000       -0.267581         2
        29        30        33        38     9        0.000000        1.000702         3
        29        30        33        38     9      180.000000       -0.084180         4
        29        30        33        39     9        0.000000       -0.172977         1
        29        30        33        39     9      180.000000       -0.267581         2
        29        30        33        39     9        0.000000        1.000702         3
        29        30        33        39     9      180.000000       -0.084180         4
        30        31        32        33     9        0.000000       -0.247477         1
        30        31        32        33     9      180.000000       15.194870         2
        30        31        32        33     9        0.000000       -1.325880         3
        30        31        32        33     9      180.000000       -1.013508         4
        30        31        32        36     9        0.000000       -0.062830         1
        30        31        32        36     9      180.000000       -0.048456         2
        30        31        32        36     9        0.000000        0.041930         3
        30        31        32        36     9      180.000000        0.410672         4
        30        31        32        37     9        0.000000       -0.062830         1
        30        31        32        37     9      180.000000       -0.048456         2
        30        31        32        37     9        0.000000        0.041930         3
        30        31        32        37     9      180.000000        0.410672         4
        30        33        32        31     9        0.000000       -0.247477         1
        30        33        32        31     9      180.000000       15.194870         2
        30        33        32        31     9        0.000000       -1.325880         3
        30        33        32        31     9      180.000000       -1.013508         4
        30        33        32        36     9        0.000000       -0.062830         1
        30        33        32        36     9      180.000000       -0.048456         2
        30        33        32        36     9        0.000000        0.041930         3
        30        33        32        36     9      180.000000        0.410672         4
        30        33        32        37     9        0.000000       -0.062830         1
        30        33        32        37     9      180.000000       -0.048456         2
        30        33        32        37     9        0.000000        0.041930         3
        30        33        32        37     9      180.000000        0.410672         4
        31        30        33        32     9        0.000000       -0.568676         1
        31        30        33        32     9      180.000000       13.213245         2
        31        30        33        32     9        0.000000       -0.896274         3
        31        30        33        32     9      180.000000        0.641435         4
        31        30        33        38     9        0.000000        0.075891         1
        31        30        33        38     9      180.000000       -0.121164         2
        31        30        33        38     9        0.000000        0.152602         3
        31        30        33        38     9      180.000000        0.246070         4
        31        30        33        39     9        0.000000        0.075891         1
        31        30        33        39     9      180.000000       -0.121164         2
        31        30        33        39     9        0.000000        0.152602         3
        31        30        33        39     9      180.000000        0.246070         4
        31        32        33        38     9        0.000000        0.001132         1
        31        32        33        38     9      180.000000       -0.012778         2
        31        32        33        38     9        0.000000        0.142112         3
        31        32        33        38     9      180.000000        0.308048         4
        31        32        33        39     9        0.000000        0.001132         1
        31        32        33        39     9      180.000000       -0.012778         2
        31        32        33        39     9        0.000000        0.142112         3
        31        32        33        39     9      180.000000        0.308048         4
        32        31        30        33     9        0.000000       -0.568676         1
        32        31        30        33     9      180.000000       13.213245         2
        32        31        30        33     9        0.000000       -0.896274         3
        32        31        30        33     9      180.000000        0.641435         4
        33        30        31        34     9        0.000000        0.075891         1
        33        30        31        34     9      180.000000       -0.121164         2
        33        30        31        34     9        0.000000        0.152602         3
        33        30        31        34     9      180.000000        0.246070         4
        33        30        31        35     9        0.000000        0.075891         1
        33        30        31        35     9      180.000000       -0.121164         2
        33        30        31        35     9        0.000000        0.152602         3
        33        30        31        35     9      180.000000        0.246070         4
        33        32        31        34     9        0.000000        0.001132         1
        33        32        31        34     9      180.000000       -0.012778         2
        33        32        31        34     9        0.000000        0.142112         3
        33        32        31        34     9      180.000000        0.308048         4
        33        32        31        35     9        0.000000        0.001132         1
        33        32        31        35     9      180.000000       -0.012778         2
        33        32        31        35     9        0.000000        0.142112         3
        33        32        31        35     9      180.000000        0.308048         4
        34        31        32        36     9        0.000000       -0.036530         1
        34        31        32        36     9      180.000000        0.032045         2
        34        31        32        36     9        0.000000        0.808833         3
        34        31        32        36     9      180.000000       -0.083789         4
        34        31        32        37     9        0.000000       -0.036530         1
        34        31        32        37     9      180.000000        0.032045         2
        34        31        32        37     9        0.000000        0.808833         3
        34        31        32        37     9      180.000000       -0.083789         4
        35        31        32        36     9        0.000000       -0.036530         1
        35        31        32        36     9      180.000000        0.032045         2
        35        31        32        36     9        0.000000        0.808833         3
        35        31        32        36     9      180.000000       -0.083789         4
        35        31        32        37     9        0.000000       -0.036530         1
        35        31        32        37     9      180.000000        0.032045         2
        35        31        32        37     9        0.000000        0.808833         3
        35        31        32        37     9      180.000000       -0.083789         4
        36        32        33        38     9        0.000000       -0.036530         1
        36        32        33        38     9      180.000000        0.032045         2
        36        32        33        38     9        0.000000        0.808833         3
        36        32        33        38     9      180.000000       -0.083789         4
        36        32        33        39     9        0.000000       -0.036530         1
        36        32        33        39     9      180.000000        0.032045         2
        36        32        33        39     9        0.000000        0.808833         3
        36        32        33        39     9      180.000000       -0.083789         4
        37        32        33        38     9        0.000000       -0.036530         1
        37        32        33        38     9      180.000000        0.032045         2
        37        32        33        38     9        0.000000        0.808833         3
        37        32        33        38     9      180.000000       -0.083789         4
        37        32        33        39     9        0.000000       -0.036530         1
        37        32        33        39     9      180.000000        0.032045         2
        37        32        33        39     9        0.000000        0.808833         3
        37        32        33        39     9      180.000000       -0.083789         4

[ dihedrals ] ; impropers
;       ai        aj        ak        al funct           phase               k        pn
         5         1        12        13     4      180.000000       27.893333         2
         5        12        13         1     4      180.000000       27.893333         2
         5        13         1        12     4      180.000000       27.893333         2
         7         6        14        23     4      180.000000        1.511284         2
         7        14        23         6     4      180.000000        1.511284         2
         7        23         6        14     4      180.000000        1.511284         2
         9         3        10        24     4      180.000000        0.827180         2
         9        10        24         3     4      180.000000        0.827180         2
         9        24         3        10     4      180.000000        0.827180         2
        15        14        16        17     4      180.000000        1.761486         2
        15        16        17        14     4      180.000000        1.761486         2
        15        17        14        16     4      180.000000        1.761486         2
        18        17        19        30     4      180.000000       15.558820         2
        18        19        30        17     4      180.000000       15.558820         2
        18        30        17        19     4      180.000000       15.558820         2

[ pairs ]
;       ai        aj funct
         1         4     1
         1         9     1
         1        21     1
         1        25     1
         1        26     1
         2        10     1
         2        12     1
         2        13     1
         2        20     1
         2        24     1
         3         5     1
         3         8     1
         3        25     1
         4        12     1
         4        14     1
         4        17     1
         4        23     1
         5         6     1
         5        10     1
         5        11     1
         5        16     1
         5        20     1
         6        15     1
         6        26     1
         6        27     1
         7        13     1
         7        16     1
         7        17     1
         8        11     1
         8        12     1
         8        13     1
         8        24     1
         9        11     1
         9        20     1
        10        21     1
        11        21     1
        12        26     1
        13        15     1
        13        22     1
        13        27     1
        14        18     1
        14        22     1
        14        27     1
        14        28     1
        15        19     1
        15        23     1
        15        30     1
        16        18     1
        16        22     1
        16        26     1
        16        28     1
        17        27     1
        17        29     1
        17        31     1
        17        33     1
        18        32     1
        18        34     1
        18        35     1
        18        38     1
        18        39     1
        19        28     1
        19        29     1
        19        31     1
        19        33     1
        20        25     1
        21        24     1
        22        23     1
        24        25     1
        28        30     1
        29        32     1
        29        34     1
        29        35     1
        29        38     1
        29        39     1
        30        36     1
        30        37     1
        31        38     1
        31        39     1
        33        34     1
        33        35     1
        34        36     1
        34        37     1
        35        36     1
        35        37     1
        36        38     1
        36        39     1
        37        38     1
        37        39     1
