; ITP file created by ByteFF-ML, 2026-02-21 08:25:48.341844

[ atomtypes ]
;name           bonded.type        at.num        mass        charge   ptype           sigma         epsilon
 c0bf                                   6      0.0000       0.00000       A     3.31516e-01     4.11633e-01
 c1bf                                   6      0.0000       0.00000       A     3.31469e-01     4.12823e-01
 c2bf                                   6      0.0000       0.00000       A     3.31513e-01     4.12453e-01
 c3bf                                   6      0.0000       0.00000       A     3.31446e-01     4.15754e-01
 c4bf                                   6      0.0000       0.00000       A     3.31246e-01     4.10396e-01
 c5bf                                   6      0.0000       0.00000       A     3.31459e-01     4.12049e-01
 c6bf                                   6      0.0000       0.00000       A     3.31385e-01     4.12672e-01
 c7bf                                   6      0.0000       0.00000       A     3.31469e-01     4.12823e-01
 c8bf                                   6      0.0000       0.00000       A     3.31444e-01     4.13066e-01
 c9bf                                   6      0.0000       0.00000       A     3.31513e-01     4.12453e-01
 cl10bf                                17      0.0000       0.00000       A     3.46557e-01     1.10332e+00
 o11bf                                  8      0.0000       0.00000       A     3.04688e-01     6.11596e-01
 n12bf                                  7      0.0000       0.00000       A     3.27190e-01     4.85938e-01
 n13bf                                  7      0.0000       0.00000       A     3.38304e-01     3.93185e-01
 c14bf                                  6      0.0000       0.00000       A     3.31514e-01     4.13810e-01
 c15bf                                  6      0.0000       0.00000       A     3.31280e-01     4.14515e-01
 n16bf                                  7      0.0000       0.00000       A     3.27083e-01     4.85823e-01
 c17bf                                  6      0.0000       0.00000       A     3.31583e-01     4.11554e-01
 o18bf                                  8      0.0000       0.00000       A     3.04989e-01     6.11718e-01
 c19bf                                  6      0.0000       0.00000       A     3.39786e-01     4.51702e-01
 c20bf                                  6      0.0000       0.00000       A     3.39907e-01     4.50784e-01
 c21bf                                  6      0.0000       0.00000       A     3.39907e-01     4.50784e-01
 cl22bf                                17      0.0000       0.00000       A     3.46557e-01     1.10332e+00
 h23bf                                  1      0.0000       0.00000       A     2.62472e-01     6.72807e-02
 h24bf                                  1      0.0000       0.00000       A     2.62569e-01     6.73892e-02
 h25bf                                  1      0.0000       0.00000       A     2.53603e-01     6.75872e-02
 h26bf                                  1      0.0000       0.00000       A     2.62442e-01     6.71179e-02
 h27bf                                  1      0.0000       0.00000       A     2.62472e-01     6.72807e-02
 h28bf                                  1      0.0000       0.00000       A     1.10552e-01     4.15186e-02
 h29bf                                  1      0.0000       0.00000       A     2.62698e-01     6.80197e-02
 h30bf                                  1      0.0000       0.00000       A     1.10366e-01     4.04795e-02
 h31bf                                  1      0.0000       0.00000       A     2.59987e-01     8.61303e-02
 h32bf                                  1      0.0000       0.00000       A     2.60055e-01     8.62628e-02
 h33bf                                  1      0.0000       0.00000       A     2.60055e-01     8.62628e-02
 h34bf                                  1      0.0000       0.00000       A     2.60055e-01     8.62628e-02
 h35bf                                  1      0.0000       0.00000       A     2.60055e-01     8.62628e-02

[ moleculetype ]
;name             nrexcl
 ejm_46                3

[ atoms ]
;       nr            type      resi   res      atom      cgnr      charge          mass ; qtot
         1            c0bf         1   UNL        c0         1    -0.13969       12.0110 ; qtot   -0.140
         2            c1bf         1   UNL        c1         2     0.15319       12.0110 ; qtot    0.013
         3            c2bf         1   UNL        c2         3    -0.10353       12.0110 ; qtot   -0.090
         4            c3bf         1   UNL        c3         4     0.03989       12.0110 ; qtot   -0.050
         5            c4bf         1   UNL        c4         5     0.63693       12.0110 ; qtot    0.587
         6            c5bf         1   UNL        c5         6    -0.22521       12.0110 ; qtot    0.362
         7            c6bf         1   UNL        c6         7     0.39007       12.0110 ; qtot    0.752
         8            c7bf         1   UNL        c7         8     0.15319       12.0110 ; qtot    0.905
         9            c8bf         1   UNL        c8         9    -0.08095       12.0110 ; qtot    0.824
        10            c9bf         1   UNL        c9        10    -0.10353       12.0110 ; qtot    0.720
        11          cl10bf         1   UNL      cl10        11    -0.18538       35.4530 ; qtot    0.535
        12           o11bf         1   UNL       o11        12    -0.54820       15.9990 ; qtot   -0.013
        13           n12bf         1   UNL       n12        13    -0.14723       14.0070 ; qtot   -0.160
        14           n13bf         1   UNL       n13        14    -0.71964       14.0070 ; qtot   -0.880
        15           c14bf         1   UNL       c14        15     0.49284       12.0110 ; qtot   -0.387
        16           c15bf         1   UNL       c15        16    -0.22016       12.0110 ; qtot   -0.607
        17           n16bf         1   UNL       n16        17    -0.32586       14.0070 ; qtot   -0.933
        18           c17bf         1   UNL       c17        18     0.64275       12.0110 ; qtot   -0.291
        19           o18bf         1   UNL       o18        19    -0.57005       15.9990 ; qtot   -0.861
        20           c19bf         1   UNL       c19        20    -0.25174       12.0110 ; qtot   -1.112
        21           c20bf         1   UNL       c20        21    -0.09696       12.0110 ; qtot   -1.209
        22           c21bf         1   UNL       c21        22    -0.09696       12.0110 ; qtot   -1.306
        23          cl22bf         1   UNL      cl22        23    -0.18538       35.4530 ; qtot   -1.492
        24           h23bf         1   UNL       h23        24     0.13919        1.0080 ; qtot   -1.352
        25           h24bf         1   UNL       h24        25     0.14093        1.0080 ; qtot   -1.211
        26           h25bf         1   UNL       h25        26     0.02391        1.0080 ; qtot   -1.188
        27           h26bf         1   UNL       h26        27     0.12973        1.0080 ; qtot   -1.058
        28           h27bf         1   UNL       h27        28     0.13919        1.0080 ; qtot   -0.919
        29           h28bf         1   UNL       h28        29     0.17125        1.0080 ; qtot   -0.747
        30           h29bf         1   UNL       h29        30     0.15928        1.0080 ; qtot   -0.588
        31           h30bf         1   UNL       h30        31     0.16675        1.0080 ; qtot   -0.421
        32           h31bf         1   UNL       h31        32     0.09834        1.0080 ; qtot   -0.323
        33           h32bf         1   UNL       h32        33     0.08077        1.0080 ; qtot   -0.242
        34           h33bf         1   UNL       h33        34     0.08077        1.0080 ; qtot   -0.161
        35           h34bf         1   UNL       h34        35     0.08077        1.0080 ; qtot   -0.081
        36           h35bf         1   UNL       h35        36     0.08073        1.0080 ; qtot    0.000

[ bonds ]
;       ai        aj funct               r               k
         1         2     1        0.140153   273317.935791
         1         5     1        0.151711   166028.776025
         1         8     1        0.140153   273317.935791
         2         3     1        0.139601   303384.741016
         2        11     1        0.175680   146917.122583
         3         9     1        0.139552   310746.655518
         3        24     1        0.108433   325893.481201
         4         6     1        0.140513   286751.119287
         4        13     1        0.140524   250238.798730
         4        16     1        0.139963   298006.549170
         5        12     1        0.122463   630902.561133
         5        13     1        0.137080   280552.062598
         6         7     1        0.139256   310098.600293
         6        25     1        0.108288   328862.757520
         7        14     1        0.133863   332565.255322
         7        26     1        0.108846   313284.405762
         8        10     1        0.139601   303384.741016
         8        23     1        0.175680   146917.160889
         9        10     1        0.139552   310746.655518
         9        27     1        0.108532   324260.434131
        10        28     1        0.108433   325893.481201
        13        29     1        0.101272   414819.901562
        14        15     1        0.133887   295542.473486
        15        16     1        0.140358   276609.311670
        15        17     1        0.140467   242815.722852
        16        30     1        0.108098   332566.251270
        17        18     1        0.138419   240471.926953
        17        31     1        0.101262   416921.912109
        18        19     1        0.122769   613504.026367
        18        20     1        0.149580   187627.194873
        20        21     1        0.152574   171713.668555
        20        22     1        0.152574   171713.668555
        20        32     1        0.108457   322460.578662
        21        22     1        0.150027   214061.039844
        21        33     1        0.108491   323343.370996
        21        34     1        0.108491   323343.370996
        22        35     1        0.108491   323343.345459
        22        36     1        0.108491   323343.345459

[ angles ]
;       ai        aj        ak funct           theta             cth
         1         2         3     1      121.751663      655.182887
         1         2        11     1      119.792053      319.960477
         1         5        12     1      120.784958      604.796191
         1         5        13     1      113.460876      443.006218
         1         8        10     1      121.751663      655.182887
         1         8        23     1      119.792053      319.960508
         2         1         5     1      121.186684      614.373182
         2         1         8     1      117.581833      636.725686
         2         3         9     1      119.116493      651.293458
         2         3        24     1      119.837120      399.290326
         3         2        11     1      118.196632      386.667588
         3         9        10     1      120.469688      692.783216
         3         9        27     1      119.783386      428.127021
         4         6         7     1      117.801376      807.940832
         4         6        25     1      121.420532      455.652322
         4        13         5     1      128.688263      489.007969
         4        13        29     1      115.373009      446.250676
         4        16        15     1      117.972672      854.860993
         4        16        30     1      120.919968      419.833558
         5         1         8     1      121.186684      614.373182
         5        13        29     1      116.072533      474.421268
         6         4        13     1      120.826538      611.104943
         6         4        16     1      118.444016      586.517303
         6         7        14     1      124.745895      697.898427
         6         7        26     1      119.546288      417.474184
         7         6        25     1      120.837181      432.142636
         7        14        15     1      117.139610      789.158735
         8        10         9     1      119.116493      651.293458
         8        10        28     1      119.837120      399.290326
         9         3        24     1      120.963646      425.124974
         9        10        28     1      120.963661      425.124974
        10         8        23     1      118.196632      386.667588
        10         9        27     1      119.783386      428.127021
        12         5        13     1      125.471703      605.741958
        13         4        16     1      120.214561      500.049736
        14         7        26     1      115.655136      405.669655
        14        15        16     1      123.808365      582.962729
        14        15        17     1      113.845047      629.564442
        15        16        30     1      120.172646      446.378393
        15        17        18     1      128.994461      526.887514
        15        17        31     1      113.031204      456.869517
        16        15        17     1      121.320206      486.093578
        17        18        19     1      123.847878      637.813695
        17        18        20     1      114.053391      453.627581
        18        17        31     1      117.482346      422.726369
        18        20        21     1      118.384995      407.401869
        18        20        22     1      118.384995      407.401869
        18        20        32     1      115.633011      432.275493
        19        18        20     1      121.975082      556.521159
        20        21        22     1       60.526978      167.360000
        20        21        33     1      116.579750      362.856372
        20        21        34     1      116.579750      362.856372
        20        22        21     1       60.526978      167.360000
        20        22        35     1      116.579750      362.856372
        20        22        36     1      116.579750      362.856372
        21        20        22     1       59.022255      167.360000
        21        20        32     1      117.088600      361.229307
        21        22        35     1      118.241837      380.707993
        21        22        36     1      118.241837      380.707993
        22        20        32     1      117.088600      361.229307
        22        21        33     1      118.241837      380.707993
        22        21        34     1      118.241837      380.707993
        33        21        34     1      115.542068      302.662500
        35        22        36     1      115.542068      302.662500

[ dihedrals ] ; propers for gromacs 4.5 or higher, use funct 9
;       ai        aj        ak        al funct           phase               k        pn
         1         2         3         9     9        0.000000       -0.076454         1
         1         2         3         9     9      180.000000       18.378655         2
         1         2         3         9     9        0.000000       -1.485477         3
         1         2         3         9     9      180.000000       -0.443965         4
         1         2         3        24     9        0.000000       -0.051695         1
         1         2         3        24     9      180.000000       13.896893         2
         1         2         3        24     9        0.000000       -0.582597         3
         1         2         3        24     9      180.000000        0.104501         4
         1         5        13         4     9        0.000000        1.943510         1
         1         5        13         4     9      180.000000        8.245869         2
         1         5        13         4     9        0.000000        0.553648         3
         1         5        13         4     9      180.000000       -0.727358         4
         1         5        13        29     9        0.000000        0.256953         1
         1         5        13        29     9      180.000000        8.497288         2
         1         5        13        29     9        0.000000       -0.416932         3
         1         5        13        29     9      180.000000        0.234809         4
         1         8        10         9     9        0.000000       -0.076454         1
         1         8        10         9     9      180.000000       18.378655         2
         1         8        10         9     9        0.000000       -1.485477         3
         1         8        10         9     9      180.000000       -0.443965         4
         1         8        10        28     9        0.000000       -0.051695         1
         1         8        10        28     9      180.000000       13.896894         2
         1         8        10        28     9        0.000000       -0.582597         3
         1         8        10        28     9      180.000000        0.104501         4
         2         1         5        12     9        0.000000       -2.052614         1
         2         1         5        12     9      180.000000        1.139086         2
         2         1         5        12     9        0.000000        0.054306         3
         2         1         5        12     9      180.000000       -0.099915         4
         2         1         5        13     9        0.000000        0.440757         1
         2         1         5        13     9      180.000000       -0.113254         2
         2         1         5        13     9        0.000000        0.438440         3
         2         1         5        13     9      180.000000       -0.175863         4
         2         1         8        10     9        0.000000       -0.232741         1
         2         1         8        10     9      180.000000       16.722108         2
         2         1         8        10     9        0.000000       -1.528985         3
         2         1         8        10     9      180.000000       -0.338205         4
         2         1         8        23     9        0.000000        0.390196         1
         2         1         8        23     9      180.000000       17.596080         2
         2         1         8        23     9        0.000000        0.390762         3
         2         1         8        23     9      180.000000       -0.617838         4
         2         3         9        10     9        0.000000       -0.096937         1
         2         3         9        10     9      180.000000       18.601608         2
         2         3         9        10     9        0.000000       -1.549844         3
         2         3         9        10     9      180.000000       -0.460936         4
         2         3         9        27     9        0.000000        0.064500         1
         2         3         9        27     9      180.000000       14.350299         2
         2         3         9        27     9        0.000000       -0.619285         3
         2         3         9        27     9      180.000000        0.031010         4
         3         2         1         5     9        0.000000        0.221282         1
         3         2         1         5     9      180.000000       13.281605         2
         3         2         1         5     9        0.000000       -0.048385         3
         3         2         1         5     9      180.000000       -0.286210         4
         3         2         1         8     9        0.000000       -0.232741         1
         3         2         1         8     9      180.000000       16.722108         2
         3         2         1         8     9        0.000000       -1.528985         3
         3         2         1         8     9      180.000000       -0.338205         4
         3         9        10         8     9        0.000000       -0.096937         1
         3         9        10         8     9      180.000000       18.601608         2
         3         9        10         8     9        0.000000       -1.549844         3
         3         9        10         8     9      180.000000       -0.460936         4
         3         9        10        28     9        0.000000        0.044045         1
         3         9        10        28     9      180.000000       14.360884         2
         3         9        10        28     9        0.000000       -0.708188         3
         3         9        10        28     9      180.000000        0.127882         4
         4         6         7        14     9        0.000000       -0.101868         1
         4         6         7        14     9      180.000000       18.758846         2
         4         6         7        14     9        0.000000       -1.120673         3
         4         6         7        14     9      180.000000       -0.631980         4
         4         6         7        26     9        0.000000        0.173211         1
         4         6         7        26     9      180.000000       14.523484         2
         4         6         7        26     9        0.000000       -0.533298         3
         4         6         7        26     9      180.000000       -0.020321         4
         4        13         5        12     9        0.000000       -0.902764         1
         4        13         5        12     9      180.000000        9.869690         2
         4        13         5        12     9        0.000000        0.328250         3
         4        13         5        12     9      180.000000       -0.852134         4
         4        16        15        14     9        0.000000        0.125730         1
         4        16        15        14     9      180.000000       13.232139         2
         4        16        15        14     9        0.000000       -0.309258         3
         4        16        15        14     9      180.000000       -0.359168         4
         4        16        15        17     9        0.000000        0.421204         1
         4        16        15        17     9      180.000000       15.590134         2
         4        16        15        17     9        0.000000        0.320169         3
         4        16        15        17     9      180.000000       -0.526457         4
         5         1         2        11     9        0.000000        0.372587         1
         5         1         2        11     9      180.000000       14.761763         2
         5         1         2        11     9        0.000000        0.512397         3
         5         1         2        11     9      180.000000       -0.697437         4
         5         1         8        10     9        0.000000        0.221282         1
         5         1         8        10     9      180.000000       13.281605         2
         5         1         8        10     9        0.000000       -0.048385         3
         5         1         8        10     9      180.000000       -0.286210         4
         5         1         8        23     9        0.000000        0.372588         1
         5         1         8        23     9      180.000000       14.761763         2
         5         1         8        23     9        0.000000        0.512396         3
         5         1         8        23     9      180.000000       -0.697437         4
         5        13         4         6     9        0.000000       -0.079836         1
         5        13         4         6     9      180.000000        2.906425         2
         5        13         4         6     9        0.000000       -0.037766         3
         5        13         4         6     9      180.000000        0.090064         4
         5        13         4        16     9        0.000000        0.010601         1
         5        13         4        16     9      180.000000        2.903844         2
         5        13         4        16     9        0.000000       -0.055962         3
         5        13         4        16     9      180.000000        0.085791         4
         6         4        13        29     9        0.000000        0.349726         1
         6         4        13        29     9      180.000000        3.679211         2
         6         4        13        29     9        0.000000        0.254809         3
         6         4        13        29     9      180.000000        0.088175         4
         6         4        16        15     9        0.000000       -0.027525         1
         6         4        16        15     9      180.000000       15.896549         2
         6         4        16        15     9        0.000000       -1.083663         3
         6         4        16        15     9      180.000000       -0.315858         4
         6         4        16        30     9        0.000000       -0.016236         1
         6         4        16        30     9      180.000000       13.047971         2
         6         4        16        30     9        0.000000       -0.463903         3
         6         4        16        30     9      180.000000        0.183118         4
         6         7        14        15     9        0.000000       -0.011421         1
         6         7        14        15     9      180.000000       21.543880         2
         6         7        14        15     9        0.000000       -0.791685         3
         6         7        14        15     9      180.000000       -0.099507         4
         7         6         4        13     9        0.000000        0.368706         1
         7         6         4        13     9      180.000000       17.250912         2
         7         6         4        13     9        0.000000        0.281694         3
         7         6         4        13     9      180.000000       -0.473227         4
         7         6         4        16     9        0.000000        0.081608         1
         7         6         4        16     9      180.000000       16.590097         2
         7         6         4        16     9        0.000000       -1.243746         3
         7         6         4        16     9      180.000000       -0.358586         4
         7        14        15        16     9        0.000000        0.377507         1
         7        14        15        16     9      180.000000       22.201979         2
         7        14        15        16     9        0.000000       -0.080984         3
         7        14        15        16     9      180.000000       -0.216724         4
         7        14        15        17     9        0.000000        0.493480         1
         7        14        15        17     9      180.000000       28.932791         2
         7        14        15        17     9        0.000000        0.767347         3
         7        14        15        17     9      180.000000       -0.664314         4
         8         1         2        11     9        0.000000        0.390197         1
         8         1         2        11     9      180.000000       17.596084         2
         8         1         2        11     9        0.000000        0.390763         3
         8         1         2        11     9      180.000000       -0.617838         4
         8         1         5        12     9        0.000000       -2.052614         1
         8         1         5        12     9      180.000000        1.139086         2
         8         1         5        12     9        0.000000        0.054306         3
         8         1         5        12     9      180.000000       -0.099915         4
         8         1         5        13     9        0.000000        0.440757         1
         8         1         5        13     9      180.000000       -0.113254         2
         8         1         5        13     9        0.000000        0.438440         3
         8         1         5        13     9      180.000000       -0.175863         4
         8        10         9        27     9        0.000000        0.064500         1
         8        10         9        27     9      180.000000       14.350299         2
         8        10         9        27     9        0.000000       -0.619285         3
         8        10         9        27     9      180.000000        0.031010         4
         9         3         2        11     9        0.000000        0.358058         1
         9         3         2        11     9      180.000000       20.681090         2
         9         3         2        11     9        0.000000        0.483238         3
         9         3         2        11     9      180.000000       -0.652499         4
         9        10         8        23     9        0.000000        0.358057         1
         9        10         8        23     9      180.000000       20.681092         2
         9        10         8        23     9        0.000000        0.483238         3
         9        10         8        23     9      180.000000       -0.652500         4
        10         9         3        24     9        0.000000        0.044045         1
        10         9         3        24     9      180.000000       14.360883         2
        10         9         3        24     9        0.000000       -0.708188         3
        10         9         3        24     9      180.000000        0.127882         4
        11         2         3        24     9        0.000000        0.034849         1
        11         2         3        24     9      180.000000       14.545328         2
        11         2         3        24     9        0.000000        0.037854         3
        11         2         3        24     9      180.000000        0.281396         4
        12         5        13        29     9        0.000000        0.189370         1
        12         5        13        29     9      180.000000       11.938541         2
        12         5        13        29     9        0.000000        0.390839         3
        12         5        13        29     9      180.000000        0.857293         4
        13         4         6        25     9        0.000000       -0.139266         1
        13         4         6        25     9      180.000000       13.649156         2
        13         4         6        25     9        0.000000       -0.068755         3
        13         4         6        25     9      180.000000        0.190415         4
        13         4        16        15     9        0.000000        0.325755         1
        13         4        16        15     9      180.000000       16.821881         2
        13         4        16        15     9        0.000000        0.159002         3
        13         4        16        15     9      180.000000       -0.538251         4
        13         4        16        30     9        0.000000       -0.213758         1
        13         4        16        30     9      180.000000       13.869065         2
        13         4        16        30     9        0.000000       -0.148384         3
        13         4        16        30     9      180.000000        0.225480         4
        14         7         6        25     9        0.000000        0.150135         1
        14         7         6        25     9      180.000000       15.664247         2
        14         7         6        25     9        0.000000       -0.241286         3
        14         7         6        25     9      180.000000       -0.125289         4
        14        15        16        30     9        0.000000       -0.138630         1
        14        15        16        30     9      180.000000       11.616167         2
        14        15        16        30     9        0.000000       -0.160510         3
        14        15        16        30     9      180.000000       -0.178771         4
        14        15        17        18     9        0.000000       -2.487957         1
        14        15        17        18     9      180.000000        4.583440         2
        14        15        17        18     9        0.000000        0.318396         3
        14        15        17        18     9      180.000000       -0.115267         4
        14        15        17        31     9        0.000000        2.388747         1
        14        15        17        31     9      180.000000        3.928542         2
        14        15        17        31     9        0.000000        0.326769         3
        14        15        17        31     9      180.000000       -0.289622         4
        15        14         7        26     9        0.000000        1.553341         1
        15        14         7        26     9      180.000000       20.429011         2
        15        14         7        26     9        0.000000        0.207392         3
        15        14         7        26     9      180.000000       -0.212481         4
        15        17        18        19     9        0.000000       -0.399911         1
        15        17        18        19     9      180.000000        8.797798         2
        15        17        18        19     9        0.000000       -0.237177         3
        15        17        18        19     9      180.000000       -0.189565         4
        15        17        18        20     9        0.000000        0.374850         1
        15        17        18        20     9      180.000000        9.338359         2
        15        17        18        20     9        0.000000        0.189501         3
        15        17        18        20     9      180.000000       -0.268625         4
        16         4         6        25     9        0.000000        0.124440         1
        16         4         6        25     9      180.000000       13.156038         2
        16         4         6        25     9        0.000000       -0.484029         3
        16         4         6        25     9      180.000000        0.120324         4
        16         4        13        29     9        0.000000        0.968575         1
        16         4        13        29     9      180.000000        3.699411         2
        16         4        13        29     9        0.000000        0.257965         3
        16         4        13        29     9      180.000000        0.081633         4
        16        15        17        18     9        0.000000        0.312863         1
        16        15        17        18     9      180.000000        2.965980         2
        16        15        17        18     9        0.000000       -0.127814         3
        16        15        17        18     9      180.000000        0.089703         4
        16        15        17        31     9        0.000000        0.314738         1
        16        15        17        31     9      180.000000        4.872881         2
        16        15        17        31     9        0.000000        0.622902         3
        16        15        17        31     9      180.000000       -0.122766         4
        17        15        16        30     9        0.000000        0.092112         1
        17        15        16        30     9      180.000000       13.085624         2
        17        15        16        30     9        0.000000       -0.180509         3
        17        15        16        30     9      180.000000        0.162757         4
        17        18        20        21     9        0.000000        0.384578         1
        17        18        20        21     9      180.000000        1.741080         2
        17        18        20        21     9        0.000000       -0.012100         3
        17        18        20        21     9      180.000000        0.172634         4
        17        18        20        22     9        0.000000        0.384578         1
        17        18        20        22     9      180.000000        1.741080         2
        17        18        20        22     9        0.000000       -0.012100         3
        17        18        20        22     9      180.000000        0.172634         4
        17        18        20        32     9        0.000000       -0.227419         1
        17        18        20        32     9      180.000000        2.606092         2
        17        18        20        32     9        0.000000       -0.279609         3
        17        18        20        32     9      180.000000        0.077371         4
        18        20        21        22     9        0.000000       30.071562         1
        18        20        21        22     9      180.000000        4.944102         2
        18        20        21        22     9        0.000000        2.624645         3
        18        20        21        22     9      180.000000        9.079829         4
        18        20        21        33     9        0.000000        2.866558         1
        18        20        21        33     9      180.000000       -0.582533         2
        18        20        21        33     9        0.000000        0.225850         3
        18        20        21        33     9      180.000000        1.732385         4
        18        20        21        34     9        0.000000        2.866558         1
        18        20        21        34     9      180.000000       -0.582533         2
        18        20        21        34     9        0.000000        0.225850         3
        18        20        21        34     9      180.000000        1.732385         4
        18        20        22        21     9        0.000000       30.071562         1
        18        20        22        21     9      180.000000        4.944102         2
        18        20        22        21     9        0.000000        2.624645         3
        18        20        22        21     9      180.000000        9.079829         4
        18        20        22        35     9        0.000000        2.866558         1
        18        20        22        35     9      180.000000       -0.582533         2
        18        20        22        35     9        0.000000        0.225850         3
        18        20        22        35     9      180.000000        1.732385         4
        18        20        22        36     9        0.000000        2.866558         1
        18        20        22        36     9      180.000000       -0.582533         2
        18        20        22        36     9        0.000000        0.225850         3
        18        20        22        36     9      180.000000        1.732385         4
        19        18        17        31     9        0.000000       -0.849248         1
        19        18        17        31     9      180.000000        9.665823         2
        19        18        17        31     9        0.000000        0.076871         3
        19        18        17        31     9      180.000000        0.847504         4
        19        18        20        21     9        0.000000       -0.699487         1
        19        18        20        21     9      180.000000        1.716654         2
        19        18        20        21     9        0.000000        0.062230         3
        19        18        20        21     9      180.000000        0.169348         4
        19        18        20        22     9        0.000000       -0.699487         1
        19        18        20        22     9      180.000000        1.716654         2
        19        18        20        22     9        0.000000        0.062230         3
        19        18        20        22     9      180.000000        0.169348         4
        19        18        20        32     9        0.000000        0.599574         1
        19        18        20        32     9      180.000000        2.963188         2
        19        18        20        32     9        0.000000        0.225093         3
        19        18        20        32     9      180.000000        0.105570         4
        20        18        17        31     9        0.000000        3.876582         1
        20        18        17        31     9      180.000000        8.925198         2
        20        18        17        31     9        0.000000       -0.064526         3
        20        18        17        31     9      180.000000        0.532547         4
        20        21        22        35     9        0.000000       19.835445         1
        20        21        22        35     9      180.000000        1.875209         2
        20        21        22        35     9        0.000000       -0.168447         3
        20        21        22        35     9      180.000000        4.874311         4
        20        21        22        36     9        0.000000       19.835445         1
        20        21        22        36     9      180.000000        1.875209         2
        20        21        22        36     9        0.000000       -0.168447         3
        20        21        22        36     9      180.000000        4.874311         4
        20        22        21        33     9        0.000000       19.835445         1
        20        22        21        33     9      180.000000        1.875209         2
        20        22        21        33     9        0.000000       -0.168447         3
        20        22        21        33     9      180.000000        4.874311         4
        20        22        21        34     9        0.000000       19.835445         1
        20        22        21        34     9      180.000000        1.875209         2
        20        22        21        34     9        0.000000       -0.168447         3
        20        22        21        34     9      180.000000        4.874311         4
        21        20        22        35     9        0.000000       24.359023         1
        21        20        22        35     9      180.000000        2.396392         2
        21        20        22        35     9        0.000000       -0.029660         3
        21        20        22        35     9      180.000000        4.866686         4
        21        20        22        36     9        0.000000       24.359023         1
        21        20        22        36     9      180.000000        2.396392         2
        21        20        22        36     9        0.000000       -0.029660         3
        21        20        22        36     9      180.000000        4.866686         4
        21        22        20        32     9        0.000000       33.395393         1
        21        22        20        32     9      180.000000        4.831651         2
        21        22        20        32     9        0.000000       -0.060522         3
        21        22        20        32     9      180.000000        6.322315         4
        22        20        21        33     9        0.000000       24.359023         1
        22        20        21        33     9      180.000000        2.396392         2
        22        20        21        33     9        0.000000       -0.029660         3
        22        20        21        33     9      180.000000        4.866686         4
        22        20        21        34     9        0.000000       24.359023         1
        22        20        21        34     9      180.000000        2.396392         2
        22        20        21        34     9        0.000000       -0.029660         3
        22        20        21        34     9      180.000000        4.866686         4
        22        21        20        32     9        0.000000       33.395393         1
        22        21        20        32     9      180.000000        4.831651         2
        22        21        20        32     9        0.000000       -0.060522         3
        22        21        20        32     9      180.000000        6.322315         4
        23         8        10        28     9        0.000000        0.034847         1
        23         8        10        28     9      180.000000       14.545326         2
        23         8        10        28     9        0.000000        0.037853         3
        23         8        10        28     9      180.000000        0.281397         4
        24         3         9        27     9        0.000000       -0.249552         1
        24         3         9        27     9      180.000000       11.261506         2
        24         3         9        27     9        0.000000       -0.621949         3
        24         3         9        27     9      180.000000        0.273003         4
        25         6         7        26     9        0.000000        0.015584         1
        25         6         7        26     9      180.000000       11.951684         2
        25         6         7        26     9        0.000000       -0.725462         3
        25         6         7        26     9      180.000000        0.280129         4
        27         9        10        28     9        0.000000       -0.249552         1
        27         9        10        28     9      180.000000       11.261506         2
        27         9        10        28     9        0.000000       -0.621950         3
        27         9        10        28     9      180.000000        0.273003         4
        32        20        21        33     9        0.000000        1.397167         1
        32        20        21        33     9      180.000000       -0.671396         2
        32        20        21        33     9        0.000000       -0.122599         3
        32        20        21        33     9      180.000000        1.182484         4
        32        20        21        34     9        0.000000        1.397167         1
        32        20        21        34     9      180.000000       -0.671396         2
        32        20        21        34     9        0.000000       -0.122599         3
        32        20        21        34     9      180.000000        1.182484         4
        32        20        22        35     9        0.000000        1.397167         1
        32        20        22        35     9      180.000000       -0.671396         2
        32        20        22        35     9        0.000000       -0.122599         3
        32        20        22        35     9      180.000000        1.182483         4
        32        20        22        36     9        0.000000        1.397167         1
        32        20        22        36     9      180.000000       -0.671396         2
        32        20        22        36     9        0.000000       -0.122599         3
        32        20        22        36     9      180.000000        1.182483         4
        33        21        22        35     9        0.000000        0.306815         1
        33        21        22        35     9      180.000000       -0.091585         2
        33        21        22        35     9        0.000000       -0.074164         3
        33        21        22        35     9      180.000000        0.972241         4
        33        21        22        36     9        0.000000        0.306815         1
        33        21        22        36     9      180.000000       -0.091585         2
        33        21        22        36     9        0.000000       -0.074164         3
        33        21        22        36     9      180.000000        0.972241         4
        34        21        22        35     9        0.000000        0.306815         1
        34        21        22        35     9      180.000000       -0.091585         2
        34        21        22        35     9        0.000000       -0.074164         3
        34        21        22        35     9      180.000000        0.972241         4
        34        21        22        36     9        0.000000        0.306815         1
        34        21        22        36     9      180.000000       -0.091585         2
        34        21        22        36     9        0.000000       -0.074164         3
        34        21        22        36     9      180.000000        0.972241         4

[ dihedrals ] ; impropers
;       ai        aj        ak        al funct           phase               k        pn
         5         1        12        13     4      180.000000       27.893333         2
         5        12        13         1     4      180.000000       27.893333         2
         5        13         1        12     4      180.000000       27.893333         2
         7         6        14        26     4      180.000000        1.510313         2
         7        14        26         6     4      180.000000        1.510313         2
         7        26         6        14     4      180.000000        1.510313         2
         9         3        10        27     4      180.000000        0.827180         2
         9        10        27         3     4      180.000000        0.827180         2
         9        27         3        10     4      180.000000        0.827180         2
        15        14        16        17     4      180.000000        1.715186         2
        15        16        17        14     4      180.000000        1.715186         2
        15        17        14        16     4      180.000000        1.715186         2
        18        17        19        20     4      180.000000       26.687976         2
        18        19        20        17     4      180.000000       26.687976         2
        18        20        17        19     4      180.000000       26.687976         2

[ pairs ]
;       ai        aj funct
         1         4     1
         1         9     1
         1        24     1
         1        28     1
         1        29     1
         2        10     1
         2        12     1
         2        13     1
         2        23     1
         2        27     1
         3         5     1
         3         8     1
         3        28     1
         4        12     1
         4        14     1
         4        17     1
         4        26     1
         5         6     1
         5        10     1
         5        11     1
         5        16     1
         5        23     1
         6        15     1
         6        29     1
         6        30     1
         7        13     1
         7        16     1
         7        17     1
         8        11     1
         8        12     1
         8        13     1
         8        27     1
         9        11     1
         9        23     1
        10        24     1
        11        24     1
        12        29     1
        13        15     1
        13        25     1
        13        30     1
        14        18     1
        14        25     1
        14        30     1
        14        31     1
        15        19     1
        15        20     1
        15        26     1
        16        18     1
        16        25     1
        16        29     1
        16        31     1
        17        21     1
        17        22     1
        17        30     1
        17        32     1
        18        33     1
        18        34     1
        18        35     1
        18        36     1
        19        21     1
        19        22     1
        19        31     1
        19        32     1
        20        31     1
        23        28     1
        24        27     1
        25        26     1
        27        28     1
        32        33     1
        32        34     1
        32        35     1
        32        36     1
        33        35     1
        33        36     1
        34        35     1
        34        36     1
