; ITP file created by ByteFF-ML, 2026-02-21 08:26:13.038838

[ atomtypes ]
;name           bonded.type        at.num        mass        charge   ptype           sigma         epsilon
 c0bf                                   6      0.0000       0.00000       A     3.31516e-01     4.11633e-01
 c1bf                                   6      0.0000       0.00000       A     3.31469e-01     4.12823e-01
 c2bf                                   6      0.0000       0.00000       A     3.31513e-01     4.12453e-01
 c3bf                                   6      0.0000       0.00000       A     3.31446e-01     4.15754e-01
 c4bf                                   6      0.0000       0.00000       A     3.31246e-01     4.10396e-01
 c5bf                                   6      0.0000       0.00000       A     3.31459e-01     4.12049e-01
 c6bf                                   6      0.0000       0.00000       A     3.31385e-01     4.12672e-01
 c7bf                                   6      0.0000       0.00000       A     3.31469e-01     4.12823e-01
 c8bf                                   6      0.0000       0.00000       A     3.31444e-01     4.13066e-01
 c9bf                                   6      0.0000       0.00000       A     3.31513e-01     4.12453e-01
 cl10bf                                17      0.0000       0.00000       A     3.46557e-01     1.10332e+00
 o11bf                                  8      0.0000       0.00000       A     3.04688e-01     6.11596e-01
 n12bf                                  7      0.0000       0.00000       A     3.27190e-01     4.85938e-01
 n13bf                                  7      0.0000       0.00000       A     3.38314e-01     3.93316e-01
 c14bf                                  6      0.0000       0.00000       A     3.31420e-01     4.11762e-01
 c15bf                                  6      0.0000       0.00000       A     3.31312e-01     4.15749e-01
 n16bf                                  7      0.0000       0.00000       A     3.26494e-01     4.88774e-01
 c17bf                                  6      0.0000       0.00000       A     3.31446e-01     4.14716e-01
 o18bf                                  8      0.0000       0.00000       A     3.04643e-01     6.12511e-01
 cl19bf                                17      0.0000       0.00000       A     3.46557e-01     1.10332e+00
 h20bf                                  1      0.0000       0.00000       A     2.62472e-01     6.72807e-02
 h21bf                                  1      0.0000       0.00000       A     2.62569e-01     6.73892e-02
 h22bf                                  1      0.0000       0.00000       A     2.53603e-01     6.75872e-02
 h23bf                                  1      0.0000       0.00000       A     2.62442e-01     6.71179e-02
 h24bf                                  1      0.0000       0.00000       A     2.62472e-01     6.72807e-02
 h25bf                                  1      0.0000       0.00000       A     1.10552e-01     4.15186e-02
 h26bf                                  1      0.0000       0.00000       A     2.62698e-01     6.80197e-02
 h27bf                                  1      0.0000       0.00000       A     1.10380e-01     4.17005e-02
 h28bf                                  1      0.0000       0.00000       A     1.10563e-01     4.11834e-02
 n29bf                                  7      0.0000       0.00000       A     3.27092e-01     4.90297e-01
 c30bf                                  6      0.0000       0.00000       A     3.39725e-01     4.49311e-01
 h31bf                                  1      0.0000       0.00000       A     2.42543e-01     8.74247e-02
 h32bf                                  1      0.0000       0.00000       A     2.42543e-01     8.74247e-02
 c33bf                                  6      0.0000       0.00000       A     3.39815e-01     4.51779e-01
 h34bf                                  1      0.0000       0.00000       A     2.59978e-01     8.71725e-02
 h35bf                                  1      0.0000       0.00000       A     2.59978e-01     8.71725e-02
 h36bf                                  1      0.0000       0.00000       A     2.59978e-01     8.71725e-02

[ moleculetype ]
;name             nrexcl
 ejm_54                3

[ atoms ]
;       nr            type      resi   res      atom      cgnr      charge          mass ; qtot
         1            c0bf         1   UNL        c0         1    -0.13969       12.0110 ; qtot   -0.140
         2            c1bf         1   UNL        c1         2     0.15319       12.0110 ; qtot    0.013
         3            c2bf         1   UNL        c2         3    -0.10353       12.0110 ; qtot   -0.090
         4            c3bf         1   UNL        c3         4     0.04057       12.0110 ; qtot   -0.049
         5            c4bf         1   UNL        c4         5     0.63693       12.0110 ; qtot    0.587
         6            c5bf         1   UNL        c5         6    -0.22521       12.0110 ; qtot    0.362
         7            c6bf         1   UNL        c6         7     0.38878       12.0110 ; qtot    0.751
         8            c7bf         1   UNL        c7         8     0.15319       12.0110 ; qtot    0.904
         9            c8bf         1   UNL        c8         9    -0.08095       12.0110 ; qtot    0.823
        10            c9bf         1   UNL        c9        10    -0.10353       12.0110 ; qtot    0.720
        11          cl10bf         1   UNL      cl10        11    -0.18538       35.4530 ; qtot    0.534
        12           o11bf         1   UNL       o11        12    -0.54820       15.9990 ; qtot   -0.014
        13           n12bf         1   UNL       n12        13    -0.14723       14.0070 ; qtot   -0.161
        14           n13bf         1   UNL       n13        14    -0.72552       14.0070 ; qtot   -0.887
        15           c14bf         1   UNL       c14        15     0.50488       12.0110 ; qtot   -0.382
        16           c15bf         1   UNL       c15        16    -0.22751       12.0110 ; qtot   -0.609
        17           n16bf         1   UNL       n16        17    -0.34043       14.0070 ; qtot   -0.950
        18           c17bf         1   UNL       c17        18     0.64896       12.0110 ; qtot   -0.301
        19           o18bf         1   UNL       o18        19    -0.60396       15.9990 ; qtot   -0.905
        20          cl19bf         1   UNL      cl19        20    -0.18538       35.4530 ; qtot   -1.090
        21           h20bf         1   UNL       h20        21     0.13919        1.0080 ; qtot   -0.951
        22           h21bf         1   UNL       h21        22     0.14093        1.0080 ; qtot   -0.810
        23           h22bf         1   UNL       h22        23     0.02391        1.0080 ; qtot   -0.786
        24           h23bf         1   UNL       h23        24     0.12973        1.0080 ; qtot   -0.656
        25           h24bf         1   UNL       h24        25     0.13919        1.0080 ; qtot   -0.517
        26           h25bf         1   UNL       h25        26     0.17125        1.0080 ; qtot   -0.346
        27           h26bf         1   UNL       h26        27     0.15881        1.0080 ; qtot   -0.187
        28           h27bf         1   UNL       h27        28     0.16573        1.0080 ; qtot   -0.021
        29           h28bf         1   UNL       h28        29     0.30824        1.0080 ; qtot    0.287
        30           n29bf         1   UNL       n29        30    -0.50321       14.0070 ; qtot   -0.216
        31           c30bf         1   UNL       c30        31     0.09667       12.0110 ; qtot   -0.120
        32           h31bf         1   UNL       h31        32     0.05394        1.0080 ; qtot   -0.066
        33           h32bf         1   UNL       h32        33     0.05394        1.0080 ; qtot   -0.012
        34           c33bf         1   UNL       c33        34    -0.11388       12.0110 ; qtot   -0.126
        35           h34bf         1   UNL       h34        35     0.04187        1.0080 ; qtot   -0.084
        36           h35bf         1   UNL       h35        36     0.04187        1.0080 ; qtot   -0.042
        37           h36bf         1   UNL       h36        37     0.04184        1.0080 ; qtot   -0.000

[ bonds ]
;       ai        aj funct               r               k
         1         2     1        0.140153   273317.935791
         1         5     1        0.151711   166028.776025
         1         8     1        0.140153   273317.935791
         2         3     1        0.139601   303384.741016
         2        11     1        0.175680   146917.122583
         3         9     1        0.139552   310746.655518
         3        21     1        0.108433   325893.481201
         4         6     1        0.140513   286751.119287
         4        13     1        0.140524   250238.798730
         4        16     1        0.139893   299491.046875
         5        12     1        0.122463   630902.561133
         5        13     1        0.137080   280552.062598
         6         7     1        0.139256   310098.600293
         6        22     1        0.108288   328862.757520
         7        14     1        0.133848   332795.038232
         7        23     1        0.108846   313284.405762
         8        10     1        0.139601   303384.741016
         8        20     1        0.175680   146917.160889
         9        10     1        0.139552   310746.655518
         9        24     1        0.108532   324260.434131
        10        25     1        0.108433   325893.455664
        13        26     1        0.101272   414819.901562
        14        15     1        0.134011   292884.085938
        15        16     1        0.140514   273723.209717
        15        17     1        0.139944   251921.668701
        16        27     1        0.108090   332549.907520
        17        18     1        0.139861   221272.974902
        17        28     1        0.101283   414904.327246
        18        19     1        0.122613   599591.204883
        18        30     1        0.137976   273847.141309
        29        30     1        0.101256   418043.757324
        30        31     1        0.146524   203041.164258
        31        32     1        0.109300   300907.283887
        31        33     1        0.109300   300907.283887
        31        34     1        0.153098   191934.692334
        34        35     1        0.109406   300834.452051
        34        36     1        0.109406   300834.452051
        34        37     1        0.109406   300834.452051

[ angles ]
;       ai        aj        ak funct           theta             cth
         1         2         3     1      121.751663      655.182887
         1         2        11     1      119.792053      319.960477
         1         5        12     1      120.784958      604.796191
         1         5        13     1      113.460876      443.006218
         1         8        10     1      121.751663      655.182887
         1         8        20     1      119.792053      319.960508
         2         1         5     1      121.186684      614.373182
         2         1         8     1      117.581833      636.725686
         2         3         9     1      119.116493      651.293458
         2         3        21     1      119.837120      399.290326
         3         2        11     1      118.196632      386.667588
         3         9        10     1      120.469688      692.783216
         3         9        24     1      119.783386      428.127021
         4         6         7     1      117.801376      807.940832
         4         6        22     1      121.420532      455.652322
         4        13         5     1      128.688263      489.007969
         4        13        26     1      115.373009      446.250612
         4        16        15     1      118.052811      860.689327
         4        16        27     1      120.934669      418.713213
         5         1         8     1      121.186684      614.373182
         5        13        26     1      116.072533      474.421204
         6         4        13     1      120.826538      611.104879
         6         4        16     1      118.495804      583.359895
         6         7        14     1      124.776871      694.136236
         6         7        23     1      119.546288      417.474184
         7         6        22     1      120.837181      432.142636
         7        14        15     1      117.170250      799.106652
         8        10         9     1      119.116493      651.293458
         8        10        25     1      119.837120      399.290326
         9         3        21     1      120.963646      425.124974
         9        10        25     1      120.963646      425.124974
        10         8        20     1      118.196632      386.667588
        10         9        24     1      119.783371      428.127021
        12         5        13     1      125.471695      605.741894
        13         4        16     1      120.090500      501.709361
        14         7        23     1      115.628441      403.927450
        14        15        16     1      123.554489      593.844985
        14        15        17     1      113.849083      634.561480
        15        16        27     1      120.072060      443.031915
        15        17        18     1      128.069504      504.146782
        15        17        28     1      113.044632      465.765464
        16        15        17     1      121.407860      488.880124
        17        18        19     1      123.313354      571.126087
        17        18        30     1      113.050354      598.735533
        18        17        28     1      116.856834      450.978967
        18        30        29     1      116.935280      489.549802
        18        30        31     1      119.583420      548.889394
        19        18        30     1      123.587341      564.565029
        29        30        31     1      116.461449      441.367214
        30        31        32     1      107.656616      516.153150
        30        31        33     1      107.656616      516.153150
        30        31        34     1      112.058395      634.755115
        31        34        35     1      110.671288      498.658474
        31        34        36     1      110.671288      498.658474
        31        34        37     1      110.671288      498.658474
        32        31        33     1      107.402367      349.576948
        32        31        34     1      110.455490      484.548519
        33        31        34     1      110.455490      484.548519
        35        34        36     1      108.214127      363.019873
        35        34        37     1      108.214127      363.019873
        36        34        37     1      108.214127      363.019873

[ dihedrals ] ; propers for gromacs 4.5 or higher, use funct 9
;       ai        aj        ak        al funct           phase               k        pn
         1         2         3         9     9        0.000000       -0.076454         1
         1         2         3         9     9      180.000000       18.378655         2
         1         2         3         9     9        0.000000       -1.485477         3
         1         2         3         9     9      180.000000       -0.443965         4
         1         2         3        21     9        0.000000       -0.051695         1
         1         2         3        21     9      180.000000       13.896893         2
         1         2         3        21     9        0.000000       -0.582597         3
         1         2         3        21     9      180.000000        0.104501         4
         1         5        13         4     9        0.000000        1.943510         1
         1         5        13         4     9      180.000000        8.245869         2
         1         5        13         4     9        0.000000        0.553648         3
         1         5        13         4     9      180.000000       -0.727358         4
         1         5        13        26     9        0.000000        0.256954         1
         1         5        13        26     9      180.000000        8.497290         2
         1         5        13        26     9        0.000000       -0.416932         3
         1         5        13        26     9      180.000000        0.234809         4
         1         8        10         9     9        0.000000       -0.076454         1
         1         8        10         9     9      180.000000       18.378655         2
         1         8        10         9     9        0.000000       -1.485477         3
         1         8        10         9     9      180.000000       -0.443965         4
         1         8        10        25     9        0.000000       -0.051695         1
         1         8        10        25     9      180.000000       13.896893         2
         1         8        10        25     9        0.000000       -0.582597         3
         1         8        10        25     9      180.000000        0.104501         4
         2         1         5        12     9        0.000000       -2.052614         1
         2         1         5        12     9      180.000000        1.139086         2
         2         1         5        12     9        0.000000        0.054306         3
         2         1         5        12     9      180.000000       -0.099915         4
         2         1         5        13     9        0.000000        0.440757         1
         2         1         5        13     9      180.000000       -0.113254         2
         2         1         5        13     9        0.000000        0.438440         3
         2         1         5        13     9      180.000000       -0.175863         4
         2         1         8        10     9        0.000000       -0.232741         1
         2         1         8        10     9      180.000000       16.722108         2
         2         1         8        10     9        0.000000       -1.528985         3
         2         1         8        10     9      180.000000       -0.338205         4
         2         1         8        20     9        0.000000        0.390196         1
         2         1         8        20     9      180.000000       17.596080         2
         2         1         8        20     9        0.000000        0.390762         3
         2         1         8        20     9      180.000000       -0.617838         4
         2         3         9        10     9        0.000000       -0.096937         1
         2         3         9        10     9      180.000000       18.601608         2
         2         3         9        10     9        0.000000       -1.549844         3
         2         3         9        10     9      180.000000       -0.460936         4
         2         3         9        24     9        0.000000        0.064500         1
         2         3         9        24     9      180.000000       14.350299         2
         2         3         9        24     9        0.000000       -0.619285         3
         2         3         9        24     9      180.000000        0.031010         4
         3         2         1         5     9        0.000000        0.221282         1
         3         2         1         5     9      180.000000       13.281605         2
         3         2         1         5     9        0.000000       -0.048385         3
         3         2         1         5     9      180.000000       -0.286210         4
         3         2         1         8     9        0.000000       -0.232741         1
         3         2         1         8     9      180.000000       16.722108         2
         3         2         1         8     9        0.000000       -1.528985         3
         3         2         1         8     9      180.000000       -0.338205         4
         3         9        10         8     9        0.000000       -0.096937         1
         3         9        10         8     9      180.000000       18.601608         2
         3         9        10         8     9        0.000000       -1.549844         3
         3         9        10         8     9      180.000000       -0.460936         4
         3         9        10        25     9        0.000000        0.044045         1
         3         9        10        25     9      180.000000       14.360883         2
         3         9        10        25     9        0.000000       -0.708188         3
         3         9        10        25     9      180.000000        0.127882         4
         4         6         7        14     9        0.000000       -0.098170         1
         4         6         7        14     9      180.000000       18.781022         2
         4         6         7        14     9        0.000000       -1.135003         3
         4         6         7        14     9      180.000000       -0.642785         4
         4         6         7        23     9        0.000000        0.173211         1
         4         6         7        23     9      180.000000       14.523484         2
         4         6         7        23     9        0.000000       -0.533298         3
         4         6         7        23     9      180.000000       -0.020321         4
         4        13         5        12     9        0.000000       -0.902764         1
         4        13         5        12     9      180.000000        9.869690         2
         4        13         5        12     9        0.000000        0.328250         3
         4        13         5        12     9      180.000000       -0.852134         4
         4        16        15        14     9        0.000000        0.115739         1
         4        16        15        14     9      180.000000       12.820880         2
         4        16        15        14     9        0.000000       -0.276891         3
         4        16        15        14     9      180.000000       -0.354162         4
         4        16        15        17     9        0.000000        0.469951         1
         4        16        15        17     9      180.000000       15.661215         2
         4        16        15        17     9        0.000000        0.356840         3
         4        16        15        17     9      180.000000       -0.615506         4
         5         1         2        11     9        0.000000        0.372587         1
         5         1         2        11     9      180.000000       14.761763         2
         5         1         2        11     9        0.000000        0.512397         3
         5         1         2        11     9      180.000000       -0.697437         4
         5         1         8        10     9        0.000000        0.221282         1
         5         1         8        10     9      180.000000       13.281605         2
         5         1         8        10     9        0.000000       -0.048385         3
         5         1         8        10     9      180.000000       -0.286210         4
         5         1         8        20     9        0.000000        0.372588         1
         5         1         8        20     9      180.000000       14.761763         2
         5         1         8        20     9        0.000000        0.512396         3
         5         1         8        20     9      180.000000       -0.697437         4
         5        13         4         6     9        0.000000       -0.079836         1
         5        13         4         6     9      180.000000        2.906425         2
         5        13         4         6     9        0.000000       -0.037766         3
         5        13         4         6     9      180.000000        0.090064         4
         5        13         4        16     9        0.000000       -0.001546         1
         5        13         4        16     9      180.000000        2.905958         2
         5        13         4        16     9        0.000000       -0.060781         3
         5        13         4        16     9      180.000000        0.090690         4
         6         4        13        26     9        0.000000        0.349725         1
         6         4        13        26     9      180.000000        3.679210         2
         6         4        13        26     9        0.000000        0.254809         3
         6         4        13        26     9      180.000000        0.088175         4
         6         4        16        15     9        0.000000        0.039718         1
         6         4        16        15     9      180.000000       15.476935         2
         6         4        16        15     9        0.000000       -1.024611         3
         6         4        16        15     9      180.000000       -0.257555         4
         6         4        16        27     9        0.000000       -0.024378         1
         6         4        16        27     9      180.000000       12.998524         2
         6         4        16        27     9        0.000000       -0.443933         3
         6         4        16        27     9      180.000000        0.173111         4
         6         7        14        15     9        0.000000        0.180996         1
         6         7        14        15     9      180.000000       21.258865         2
         6         7        14        15     9        0.000000       -0.658930         3
         6         7        14        15     9      180.000000       -0.063707         4
         7         6         4        13     9        0.000000        0.368706         1
         7         6         4        13     9      180.000000       17.250912         2
         7         6         4        13     9        0.000000        0.281694         3
         7         6         4        13     9      180.000000       -0.473227         4
         7         6         4        16     9        0.000000        0.067025         1
         7         6         4        16     9      180.000000       16.555215         2
         7         6         4        16     9        0.000000       -1.243015         3
         7         6         4        16     9      180.000000       -0.346929         4
         7        14        15        16     9        0.000000        0.439212         1
         7        14        15        16     9      180.000000       21.956509         2
         7        14        15        16     9        0.000000        0.087692         3
         7        14        15        16     9      180.000000       -0.239392         4
         7        14        15        17     9        0.000000        0.696993         1
         7        14        15        17     9      180.000000       28.469149         2
         7        14        15        17     9        0.000000        0.881329         3
         7        14        15        17     9      180.000000       -0.558933         4
         8         1         2        11     9        0.000000        0.390197         1
         8         1         2        11     9      180.000000       17.596084         2
         8         1         2        11     9        0.000000        0.390763         3
         8         1         2        11     9      180.000000       -0.617838         4
         8         1         5        12     9        0.000000       -2.052614         1
         8         1         5        12     9      180.000000        1.139086         2
         8         1         5        12     9        0.000000        0.054306         3
         8         1         5        12     9      180.000000       -0.099915         4
         8         1         5        13     9        0.000000        0.440757         1
         8         1         5        13     9      180.000000       -0.113254         2
         8         1         5        13     9        0.000000        0.438440         3
         8         1         5        13     9      180.000000       -0.175863         4
         8        10         9        24     9        0.000000        0.064500         1
         8        10         9        24     9      180.000000       14.350299         2
         8        10         9        24     9        0.000000       -0.619285         3
         8        10         9        24     9      180.000000        0.031010         4
         9         3         2        11     9        0.000000        0.358058         1
         9         3         2        11     9      180.000000       20.681090         2
         9         3         2        11     9        0.000000        0.483238         3
         9         3         2        11     9      180.000000       -0.652499         4
         9        10         8        20     9        0.000000        0.358057         1
         9        10         8        20     9      180.000000       20.681092         2
         9        10         8        20     9        0.000000        0.483238         3
         9        10         8        20     9      180.000000       -0.652500         4
        10         9         3        21     9        0.000000        0.044045         1
        10         9         3        21     9      180.000000       14.360883         2
        10         9         3        21     9        0.000000       -0.708188         3
        10         9         3        21     9      180.000000        0.127882         4
        11         2         3        21     9        0.000000        0.034849         1
        11         2         3        21     9      180.000000       14.545328         2
        11         2         3        21     9        0.000000        0.037854         3
        11         2         3        21     9      180.000000        0.281396         4
        12         5        13        26     9        0.000000        0.189371         1
        12         5        13        26     9      180.000000       11.938538         2
        12         5        13        26     9        0.000000        0.390839         3
        12         5        13        26     9      180.000000        0.857293         4
        13         4         6        22     9        0.000000       -0.139266         1
        13         4         6        22     9      180.000000       13.649156         2
        13         4         6        22     9        0.000000       -0.068755         3
        13         4         6        22     9      180.000000        0.190415         4
        13         4        16        15     9        0.000000        0.398101         1
        13         4        16        15     9      180.000000       16.783272         2
        13         4        16        15     9        0.000000        0.239211         3
        13         4        16        15     9      180.000000       -0.525655         4
        13         4        16        27     9        0.000000       -0.230349         1
        13         4        16        27     9      180.000000       13.818551         2
        13         4        16        27     9        0.000000       -0.152808         3
        13         4        16        27     9      180.000000        0.222740         4
        14         7         6        22     9        0.000000        0.152833         1
        14         7         6        22     9      180.000000       15.653508         2
        14         7         6        22     9        0.000000       -0.261797         3
        14         7         6        22     9      180.000000       -0.126862         4
        14        15        16        27     9        0.000000       -0.142965         1
        14        15        16        27     9      180.000000       11.206345         2
        14        15        16        27     9        0.000000       -0.155873         3
        14        15        16        27     9      180.000000       -0.143896         4
        14        15        17        18     9        0.000000       -3.178457         1
        14        15        17        18     9      180.000000        5.576230         2
        14        15        17        18     9        0.000000        0.168221         3
        14        15        17        18     9      180.000000       -0.272338         4
        14        15        17        28     9        0.000000        1.637948         1
        14        15        17        28     9      180.000000        3.372710         2
        14        15        17        28     9        0.000000        0.589868         3
        14        15        17        28     9      180.000000       -0.874067         4
        15        14         7        23     9        0.000000        1.903068         1
        15        14         7        23     9      180.000000       20.054833         2
        15        14         7        23     9        0.000000        0.237977         3
        15        14         7        23     9      180.000000       -0.126000         4
        15        17        18        19     9        0.000000       -1.265593         1
        15        17        18        19     9      180.000000        5.389560         2
        15        17        18        19     9        0.000000       -0.390969         3
        15        17        18        19     9      180.000000        0.138669         4
        15        17        18        30     9        0.000000        1.333596         1
        15        17        18        30     9      180.000000        8.210068         2
        15        17        18        30     9        0.000000       -0.351696         3
        15        17        18        30     9      180.000000       -0.107641         4
        16         4         6        22     9        0.000000        0.134234         1
        16         4         6        22     9      180.000000       13.055362         2
        16         4         6        22     9        0.000000       -0.476475         3
        16         4         6        22     9      180.000000        0.128701         4
        16         4        13        26     9        0.000000        0.931957         1
        16         4        13        26     9      180.000000        3.704079         2
        16         4        13        26     9        0.000000        0.266909         3
        16         4        13        26     9      180.000000        0.078951         4
        16        15        17        18     9        0.000000        1.026842         1
        16        15        17        18     9      180.000000        3.871924         2
        16        15        17        18     9        0.000000       -0.106118         3
        16        15        17        18     9      180.000000       -0.089237         4
        16        15        17        28     9        0.000000       -0.421338         1
        16        15        17        28     9      180.000000        3.937911         2
        16        15        17        28     9        0.000000       -0.164684         3
        16        15        17        28     9      180.000000       -0.713862         4
        17        15        16        27     9        0.000000        0.123178         1
        17        15        16        27     9      180.000000       13.047975         2
        17        15        16        27     9        0.000000       -0.170954         3
        17        15        16        27     9      180.000000        0.151185         4
        17        18        30        29     9        0.000000        3.038624         1
        17        18        30        29     9      180.000000        9.816882         2
        17        18        30        29     9        0.000000       -0.604350         3
        17        18        30        29     9      180.000000        0.746490         4
        17        18        30        31     9        0.000000        4.862611         1
        17        18        30        31     9      180.000000        9.933864         2
        17        18        30        31     9        0.000000        0.598968         3
        17        18        30        31     9      180.000000        0.064880         4
        18        30        31        32     9        0.000000        0.366912         1
        18        30        31        32     9      180.000000        0.204718         2
        18        30        31        32     9        0.000000        0.235192         3
        18        30        31        32     9      180.000000        0.081142         4
        18        30        31        33     9        0.000000        0.366912         1
        18        30        31        33     9      180.000000        0.204718         2
        18        30        31        33     9        0.000000        0.235192         3
        18        30        31        33     9      180.000000        0.081142         4
        18        30        31        34     9        0.000000       -1.131624         1
        18        30        31        34     9      180.000000       -0.615404         2
        18        30        31        34     9        0.000000        0.578569         3
        18        30        31        34     9      180.000000       -0.195540         4
        19        18        17        28     9        0.000000       -2.057117         1
        19        18        17        28     9      180.000000        4.716763         2
        19        18        17        28     9        0.000000       -0.212958         3
        19        18        17        28     9      180.000000        0.162941         4
        19        18        30        29     9        0.000000       -1.224792         1
        19        18        30        29     9      180.000000        6.169980         2
        19        18        30        29     9        0.000000       -0.010219         3
        19        18        30        29     9      180.000000        0.523779         4
        19        18        30        31     9        0.000000       -2.154790         1
        19        18        30        31     9      180.000000        5.709976         2
        19        18        30        31     9        0.000000        0.078691         3
        19        18        30        31     9      180.000000       -0.189686         4
        20         8        10        25     9        0.000000        0.034848         1
        20         8        10        25     9      180.000000       14.545326         2
        20         8        10        25     9        0.000000        0.037854         3
        20         8        10        25     9      180.000000        0.281396         4
        21         3         9        24     9        0.000000       -0.249552         1
        21         3         9        24     9      180.000000       11.261506         2
        21         3         9        24     9        0.000000       -0.621949         3
        21         3         9        24     9      180.000000        0.273003         4
        22         6         7        23     9        0.000000        0.015584         1
        22         6         7        23     9      180.000000       11.951684         2
        22         6         7        23     9        0.000000       -0.725462         3
        22         6         7        23     9      180.000000        0.280129         4
        24         9        10        25     9        0.000000       -0.249552         1
        24         9        10        25     9      180.000000       11.261506         2
        24         9        10        25     9        0.000000       -0.621949         3
        24         9        10        25     9      180.000000        0.273003         4
        28        17        18        30     9        0.000000        6.146507         1
        28        17        18        30     9      180.000000        7.304019         2
        28        17        18        30     9        0.000000       -0.081725         3
        28        17        18        30     9      180.000000        0.050863         4
        29        30        31        32     9        0.000000       -0.043432         1
        29        30        31        32     9      180.000000        0.240713         2
        29        30        31        32     9        0.000000        0.307502         3
        29        30        31        32     9      180.000000        0.114436         4
        29        30        31        33     9        0.000000       -0.043432         1
        29        30        31        33     9      180.000000        0.240713         2
        29        30        31        33     9        0.000000        0.307502         3
        29        30        31        33     9      180.000000        0.114436         4
        29        30        31        34     9        0.000000        0.335740         1
        29        30        31        34     9      180.000000       -0.609769         2
        29        30        31        34     9        0.000000        0.241743         3
        29        30        31        34     9      180.000000       -0.024475         4
        30        31        34        35     9        0.000000        0.044395         1
        30        31        34        35     9      180.000000        0.055181         2
        30        31        34        35     9        0.000000        0.618371         3
        30        31        34        35     9      180.000000        0.017666         4
        30        31        34        36     9        0.000000        0.044395         1
        30        31        34        36     9      180.000000        0.055181         2
        30        31        34        36     9        0.000000        0.618371         3
        30        31        34        36     9      180.000000        0.017666         4
        30        31        34        37     9        0.000000        0.044395         1
        30        31        34        37     9      180.000000        0.055181         2
        30        31        34        37     9        0.000000        0.618371         3
        30        31        34        37     9      180.000000        0.017666         4
        32        31        34        35     9        0.000000       -0.037460         1
        32        31        34        35     9      180.000000        0.029329         2
        32        31        34        35     9        0.000000        0.583190         3
        32        31        34        35     9      180.000000        0.012892         4
        32        31        34        36     9        0.000000       -0.037460         1
        32        31        34        36     9      180.000000        0.029329         2
        32        31        34        36     9        0.000000        0.583190         3
        32        31        34        36     9      180.000000        0.012892         4
        32        31        34        37     9        0.000000       -0.037460         1
        32        31        34        37     9      180.000000        0.029329         2
        32        31        34        37     9        0.000000        0.583190         3
        32        31        34        37     9      180.000000        0.012892         4
        33        31        34        35     9        0.000000       -0.037460         1
        33        31        34        35     9      180.000000        0.029329         2
        33        31        34        35     9        0.000000        0.583190         3
        33        31        34        35     9      180.000000        0.012892         4
        33        31        34        36     9        0.000000       -0.037460         1
        33        31        34        36     9      180.000000        0.029329         2
        33        31        34        36     9        0.000000        0.583190         3
        33        31        34        36     9      180.000000        0.012892         4
        33        31        34        37     9        0.000000       -0.037460         1
        33        31        34        37     9      180.000000        0.029329         2
        33        31        34        37     9        0.000000        0.583190         3
        33        31        34        37     9      180.000000        0.012892         4

[ dihedrals ] ; impropers
;       ai        aj        ak        al funct           phase               k        pn
         5         1        12        13     4      180.000000       27.893333         2
         5        12        13         1     4      180.000000       27.893333         2
         5        13         1        12     4      180.000000       27.893333         2
         7         6        14        23     4      180.000000        1.380914         2
         7        14        23         6     4      180.000000        1.380914         2
         7        23         6        14     4      180.000000        1.380914         2
         9         3        10        24     4      180.000000        0.827180         2
         9        10        24         3     4      180.000000        0.827180         2
         9        24         3        10     4      180.000000        0.827180         2

[ pairs ]
;       ai        aj funct
         1         4     1
         1         9     1
         1        21     1
         1        25     1
         1        26     1
         2        10     1
         2        12     1
         2        13     1
         2        20     1
         2        24     1
         3         5     1
         3         8     1
         3        25     1
         4        12     1
         4        14     1
         4        17     1
         4        23     1
         5         6     1
         5        10     1
         5        11     1
         5        16     1
         5        20     1
         6        15     1
         6        26     1
         6        27     1
         7        13     1
         7        16     1
         7        17     1
         8        11     1
         8        12     1
         8        13     1
         8        24     1
         9        11     1
         9        20     1
        10        21     1
        11        21     1
        12        26     1
        13        15     1
        13        22     1
        13        27     1
        14        18     1
        14        22     1
        14        27     1
        14        28     1
        15        19     1
        15        23     1
        15        30     1
        16        18     1
        16        22     1
        16        26     1
        16        28     1
        17        27     1
        17        29     1
        17        31     1
        18        32     1
        18        33     1
        18        34     1
        19        28     1
        19        29     1
        19        31     1
        20        25     1
        21        24     1
        22        23     1
        24        25     1
        28        30     1
        29        32     1
        29        33     1
        29        34     1
        30        35     1
        30        36     1
        30        37     1
        32        35     1
        32        36     1
        32        37     1
        33        35     1
        33        36     1
        33        37     1
