; ITP file created by ByteFF-ML, 2026-02-21 08:26:08.543223

[ atomtypes ]
;name           bonded.type        at.num        mass        charge   ptype           sigma         epsilon
 c0bf                                   6      0.0000       0.00000       A     3.31516e-01     4.11633e-01
 c1bf                                   6      0.0000       0.00000       A     3.31469e-01     4.12823e-01
 c2bf                                   6      0.0000       0.00000       A     3.31513e-01     4.12453e-01
 c3bf                                   6      0.0000       0.00000       A     3.31446e-01     4.15754e-01
 c4bf                                   6      0.0000       0.00000       A     3.31246e-01     4.10396e-01
 c5bf                                   6      0.0000       0.00000       A     3.31459e-01     4.12049e-01
 c6bf                                   6      0.0000       0.00000       A     3.31385e-01     4.12672e-01
 c7bf                                   6      0.0000       0.00000       A     3.31469e-01     4.12823e-01
 c8bf                                   6      0.0000       0.00000       A     3.31444e-01     4.13066e-01
 c9bf                                   6      0.0000       0.00000       A     3.31513e-01     4.12453e-01
 cl10bf                                17      0.0000       0.00000       A     3.46557e-01     1.10332e+00
 o11bf                                  8      0.0000       0.00000       A     3.04688e-01     6.11596e-01
 n12bf                                  7      0.0000       0.00000       A     3.27190e-01     4.85938e-01
 n13bf                                  7      0.0000       0.00000       A     3.38307e-01     3.93203e-01
 c14bf                                  6      0.0000       0.00000       A     3.31557e-01     4.14089e-01
 c15bf                                  6      0.0000       0.00000       A     3.31311e-01     4.14882e-01
 n16bf                                  7      0.0000       0.00000       A     3.26873e-01     4.84283e-01
 c17bf                                  6      0.0000       0.00000       A     3.31928e-01     4.14839e-01
 o18bf                                  8      0.0000       0.00000       A     3.04710e-01     6.08621e-01
 c19bf                                  6      0.0000       0.00000       A     3.39277e-01     4.46567e-01
 cl20bf                                17      0.0000       0.00000       A     3.46557e-01     1.10332e+00
 h21bf                                  1      0.0000       0.00000       A     2.62472e-01     6.72807e-02
 h22bf                                  1      0.0000       0.00000       A     2.62569e-01     6.73892e-02
 h23bf                                  1      0.0000       0.00000       A     2.53603e-01     6.75872e-02
 h24bf                                  1      0.0000       0.00000       A     2.62442e-01     6.71179e-02
 h25bf                                  1      0.0000       0.00000       A     2.62472e-01     6.72807e-02
 h26bf                                  1      0.0000       0.00000       A     1.10552e-01     4.15186e-02
 h27bf                                  1      0.0000       0.00000       A     2.62698e-01     6.80197e-02
 h28bf                                  1      0.0000       0.00000       A     1.10299e-01     4.00342e-02
 h29bf                                  1      0.0000       0.00000       A     2.42394e-01     8.56547e-02
 h30bf                                  1      0.0000       0.00000       A     2.42394e-01     8.56547e-02
 o31bf                                  8      0.0000       0.00000       A     3.24224e-01     3.91669e-01
 h32bf                                  1      0.0000       0.00000       A     5.39333e-02     2.07042e-02

[ moleculetype ]
;name             nrexcl
 ejm_50                3

[ atoms ]
;       nr            type      resi   res      atom      cgnr      charge          mass ; qtot
         1            c0bf         1   UNL        c0         1    -0.13969       12.0110 ; qtot   -0.140
         2            c1bf         1   UNL        c1         2     0.15319       12.0110 ; qtot    0.013
         3            c2bf         1   UNL        c2         3    -0.10353       12.0110 ; qtot   -0.090
         4            c3bf         1   UNL        c3         4     0.03996       12.0110 ; qtot   -0.050
         5            c4bf         1   UNL        c4         5     0.63693       12.0110 ; qtot    0.587
         6            c5bf         1   UNL        c5         6    -0.22521       12.0110 ; qtot    0.362
         7            c6bf         1   UNL        c6         7     0.38957       12.0110 ; qtot    0.751
         8            c7bf         1   UNL        c7         8     0.15319       12.0110 ; qtot    0.904
         9            c8bf         1   UNL        c8         9    -0.08095       12.0110 ; qtot    0.823
        10            c9bf         1   UNL        c9        10    -0.10353       12.0110 ; qtot    0.720
        11          cl10bf         1   UNL      cl10        11    -0.18538       35.4530 ; qtot    0.535
        12           o11bf         1   UNL       o11        12    -0.54820       15.9990 ; qtot   -0.014
        13           n12bf         1   UNL       n12        13    -0.14723       14.0070 ; qtot   -0.161
        14           n13bf         1   UNL       n13        14    -0.71678       14.0070 ; qtot   -0.878
        15           c14bf         1   UNL       c14        15     0.49468       12.0110 ; qtot   -0.383
        16           c15bf         1   UNL       c15        16    -0.21800       12.0110 ; qtot   -0.601
        17           n16bf         1   UNL       n16        17    -0.32068       14.0070 ; qtot   -0.922
        18           c17bf         1   UNL       c17        18     0.56802       12.0110 ; qtot   -0.354
        19           o18bf         1   UNL       o18        19    -0.56469       15.9990 ; qtot   -0.918
        20           c19bf         1   UNL       c19        20     0.06706       12.0110 ; qtot   -0.851
        21          cl20bf         1   UNL      cl20        21    -0.18538       35.4530 ; qtot   -1.037
        22           h21bf         1   UNL       h21        22     0.13919        1.0080 ; qtot   -0.897
        23           h22bf         1   UNL       h22        23     0.14093        1.0080 ; qtot   -0.757
        24           h23bf         1   UNL       h23        24     0.02391        1.0080 ; qtot   -0.733
        25           h24bf         1   UNL       h24        25     0.12973        1.0080 ; qtot   -0.603
        26           h25bf         1   UNL       h25        26     0.13919        1.0080 ; qtot   -0.464
        27           h26bf         1   UNL       h26        27     0.17125        1.0080 ; qtot   -0.292
        28           h27bf         1   UNL       h27        28     0.15926        1.0080 ; qtot   -0.133
        29           h28bf         1   UNL       h28        29     0.19211        1.0080 ; qtot    0.059
        30           h29bf         1   UNL       h29        30     0.07308        1.0080 ; qtot    0.132
        31           h30bf         1   UNL       h30        31     0.07308        1.0080 ; qtot    0.205
        32           o31bf         1   UNL       o31        32    -0.66891       15.9990 ; qtot   -0.464
        33           h32bf         1   UNL       h32        33     0.46383        1.0080 ; qtot    0.000

[ bonds ]
;       ai        aj funct               r               k
         1         2     1        0.140153   273317.935791
         1         5     1        0.151711   166028.776025
         1         8     1        0.140153   273317.935791
         2         3     1        0.139601   303384.741016
         2        11     1        0.175680   146917.122583
         3         9     1        0.139552   310746.655518
         3        22     1        0.108433   325893.481201
         4         6     1        0.140513   286751.119287
         4        13     1        0.140524   250238.798730
         4        16     1        0.139955   298192.663623
         5        12     1        0.122463   630902.561133
         5        13     1        0.137080   280552.062598
         6         7     1        0.139256   310098.600293
         6        23     1        0.108288   328862.757520
         7        14     1        0.133859   332648.863818
         7        24     1        0.108846   313284.405762
         8        10     1        0.139601   303384.741016
         8        21     1        0.175680   146917.160889
         9        10     1        0.139552   310746.655518
         9        25     1        0.108532   324260.434131
        10        26     1        0.108433   325893.481201
        13        27     1        0.101272   414819.901562
        14        15     1        0.133810   297032.308447
        15        16     1        0.140280   278066.740039
        15        17     1        0.140573   238473.980127
        16        28     1        0.108100   332557.772949
        17        18     1        0.136886   270605.537256
        17        29     1        0.101668   405752.644434
        18        19     1        0.122513   626239.382812
        18        20     1        0.153300   163551.293359
        20        30     1        0.109561   295893.046924
        20        31     1        0.109561   295893.046924
        20        32     1        0.142015   223767.848340
        32        33     1        0.097316   458418.948730

[ angles ]
;       ai        aj        ak funct           theta             cth
         1         2         3     1      121.751663      655.182887
         1         2        11     1      119.792053      319.960477
         1         5        12     1      120.784958      604.796191
         1         5        13     1      113.460876      443.006218
         1         8        10     1      121.751663      655.182887
         1         8        21     1      119.792053      319.960508
         2         1         5     1      121.186684      614.373182
         2         1         8     1      117.581833      636.725686
         2         3         9     1      119.116493      651.293458
         2         3        22     1      119.837120      399.290326
         3         2        11     1      118.196632      386.667588
         3         9        10     1      120.469688      692.783216
         3         9        25     1      119.783386      428.127021
         4         6         7     1      117.801376      807.940832
         4         6        23     1      121.420532      455.652322
         4        13         5     1      128.688263      489.007969
         4        13        27     1      115.373009      446.250676
         4        16        15     1      117.933472      855.474522
         4        16        28     1      120.938805      419.668620
         5         1         8     1      121.186684      614.373182
         5        13        27     1      116.072533      474.421204
         6         4        13     1      120.826538      611.104879
         6         4        16     1      118.460243      585.162432
         6         7        14     1      124.746437      697.183324
         6         7        24     1      119.546288      417.474184
         7         6        23     1      120.837181      432.142636
         7        14        15     1      117.089798      776.228147
         8        10         9     1      119.116493      651.293458
         8        10        26     1      119.837120      399.290326
         9         3        22     1      120.963661      425.124942
         9        10        26     1      120.963661      425.124942
        10         8        21     1      118.196632      386.667588
        10         9        25     1      119.783371      428.127021
        12         5        13     1      125.471695      605.741894
        13         4        16     1      120.214943      500.183870
        14         7        24     1      115.668198      406.245804
        14        15        16     1      123.936691      584.111324
        14        15        17     1      114.241165      625.535772
        15        16        28     1      120.261337      444.744912
        15        17        18     1      129.199615      525.222239
        15        17        29     1      114.457230      426.196384
        16        15        17     1      121.110352      484.263333
        17        18        19     1      126.373291      635.390159
        17        18        20     1      114.989357      476.680887
        18        17        29     1      115.535690      444.967532
        18        20        30     1      107.562729      518.879779
        18        20        31     1      107.562729      518.879779
        18        20        32     1      112.373672      568.216644
        19        18        20     1      119.332314      493.780024
        20        32        33     1      107.084938      570.348291
        30        20        31     1      107.938698      339.533458
        30        20        32     1      110.501953      466.354765
        31        20        32     1      110.501953      466.354765

[ dihedrals ] ; propers for gromacs 4.5 or higher, use funct 9
;       ai        aj        ak        al funct           phase               k        pn
         1         2         3         9     9        0.000000       -0.076454         1
         1         2         3         9     9      180.000000       18.378655         2
         1         2         3         9     9        0.000000       -1.485477         3
         1         2         3         9     9      180.000000       -0.443965         4
         1         2         3        22     9        0.000000       -0.051695         1
         1         2         3        22     9      180.000000       13.896893         2
         1         2         3        22     9        0.000000       -0.582597         3
         1         2         3        22     9      180.000000        0.104501         4
         1         5        13         4     9        0.000000        1.943510         1
         1         5        13         4     9      180.000000        8.245869         2
         1         5        13         4     9        0.000000        0.553648         3
         1         5        13         4     9      180.000000       -0.727358         4
         1         5        13        27     9        0.000000        0.256953         1
         1         5        13        27     9      180.000000        8.497288         2
         1         5        13        27     9        0.000000       -0.416932         3
         1         5        13        27     9      180.000000        0.234809         4
         1         8        10         9     9        0.000000       -0.076454         1
         1         8        10         9     9      180.000000       18.378655         2
         1         8        10         9     9        0.000000       -1.485477         3
         1         8        10         9     9      180.000000       -0.443965         4
         1         8        10        26     9        0.000000       -0.051695         1
         1         8        10        26     9      180.000000       13.896894         2
         1         8        10        26     9        0.000000       -0.582597         3
         1         8        10        26     9      180.000000        0.104501         4
         2         1         5        12     9        0.000000       -2.052614         1
         2         1         5        12     9      180.000000        1.139086         2
         2         1         5        12     9        0.000000        0.054306         3
         2         1         5        12     9      180.000000       -0.099915         4
         2         1         5        13     9        0.000000        0.440757         1
         2         1         5        13     9      180.000000       -0.113254         2
         2         1         5        13     9        0.000000        0.438440         3
         2         1         5        13     9      180.000000       -0.175863         4
         2         1         8        10     9        0.000000       -0.232741         1
         2         1         8        10     9      180.000000       16.722108         2
         2         1         8        10     9        0.000000       -1.528985         3
         2         1         8        10     9      180.000000       -0.338205         4
         2         1         8        21     9        0.000000        0.390196         1
         2         1         8        21     9      180.000000       17.596080         2
         2         1         8        21     9        0.000000        0.390762         3
         2         1         8        21     9      180.000000       -0.617838         4
         2         3         9        10     9        0.000000       -0.096937         1
         2         3         9        10     9      180.000000       18.601608         2
         2         3         9        10     9        0.000000       -1.549844         3
         2         3         9        10     9      180.000000       -0.460936         4
         2         3         9        25     9        0.000000        0.064500         1
         2         3         9        25     9      180.000000       14.350299         2
         2         3         9        25     9        0.000000       -0.619285         3
         2         3         9        25     9      180.000000        0.031010         4
         3         2         1         5     9        0.000000        0.221282         1
         3         2         1         5     9      180.000000       13.281605         2
         3         2         1         5     9        0.000000       -0.048385         3
         3         2         1         5     9      180.000000       -0.286210         4
         3         2         1         8     9        0.000000       -0.232741         1
         3         2         1         8     9      180.000000       16.722108         2
         3         2         1         8     9        0.000000       -1.528985         3
         3         2         1         8     9      180.000000       -0.338205         4
         3         9        10         8     9        0.000000       -0.096937         1
         3         9        10         8     9      180.000000       18.601608         2
         3         9        10         8     9        0.000000       -1.549844         3
         3         9        10         8     9      180.000000       -0.460936         4
         3         9        10        26     9        0.000000        0.044045         1
         3         9        10        26     9      180.000000       14.360884         2
         3         9        10        26     9        0.000000       -0.708188         3
         3         9        10        26     9      180.000000        0.127882         4
         4         6         7        14     9        0.000000       -0.097026         1
         4         6         7        14     9      180.000000       18.757270         2
         4         6         7        14     9        0.000000       -1.122167         3
         4         6         7        14     9      180.000000       -0.627964         4
         4         6         7        24     9        0.000000        0.173211         1
         4         6         7        24     9      180.000000       14.523484         2
         4         6         7        24     9        0.000000       -0.533298         3
         4         6         7        24     9      180.000000       -0.020321         4
         4        13         5        12     9        0.000000       -0.902764         1
         4        13         5        12     9      180.000000        9.869690         2
         4        13         5        12     9        0.000000        0.328250         3
         4        13         5        12     9      180.000000       -0.852134         4
         4        16        15        14     9        0.000000        0.169702         1
         4        16        15        14     9      180.000000       13.399947         2
         4        16        15        14     9        0.000000       -0.330061         3
         4        16        15        14     9      180.000000       -0.346028         4
         4        16        15        17     9        0.000000        0.545893         1
         4        16        15        17     9      180.000000       16.667023         2
         4        16        15        17     9        0.000000        0.346127         3
         4        16        15        17     9      180.000000       -0.674564         4
         5         1         2        11     9        0.000000        0.372587         1
         5         1         2        11     9      180.000000       14.761763         2
         5         1         2        11     9        0.000000        0.512397         3
         5         1         2        11     9      180.000000       -0.697437         4
         5         1         8        10     9        0.000000        0.221282         1
         5         1         8        10     9      180.000000       13.281605         2
         5         1         8        10     9        0.000000       -0.048385         3
         5         1         8        10     9      180.000000       -0.286210         4
         5         1         8        21     9        0.000000        0.372588         1
         5         1         8        21     9      180.000000       14.761763         2
         5         1         8        21     9        0.000000        0.512396         3
         5         1         8        21     9      180.000000       -0.697437         4
         5        13         4         6     9        0.000000       -0.079836         1
         5        13         4         6     9      180.000000        2.906425         2
         5        13         4         6     9        0.000000       -0.037766         3
         5        13         4         6     9      180.000000        0.090064         4
         5        13         4        16     9        0.000000        0.014914         1
         5        13         4        16     9      180.000000        2.893446         2
         5        13         4        16     9        0.000000       -0.060229         3
         5        13         4        16     9      180.000000        0.092184         4
         6         4        13        27     9        0.000000        0.349726         1
         6         4        13        27     9      180.000000        3.679211         2
         6         4        13        27     9        0.000000        0.254809         3
         6         4        13        27     9      180.000000        0.088175         4
         6         4        16        15     9        0.000000       -0.051855         1
         6         4        16        15     9      180.000000       15.867541         2
         6         4        16        15     9        0.000000       -1.081200         3
         6         4        16        15     9      180.000000       -0.302532         4
         6         4        16        28     9        0.000000       -0.010390         1
         6         4        16        28     9      180.000000       13.021707         2
         6         4        16        28     9        0.000000       -0.454151         3
         6         4        16        28     9      180.000000        0.184317         4
         6         7        14        15     9        0.000000       -0.063645         1
         6         7        14        15     9      180.000000       21.572796         2
         6         7        14        15     9        0.000000       -0.717173         3
         6         7        14        15     9      180.000000       -0.112309         4
         7         6         4        13     9        0.000000        0.368706         1
         7         6         4        13     9      180.000000       17.250912         2
         7         6         4        13     9        0.000000        0.281694         3
         7         6         4        13     9      180.000000       -0.473227         4
         7         6         4        16     9        0.000000        0.072432         1
         7         6         4        16     9      180.000000       16.601230         2
         7         6         4        16     9        0.000000       -1.259844         3
         7         6         4        16     9      180.000000       -0.359155         4
         7        14        15        16     9        0.000000        0.367295         1
         7        14        15        16     9      180.000000       22.364726         2
         7        14        15        16     9        0.000000       -0.121090         3
         7        14        15        16     9      180.000000       -0.220374         4
         7        14        15        17     9        0.000000        0.484048         1
         7        14        15        17     9      180.000000       29.800191         2
         7        14        15        17     9        0.000000        0.682042         3
         7        14        15        17     9      180.000000       -0.563995         4
         8         1         2        11     9        0.000000        0.390197         1
         8         1         2        11     9      180.000000       17.596084         2
         8         1         2        11     9        0.000000        0.390763         3
         8         1         2        11     9      180.000000       -0.617838         4
         8         1         5        12     9        0.000000       -2.052614         1
         8         1         5        12     9      180.000000        1.139086         2
         8         1         5        12     9        0.000000        0.054306         3
         8         1         5        12     9      180.000000       -0.099915         4
         8         1         5        13     9        0.000000        0.440757         1
         8         1         5        13     9      180.000000       -0.113254         2
         8         1         5        13     9        0.000000        0.438440         3
         8         1         5        13     9      180.000000       -0.175863         4
         8        10         9        25     9        0.000000        0.064500         1
         8        10         9        25     9      180.000000       14.350299         2
         8        10         9        25     9        0.000000       -0.619285         3
         8        10         9        25     9      180.000000        0.031010         4
         9         3         2        11     9        0.000000        0.358058         1
         9         3         2        11     9      180.000000       20.681090         2
         9         3         2        11     9        0.000000        0.483238         3
         9         3         2        11     9      180.000000       -0.652499         4
         9        10         8        21     9        0.000000        0.358057         1
         9        10         8        21     9      180.000000       20.681092         2
         9        10         8        21     9        0.000000        0.483238         3
         9        10         8        21     9      180.000000       -0.652500         4
        10         9         3        22     9        0.000000        0.044045         1
        10         9         3        22     9      180.000000       14.360883         2
        10         9         3        22     9        0.000000       -0.708188         3
        10         9         3        22     9      180.000000        0.127882         4
        11         2         3        22     9        0.000000        0.034849         1
        11         2         3        22     9      180.000000       14.545328         2
        11         2         3        22     9        0.000000        0.037854         3
        11         2         3        22     9      180.000000        0.281396         4
        12         5        13        27     9        0.000000        0.189370         1
        12         5        13        27     9      180.000000       11.938541         2
        12         5        13        27     9        0.000000        0.390839         3
        12         5        13        27     9      180.000000        0.857293         4
        13         4         6        23     9        0.000000       -0.139266         1
        13         4         6        23     9      180.000000       13.649156         2
        13         4         6        23     9        0.000000       -0.068755         3
        13         4         6        23     9      180.000000        0.190415         4
        13         4        16        15     9        0.000000        0.339015         1
        13         4        16        15     9      180.000000       16.843649         2
        13         4        16        15     9        0.000000        0.186825         3
        13         4        16        15     9      180.000000       -0.521513         4
        13         4        16        28     9        0.000000       -0.212065         1
        13         4        16        28     9      180.000000       13.863605         2
        13         4        16        28     9        0.000000       -0.143058         3
        13         4        16        28     9      180.000000        0.223504         4
        14         7         6        23     9        0.000000        0.144766         1
        14         7         6        23     9      180.000000       15.688896         2
        14         7         6        23     9        0.000000       -0.242985         3
        14         7         6        23     9      180.000000       -0.119580         4
        14        15        16        28     9        0.000000       -0.091386         1
        14        15        16        28     9      180.000000       11.802198         2
        14        15        16        28     9        0.000000       -0.128648         3
        14        15        16        28     9      180.000000       -0.175448         4
        14        15        17        18     9        0.000000       -0.629938         1
        14        15        17        18     9      180.000000        4.309858         2
        14        15        17        18     9        0.000000        0.110703         3
        14        15        17        18     9      180.000000       -0.067981         4
        14        15        17        29     9        0.000000        2.148844         1
        14        15        17        29     9      180.000000        3.416088         2
        14        15        17        29     9        0.000000        0.029585         3
        14        15        17        29     9      180.000000       -0.189846         4
        15        14         7        24     9        0.000000        1.677551         1
        15        14         7        24     9      180.000000       20.610091         2
        15        14         7        24     9        0.000000        0.232970         3
        15        14         7        24     9      180.000000       -0.261206         4
        15        17        18        19     9        0.000000       -1.817227         1
        15        17        18        19     9      180.000000       10.337516         2
        15        17        18        19     9        0.000000       -0.273936         3
        15        17        18        19     9      180.000000       -0.231196         4
        15        17        18        20     9        0.000000        1.903107         1
        15        17        18        20     9      180.000000        9.113217         2
        15        17        18        20     9        0.000000        0.525216         3
        15        17        18        20     9      180.000000       -0.723908         4
        16         4         6        23     9        0.000000        0.122029         1
        16         4         6        23     9      180.000000       13.164135         2
        16         4         6        23     9        0.000000       -0.486827         3
        16         4         6        23     9      180.000000        0.121131         4
        16         4        13        27     9        0.000000        0.958864         1
        16         4        13        27     9      180.000000        3.697166         2
        16         4        13        27     9        0.000000        0.260531         3
        16         4        13        27     9      180.000000        0.085054         4
        16        15        17        18     9        0.000000        0.877725         1
        16        15        17        18     9      180.000000        3.009878         2
        16        15        17        18     9        0.000000        0.039323         3
        16        15        17        18     9      180.000000        0.059941         4
        16        15        17        29     9        0.000000        0.858125         1
        16        15        17        29     9      180.000000        4.373774         2
        16        15        17        29     9        0.000000        0.944638         3
        16        15        17        29     9      180.000000        0.075342         4
        17        15        16        28     9        0.000000        0.242809         1
        17        15        16        28     9      180.000000       13.267009         2
        17        15        16        28     9        0.000000       -0.210438         3
        17        15        16        28     9      180.000000        0.189584         4
        17        18        20        30     9        0.000000       -0.021118         1
        17        18        20        30     9      180.000000       -0.349935         2
        17        18        20        30     9        0.000000        0.022464         3
        17        18        20        30     9      180.000000        0.089807         4
        17        18        20        31     9        0.000000       -0.021118         1
        17        18        20        31     9      180.000000       -0.349935         2
        17        18        20        31     9        0.000000        0.022464         3
        17        18        20        31     9      180.000000        0.089807         4
        17        18        20        32     9        0.000000        1.939515         1
        17        18        20        32     9      180.000000        2.705775         2
        17        18        20        32     9        0.000000        0.279846         3
        17        18        20        32     9      180.000000       -0.039824         4
        18        20        32        33     9        0.000000       -0.555343         1
        18        20        32        33     9      180.000000       -1.887790         2
        18        20        32        33     9        0.000000        0.497859         3
        18        20        32        33     9      180.000000        0.151548         4
        19        18        17        29     9        0.000000        0.093954         1
        19        18        17        29     9      180.000000       11.083291         2
        19        18        17        29     9        0.000000        0.252941         3
        19        18        17        29     9      180.000000        1.120402         4
        19        18        20        30     9        0.000000        0.389990         1
        19        18        20        30     9      180.000000       -0.261626         2
        19        18        20        30     9        0.000000       -0.042551         3
        19        18        20        30     9      180.000000        0.102183         4
        19        18        20        31     9        0.000000        0.389990         1
        19        18        20        31     9      180.000000       -0.261626         2
        19        18        20        31     9        0.000000       -0.042551         3
        19        18        20        31     9      180.000000        0.102183         4
        19        18        20        32     9        0.000000       -0.979033         1
        19        18        20        32     9      180.000000        2.305579         2
        19        18        20        32     9        0.000000        0.012988         3
        19        18        20        32     9      180.000000        0.180647         4
        20        18        17        29     9        0.000000        1.734058         1
        20        18        17        29     9      180.000000        8.821694         2
        20        18        17        29     9        0.000000        0.278354         3
        20        18        17        29     9      180.000000        0.353961         4
        21         8        10        26     9        0.000000        0.034847         1
        21         8        10        26     9      180.000000       14.545326         2
        21         8        10        26     9        0.000000        0.037853         3
        21         8        10        26     9      180.000000        0.281397         4
        22         3         9        25     9        0.000000       -0.249552         1
        22         3         9        25     9      180.000000       11.261506         2
        22         3         9        25     9        0.000000       -0.621949         3
        22         3         9        25     9      180.000000        0.273003         4
        23         6         7        24     9        0.000000        0.015584         1
        23         6         7        24     9      180.000000       11.951684         2
        23         6         7        24     9        0.000000       -0.725462         3
        23         6         7        24     9      180.000000        0.280129         4
        25         9        10        26     9        0.000000       -0.249552         1
        25         9        10        26     9      180.000000       11.261506         2
        25         9        10        26     9        0.000000       -0.621950         3
        25         9        10        26     9      180.000000        0.273003         4
        30        20        32        33     9        0.000000       -0.373692         1
        30        20        32        33     9      180.000000        0.135143         2
        30        20        32        33     9        0.000000        0.638259         3
        30        20        32        33     9      180.000000        0.048991         4
        31        20        32        33     9        0.000000       -0.373692         1
        31        20        32        33     9      180.000000        0.135143         2
        31        20        32        33     9        0.000000        0.638259         3
        31        20        32        33     9      180.000000        0.048991         4

[ dihedrals ] ; impropers
;       ai        aj        ak        al funct           phase               k        pn
         5         1        12        13     4      180.000000       27.893333         2
         5        12        13         1     4      180.000000       27.893333         2
         5        13         1        12     4      180.000000       27.893333         2
         7         6        14        24     4      180.000000        1.496355         2
         7        14        24         6     4      180.000000        1.496355         2
         7        24         6        14     4      180.000000        1.496355         2
         9         3        10        25     4      180.000000        0.827180         2
         9        10        25         3     4      180.000000        0.827180         2
         9        25         3        10     4      180.000000        0.827180         2
        15        14        16        17     4      180.000000        2.100812         2
        15        16        17        14     4      180.000000        2.100812         2
        15        17        14        16     4      180.000000        2.100812         2
        18        17        19        20     4      180.000000       27.893333         2
        18        19        20        17     4      180.000000       27.893333         2
        18        20        17        19     4      180.000000       27.893333         2

[ pairs ]
;       ai        aj funct
         1         4     1
         1         9     1
         1        22     1
         1        26     1
         1        27     1
         2        10     1
         2        12     1
         2        13     1
         2        21     1
         2        25     1
         3         5     1
         3         8     1
         3        26     1
         4        12     1
         4        14     1
         4        17     1
         4        24     1
         5         6     1
         5        10     1
         5        11     1
         5        16     1
         5        21     1
         6        15     1
         6        27     1
         6        28     1
         7        13     1
         7        16     1
         7        17     1
         8        11     1
         8        12     1
         8        13     1
         8        25     1
         9        11     1
         9        21     1
        10        22     1
        11        22     1
        12        27     1
        13        15     1
        13        23     1
        13        28     1
        14        18     1
        14        23     1
        14        28     1
        14        29     1
        15        19     1
        15        20     1
        15        24     1
        16        18     1
        16        23     1
        16        27     1
        16        29     1
        17        28     1
        17        30     1
        17        31     1
        17        32     1
        18        33     1
        19        29     1
        19        30     1
        19        31     1
        19        32     1
        20        29     1
        21        26     1
        22        25     1
        23        24     1
        25        26     1
        30        33     1
        31        33     1
