; ITP file created by ByteFF-ML, 2026-02-21 08:25:43.640646

[ atomtypes ]
;name           bonded.type        at.num        mass        charge   ptype           sigma         epsilon
 c0bf                                   6      0.0000       0.00000       A     3.31516e-01     4.11633e-01
 c1bf                                   6      0.0000       0.00000       A     3.31469e-01     4.12823e-01
 c2bf                                   6      0.0000       0.00000       A     3.31513e-01     4.12453e-01
 c3bf                                   6      0.0000       0.00000       A     3.31446e-01     4.15754e-01
 c4bf                                   6      0.0000       0.00000       A     3.31246e-01     4.10396e-01
 c5bf                                   6      0.0000       0.00000       A     3.31459e-01     4.12049e-01
 c6bf                                   6      0.0000       0.00000       A     3.31385e-01     4.12672e-01
 c7bf                                   6      0.0000       0.00000       A     3.31469e-01     4.12823e-01
 c8bf                                   6      0.0000       0.00000       A     3.31444e-01     4.13066e-01
 c9bf                                   6      0.0000       0.00000       A     3.31513e-01     4.12453e-01
 cl10bf                                17      0.0000       0.00000       A     3.46557e-01     1.10332e+00
 o11bf                                  8      0.0000       0.00000       A     3.04688e-01     6.11596e-01
 n12bf                                  7      0.0000       0.00000       A     3.27190e-01     4.85938e-01
 n13bf                                  7      0.0000       0.00000       A     3.38321e-01     3.92818e-01
 c14bf                                  6      0.0000       0.00000       A     3.31537e-01     4.13037e-01
 c15bf                                  6      0.0000       0.00000       A     3.31301e-01     4.14636e-01
 n16bf                                  7      0.0000       0.00000       A     3.26869e-01     4.88801e-01
 c17bf                                  6      0.0000       0.00000       A     3.31224e-01     4.12266e-01
 o18bf                                  8      0.0000       0.00000       A     3.04504e-01     6.11668e-01
 cl19bf                                17      0.0000       0.00000       A     3.46557e-01     1.10332e+00
 h20bf                                  1      0.0000       0.00000       A     2.62472e-01     6.72807e-02
 h21bf                                  1      0.0000       0.00000       A     2.62569e-01     6.73892e-02
 h22bf                                  1      0.0000       0.00000       A     2.53603e-01     6.75872e-02
 h23bf                                  1      0.0000       0.00000       A     2.62442e-01     6.71179e-02
 h24bf                                  1      0.0000       0.00000       A     2.62472e-01     6.72807e-02
 h25bf                                  1      0.0000       0.00000       A     1.10552e-01     4.15186e-02
 h26bf                                  1      0.0000       0.00000       A     2.62698e-01     6.80197e-02
 h27bf                                  1      0.0000       0.00000       A     1.10466e-01     3.95825e-02
 c28bf                                  6      0.0000       0.00000       A     3.31481e-01     4.13004e-01
 c29bf                                  6      0.0000       0.00000       A     3.31496e-01     4.12854e-01
 c30bf                                  6      0.0000       0.00000       A     3.31502e-01     4.12833e-01
 c31bf                                  6      0.0000       0.00000       A     3.31496e-01     4.13128e-01
 c32bf                                  6      0.0000       0.00000       A     3.31502e-01     4.12833e-01
 c33bf                                  6      0.0000       0.00000       A     3.31496e-01     4.12854e-01
 h34bf                                  1      0.0000       0.00000       A     2.62457e-01     6.73477e-02
 h35bf                                  1      0.0000       0.00000       A     2.62457e-01     6.74531e-02
 h36bf                                  1      0.0000       0.00000       A     2.62499e-01     6.70748e-02
 h37bf                                  1      0.0000       0.00000       A     2.62499e-01     6.70748e-02
 h38bf                                  1      0.0000       0.00000       A     2.62457e-01     6.74531e-02

[ moleculetype ]
;name             nrexcl
 ejm_49                3

[ atoms ]
;       nr            type      resi   res      atom      cgnr      charge          mass ; qtot
         1            c0bf         1   UNL        c0         1    -0.13969       12.0110 ; qtot   -0.140
         2            c1bf         1   UNL        c1         2     0.15319       12.0110 ; qtot    0.013
         3            c2bf         1   UNL        c2         3    -0.10353       12.0110 ; qtot   -0.090
         4            c3bf         1   UNL        c3         4     0.03983       12.0110 ; qtot   -0.050
         5            c4bf         1   UNL        c4         5     0.63693       12.0110 ; qtot    0.587
         6            c5bf         1   UNL        c5         6    -0.22521       12.0110 ; qtot    0.362
         7            c6bf         1   UNL        c6         7     0.39062       12.0110 ; qtot    0.752
         8            c7bf         1   UNL        c7         8     0.15319       12.0110 ; qtot    0.905
         9            c8bf         1   UNL        c8         9    -0.08095       12.0110 ; qtot    0.824
        10            c9bf         1   UNL        c9        10    -0.10353       12.0110 ; qtot    0.721
        11          cl10bf         1   UNL      cl10        11    -0.18538       35.4530 ; qtot    0.535
        12           o11bf         1   UNL       o11        12    -0.54820       15.9990 ; qtot   -0.013
        13           n12bf         1   UNL       n12        13    -0.14723       14.0070 ; qtot   -0.160
        14           n13bf         1   UNL       n13        14    -0.72095       14.0070 ; qtot   -0.881
        15           c14bf         1   UNL       c14        15     0.49715       12.0110 ; qtot   -0.384
        16           c15bf         1   UNL       c15        16    -0.21891       12.0110 ; qtot   -0.603
        17           n16bf         1   UNL       n16        17    -0.32627       14.0070 ; qtot   -0.929
        18           c17bf         1   UNL       c17        18     0.62657       12.0110 ; qtot   -0.302
        19           o18bf         1   UNL       o18        19    -0.56527       15.9990 ; qtot   -0.868
        20          cl19bf         1   UNL      cl19        20    -0.18538       35.4530 ; qtot   -1.053
        21           h20bf         1   UNL       h20        21     0.13919        1.0080 ; qtot   -0.914
        22           h21bf         1   UNL       h21        22     0.14093        1.0080 ; qtot   -0.773
        23           h22bf         1   UNL       h22        23     0.02391        1.0080 ; qtot   -0.749
        24           h23bf         1   UNL       h23        24     0.12973        1.0080 ; qtot   -0.619
        25           h24bf         1   UNL       h24        25     0.13919        1.0080 ; qtot   -0.480
        26           h25bf         1   UNL       h25        26     0.17125        1.0080 ; qtot   -0.309
        27           h26bf         1   UNL       h26        27     0.15908        1.0080 ; qtot   -0.150
        28           h27bf         1   UNL       h27        28     0.16979        1.0080 ; qtot    0.020
        29           c28bf         1   UNL       c28        29    -0.08696       12.0110 ; qtot   -0.067
        30           c29bf         1   UNL       c29        30    -0.12191       12.0110 ; qtot   -0.189
        31           c30bf         1   UNL       c30        31    -0.06837       12.0110 ; qtot   -0.257
        32           c31bf         1   UNL       c31        32    -0.15746       12.0110 ; qtot   -0.415
        33           c32bf         1   UNL       c32        33    -0.06837       12.0110 ; qtot   -0.483
        34           c33bf         1   UNL       c33        34    -0.12191       12.0110 ; qtot   -0.605
        35           h34bf         1   UNL       h34        35     0.11570        1.0080 ; qtot   -0.489
        36           h35bf         1   UNL       h35        36     0.11880        1.0080 ; qtot   -0.370
        37           h36bf         1   UNL       h36        37     0.12583        1.0080 ; qtot   -0.245
        38           h37bf         1   UNL       h37        38     0.12583        1.0080 ; qtot   -0.119
        39           h38bf         1   UNL       h38        39     0.11877        1.0080 ; qtot    0.000

[ bonds ]
;       ai        aj funct               r               k
         1         2     1        0.140153   273317.935791
         1         5     1        0.151711   166028.776025
         1         8     1        0.140153   273317.935791
         2         3     1        0.139601   303384.741016
         2        11     1        0.175680   146917.122583
         3         9     1        0.139552   310746.655518
         3        21     1        0.108433   325893.481201
         4         6     1        0.140513   286751.119287
         4        13     1        0.140524   250238.798730
         4        16     1        0.139968   297884.532861
         5        12     1        0.122463   630902.561133
         5        13     1        0.137080   280552.062598
         6         7     1        0.139256   310098.600293
         6        22     1        0.108288   328862.757520
         7        14     1        0.133838   332785.768262
         7        23     1        0.108846   313284.405762
         8        10     1        0.139601   303384.741016
         8        20     1        0.175680   146917.122583
         9        10     1        0.139552   310746.655518
         9        24     1        0.108532   324260.434131
        10        25     1        0.108433   325893.481201
        13        26     1        0.101272   414819.901562
        14        15     1        0.133859   294938.954980
        15        16     1        0.140302   278132.855615
        15        17     1        0.140553   241514.147461
        16        27     1        0.108103   332355.825488
        17        18     1        0.138274   245470.560742
        17        28     1        0.101231   416453.535986
        18        19     1        0.122854   607357.754883
        18        32     1        0.150214   174918.333179
        29        30     1        0.139966   305314.222852
        29        34     1        0.139966   305314.197314
        29        35     1        0.108620   320508.190039
        30        31     1        0.139637   316485.022754
        30        36     1        0.108614   320243.778809
        31        32     1        0.140419   291587.260449
        31        37     1        0.108540   321177.619824
        32        33     1        0.140419   291587.260449
        33        34     1        0.139637   316485.022754
        33        38     1        0.108540   321177.619824
        34        39     1        0.108614   320243.778809

[ angles ]
;       ai        aj        ak funct           theta             cth
         1         2         3     1      121.751663      655.182887
         1         2        11     1      119.792053      319.960477
         1         5        12     1      120.784958      604.796191
         1         5        13     1      113.460876      443.006218
         1         8        10     1      121.751663      655.182887
         1         8        20     1      119.792053      319.960477
         2         1         5     1      121.186684      614.373182
         2         1         8     1      117.581833      636.725686
         2         3         9     1      119.116493      651.293458
         2         3        21     1      119.837120      399.290326
         3         2        11     1      118.196632      386.667588
         3         9        10     1      120.469688      692.783216
         3         9        24     1      119.783386      428.127021
         4         6         7     1      117.801376      807.940832
         4         6        22     1      121.420532      455.652322
         4        13         5     1      128.688263      489.007969
         4        13        26     1      115.373009      446.250612
         4        16        15     1      117.966751      849.178348
         4        16        27     1      120.900314      420.156251
         5         1         8     1      121.186684      614.373182
         5        13        26     1      116.072533      474.421204
         6         4        13     1      120.826538      611.104943
         6         4        16     1      118.445091      586.308026
         6         7        14     1      124.733017      698.421172
         6         7        23     1      119.546288      417.474184
         7         6        22     1      120.837181      432.142636
         7        14        15     1      117.130173      780.890649
         8        10         9     1      119.116493      651.293458
         8        10        25     1      119.837120      399.290326
         9         3        21     1      120.963646      425.124974
         9        10        25     1      120.963646      425.124974
        10         8        20     1      118.196632      386.667588
        10         9        24     1      119.783386      428.127021
        12         5        13     1      125.471703      605.741958
        13         4        16     1      120.265396      497.461710
        14         7        23     1      115.675308      404.908075
        14        15        16     1      123.866440      577.648010
        14        15        17     1      113.243286      630.961258
        15        16        27     1      120.282120      443.166559
        15        17        18     1      128.712814      509.724214
        15        17        28     1      112.742638      461.837538
        16        15        17     1      121.831627      482.751026
        17        18        19     1      123.471115      618.677015
        17        18        32     1      114.676941      460.899879
        18        17        28     1      118.114563      410.696922
        18        32        31     1      120.276367      544.991282
        18        32        33     1      120.276367      544.991282
        19        18        32     1      121.678543      655.736659
        29        30        31     1      120.071426      722.212053
        29        30        36     1      120.081055      442.456915
        29        34        33     1      120.071426      722.212053
        29        34        39     1      120.081055      442.456979
        30        29        34     1      119.845482      671.092443
        30        29        35     1      120.118607      427.282637
        30        31        32     1      120.271523      678.688520
        30        31        37     1      120.112869      422.667538
        31        30        36     1      119.856056      437.677102
        31        32        33     1      119.318321      640.541058
        32        31        37     1      119.656799      408.141807
        32        33        34     1      120.271523      678.688456
        32        33        38     1      119.656799      408.141807
        33        34        39     1      119.856056      437.677102
        34        29        35     1      120.118607      427.282637
        34        33        38     1      120.112869      422.667538

[ dihedrals ] ; propers for gromacs 4.5 or higher, use funct 9
;       ai        aj        ak        al funct           phase               k        pn
         1         2         3         9     9        0.000000       -0.076454         1
         1         2         3         9     9      180.000000       18.378655         2
         1         2         3         9     9        0.000000       -1.485477         3
         1         2         3         9     9      180.000000       -0.443965         4
         1         2         3        21     9        0.000000       -0.051695         1
         1         2         3        21     9      180.000000       13.896893         2
         1         2         3        21     9        0.000000       -0.582597         3
         1         2         3        21     9      180.000000        0.104501         4
         1         5        13         4     9        0.000000        1.943510         1
         1         5        13         4     9      180.000000        8.245869         2
         1         5        13         4     9        0.000000        0.553648         3
         1         5        13         4     9      180.000000       -0.727358         4
         1         5        13        26     9        0.000000        0.256954         1
         1         5        13        26     9      180.000000        8.497290         2
         1         5        13        26     9        0.000000       -0.416932         3
         1         5        13        26     9      180.000000        0.234809         4
         1         8        10         9     9        0.000000       -0.076454         1
         1         8        10         9     9      180.000000       18.378655         2
         1         8        10         9     9        0.000000       -1.485477         3
         1         8        10         9     9      180.000000       -0.443965         4
         1         8        10        25     9        0.000000       -0.051695         1
         1         8        10        25     9      180.000000       13.896893         2
         1         8        10        25     9        0.000000       -0.582597         3
         1         8        10        25     9      180.000000        0.104501         4
         2         1         5        12     9        0.000000       -2.052614         1
         2         1         5        12     9      180.000000        1.139086         2
         2         1         5        12     9        0.000000        0.054306         3
         2         1         5        12     9      180.000000       -0.099915         4
         2         1         5        13     9        0.000000        0.440757         1
         2         1         5        13     9      180.000000       -0.113254         2
         2         1         5        13     9        0.000000        0.438440         3
         2         1         5        13     9      180.000000       -0.175863         4
         2         1         8        10     9        0.000000       -0.232741         1
         2         1         8        10     9      180.000000       16.722108         2
         2         1         8        10     9        0.000000       -1.528985         3
         2         1         8        10     9      180.000000       -0.338205         4
         2         1         8        20     9        0.000000        0.390197         1
         2         1         8        20     9      180.000000       17.596084         2
         2         1         8        20     9        0.000000        0.390763         3
         2         1         8        20     9      180.000000       -0.617838         4
         2         3         9        10     9        0.000000       -0.096937         1
         2         3         9        10     9      180.000000       18.601608         2
         2         3         9        10     9        0.000000       -1.549844         3
         2         3         9        10     9      180.000000       -0.460936         4
         2         3         9        24     9        0.000000        0.064500         1
         2         3         9        24     9      180.000000       14.350299         2
         2         3         9        24     9        0.000000       -0.619285         3
         2         3         9        24     9      180.000000        0.031010         4
         3         2         1         5     9        0.000000        0.221282         1
         3         2         1         5     9      180.000000       13.281605         2
         3         2         1         5     9        0.000000       -0.048385         3
         3         2         1         5     9      180.000000       -0.286210         4
         3         2         1         8     9        0.000000       -0.232741         1
         3         2         1         8     9      180.000000       16.722108         2
         3         2         1         8     9        0.000000       -1.528985         3
         3         2         1         8     9      180.000000       -0.338205         4
         3         9        10         8     9        0.000000       -0.096937         1
         3         9        10         8     9      180.000000       18.601608         2
         3         9        10         8     9        0.000000       -1.549844         3
         3         9        10         8     9      180.000000       -0.460936         4
         3         9        10        25     9        0.000000        0.044045         1
         3         9        10        25     9      180.000000       14.360883         2
         3         9        10        25     9        0.000000       -0.708188         3
         3         9        10        25     9      180.000000        0.127882         4
         4         6         7        14     9        0.000000       -0.104672         1
         4         6         7        14     9      180.000000       18.740906         2
         4         6         7        14     9        0.000000       -1.123463         3
         4         6         7        14     9      180.000000       -0.623572         4
         4         6         7        23     9        0.000000        0.173211         1
         4         6         7        23     9      180.000000       14.523484         2
         4         6         7        23     9        0.000000       -0.533298         3
         4         6         7        23     9      180.000000       -0.020321         4
         4        13         5        12     9        0.000000       -0.902764         1
         4        13         5        12     9      180.000000        9.869690         2
         4        13         5        12     9        0.000000        0.328250         3
         4        13         5        12     9      180.000000       -0.852134         4
         4        16        15        14     9        0.000000        0.083666         1
         4        16        15        14     9      180.000000       13.385843         2
         4        16        15        14     9        0.000000       -0.341233         3
         4        16        15        14     9      180.000000       -0.357336         4
         4        16        15        17     9        0.000000        0.412209         1
         4        16        15        17     9      180.000000       15.605113         2
         4        16        15        17     9        0.000000        0.352140         3
         4        16        15        17     9      180.000000       -0.547867         4
         5         1         2        11     9        0.000000        0.372587         1
         5         1         2        11     9      180.000000       14.761763         2
         5         1         2        11     9        0.000000        0.512397         3
         5         1         2        11     9      180.000000       -0.697437         4
         5         1         8        10     9        0.000000        0.221282         1
         5         1         8        10     9      180.000000       13.281605         2
         5         1         8        10     9        0.000000       -0.048385         3
         5         1         8        10     9      180.000000       -0.286210         4
         5         1         8        20     9        0.000000        0.372587         1
         5         1         8        20     9      180.000000       14.761763         2
         5         1         8        20     9        0.000000        0.512397         3
         5         1         8        20     9      180.000000       -0.697437         4
         5        13         4         6     9        0.000000       -0.079836         1
         5        13         4         6     9      180.000000        2.906425         2
         5        13         4         6     9        0.000000       -0.037766         3
         5        13         4         6     9      180.000000        0.090064         4
         5        13         4        16     9        0.000000        0.014902         1
         5        13         4        16     9      180.000000        2.904943         2
         5        13         4        16     9        0.000000       -0.069359         3
         5        13         4        16     9      180.000000        0.094487         4
         6         4        13        26     9        0.000000        0.349725         1
         6         4        13        26     9      180.000000        3.679210         2
         6         4        13        26     9        0.000000        0.254809         3
         6         4        13        26     9      180.000000        0.088175         4
         6         4        16        15     9        0.000000       -0.021272         1
         6         4        16        15     9      180.000000       15.844933         2
         6         4        16        15     9        0.000000       -1.061287         3
         6         4        16        15     9      180.000000       -0.307681         4
         6         4        16        27     9        0.000000       -0.018111         1
         6         4        16        27     9      180.000000       13.037334         2
         6         4        16        27     9        0.000000       -0.462624         3
         6         4        16        27     9      180.000000        0.185206         4
         6         7        14        15     9        0.000000        0.001796         1
         6         7        14        15     9      180.000000       21.506990         2
         6         7        14        15     9        0.000000       -0.786018         3
         6         7        14        15     9      180.000000       -0.093148         4
         7         6         4        13     9        0.000000        0.368706         1
         7         6         4        13     9      180.000000       17.250912         2
         7         6         4        13     9        0.000000        0.281694         3
         7         6         4        13     9      180.000000       -0.473227         4
         7         6         4        16     9        0.000000        0.068214         1
         7         6         4        16     9      180.000000       16.593790         2
         7         6         4        16     9        0.000000       -1.243765         3
         7         6         4        16     9      180.000000       -0.360840         4
         7        14        15        16     9        0.000000        0.362432         1
         7        14        15        16     9      180.000000       22.347919         2
         7        14        15        16     9        0.000000       -0.047940         3
         7        14        15        16     9      180.000000       -0.235320         4
         7        14        15        17     9        0.000000        0.549295         1
         7        14        15        17     9      180.000000       28.070375         2
         7        14        15        17     9        0.000000        0.881385         3
         7        14        15        17     9      180.000000       -0.460698         4
         8         1         2        11     9        0.000000        0.390197         1
         8         1         2        11     9      180.000000       17.596084         2
         8         1         2        11     9        0.000000        0.390763         3
         8         1         2        11     9      180.000000       -0.617838         4
         8         1         5        12     9        0.000000       -2.052614         1
         8         1         5        12     9      180.000000        1.139086         2
         8         1         5        12     9        0.000000        0.054306         3
         8         1         5        12     9      180.000000       -0.099915         4
         8         1         5        13     9        0.000000        0.440757         1
         8         1         5        13     9      180.000000       -0.113254         2
         8         1         5        13     9        0.000000        0.438440         3
         8         1         5        13     9      180.000000       -0.175863         4
         8        10         9        24     9        0.000000        0.064500         1
         8        10         9        24     9      180.000000       14.350299         2
         8        10         9        24     9        0.000000       -0.619285         3
         8        10         9        24     9      180.000000        0.031010         4
         9         3         2        11     9        0.000000        0.358058         1
         9         3         2        11     9      180.000000       20.681090         2
         9         3         2        11     9        0.000000        0.483238         3
         9         3         2        11     9      180.000000       -0.652499         4
         9        10         8        20     9        0.000000        0.358058         1
         9        10         8        20     9      180.000000       20.681090         2
         9        10         8        20     9        0.000000        0.483238         3
         9        10         8        20     9      180.000000       -0.652499         4
        10         9         3        21     9        0.000000        0.044045         1
        10         9         3        21     9      180.000000       14.360883         2
        10         9         3        21     9        0.000000       -0.708188         3
        10         9         3        21     9      180.000000        0.127882         4
        11         2         3        21     9        0.000000        0.034849         1
        11         2         3        21     9      180.000000       14.545328         2
        11         2         3        21     9        0.000000        0.037854         3
        11         2         3        21     9      180.000000        0.281396         4
        12         5        13        26     9        0.000000        0.189371         1
        12         5        13        26     9      180.000000       11.938538         2
        12         5        13        26     9        0.000000        0.390839         3
        12         5        13        26     9      180.000000        0.857293         4
        13         4         6        22     9        0.000000       -0.139266         1
        13         4         6        22     9      180.000000       13.649156         2
        13         4         6        22     9        0.000000       -0.068755         3
        13         4         6        22     9      180.000000        0.190415         4
        13         4        16        15     9        0.000000        0.319644         1
        13         4        16        15     9      180.000000       16.856699         2
        13         4        16        15     9        0.000000        0.159918         3
        13         4        16        15     9      180.000000       -0.534561         4
        13         4        16        27     9        0.000000       -0.225332         1
        13         4        16        27     9      180.000000       13.805419         2
        13         4        16        27     9        0.000000       -0.149809         3
        13         4        16        27     9      180.000000        0.231600         4
        14         7         6        22     9        0.000000        0.148712         1
        14         7         6        22     9      180.000000       15.642729         2
        14         7         6        22     9        0.000000       -0.245888         3
        14         7         6        22     9      180.000000       -0.122136         4
        14        15        16        27     9        0.000000       -0.114839         1
        14        15        16        27     9      180.000000       11.571473         2
        14        15        16        27     9        0.000000       -0.151963         3
        14        15        16        27     9      180.000000       -0.153085         4
        14        15        17        18     9        0.000000       -1.225407         1
        14        15        17        18     9      180.000000        4.404216         2
        14        15        17        18     9        0.000000        0.079001         3
        14        15        17        18     9      180.000000       -0.142542         4
        14        15        17        28     9        0.000000        2.655389         1
        14        15        17        28     9      180.000000        3.503491         2
        14        15        17        28     9        0.000000        1.027351         3
        14        15        17        28     9      180.000000       -0.548007         4
        15        14         7        23     9        0.000000        1.669063         1
        15        14         7        23     9      180.000000       20.484788         2
        15        14         7        23     9        0.000000        0.200853         3
        15        14         7        23     9      180.000000       -0.150730         4
        15        17        18        19     9        0.000000       -3.103144         1
        15        17        18        19     9      180.000000        7.370353         2
        15        17        18        19     9        0.000000       -0.246643         3
        15        17        18        19     9      180.000000       -0.122025         4
        15        17        18        32     9        0.000000        1.834377         1
        15        17        18        32     9      180.000000        8.671028         2
        15        17        18        32     9        0.000000        0.897537         3
        15        17        18        32     9      180.000000       -0.390707         4
        16         4         6        22     9        0.000000        0.123764         1
        16         4         6        22     9      180.000000       13.136794         2
        16         4         6        22     9        0.000000       -0.483805         3
        16         4         6        22     9      180.000000        0.118991         4
        16         4        13        26     9        0.000000        0.958692         1
        16         4        13        26     9      180.000000        3.704160         2
        16         4        13        26     9        0.000000        0.250011         3
        16         4        13        26     9      180.000000        0.082296         4
        16        15        17        18     9        0.000000       -0.061413         1
        16        15        17        18     9      180.000000        3.328523         2
        16        15        17        18     9        0.000000       -0.054459         3
        16        15        17        18     9      180.000000       -0.070031         4
        16        15        17        28     9        0.000000        0.012073         1
        16        15        17        28     9      180.000000        3.955370         2
        16        15        17        28     9        0.000000        0.145326         3
        16        15        17        28     9      180.000000       -0.445320         4
        17        15        16        27     9        0.000000        0.078119         1
        17        15        16        27     9      180.000000       12.813147         2
        17        15        16        27     9        0.000000       -0.132684         3
        17        15        16        27     9      180.000000        0.153538         4
        17        18        32        31     9        0.000000        0.084687         1
        17        18        32        31     9      180.000000        2.686400         2
        17        18        32        31     9        0.000000       -0.061390         3
        17        18        32        31     9      180.000000       -0.153922         4
        17        18        32        33     9        0.000000        0.084687         1
        17        18        32        33     9      180.000000        2.686400         2
        17        18        32        33     9        0.000000       -0.061390         3
        17        18        32        33     9      180.000000       -0.153922         4
        18        32        31        30     9        0.000000        0.147146         1
        18        32        31        30     9      180.000000       14.062635         2
        18        32        31        30     9        0.000000       -0.221373         3
        18        32        31        30     9      180.000000       -0.244322         4
        18        32        31        37     9        0.000000        0.079999         1
        18        32        31        37     9      180.000000       12.423124         2
        18        32        31        37     9        0.000000       -0.345887         3
        18        32        31        37     9      180.000000        0.095743         4
        18        32        33        34     9        0.000000        0.147146         1
        18        32        33        34     9      180.000000       14.062634         2
        18        32        33        34     9        0.000000       -0.221372         3
        18        32        33        34     9      180.000000       -0.244322         4
        18        32        33        38     9        0.000000        0.079999         1
        18        32        33        38     9      180.000000       12.423124         2
        18        32        33        38     9        0.000000       -0.345887         3
        18        32        33        38     9      180.000000        0.095743         4
        19        18        17        28     9        0.000000       -0.783411         1
        19        18        17        28     9      180.000000        8.325747         2
        19        18        17        28     9        0.000000        0.244737         3
        19        18        17        28     9      180.000000        0.280318         4
        19        18        32        31     9        0.000000        0.079538         1
        19        18        32        31     9      180.000000        3.632606         2
        19        18        32        31     9        0.000000        0.074296         3
        19        18        32        31     9      180.000000        0.036008         4
        19        18        32        33     9        0.000000        0.079538         1
        19        18        32        33     9      180.000000        3.632606         2
        19        18        32        33     9        0.000000        0.074296         3
        19        18        32        33     9      180.000000        0.036008         4
        20         8        10        25     9        0.000000        0.034849         1
        20         8        10        25     9      180.000000       14.545328         2
        20         8        10        25     9        0.000000        0.037854         3
        20         8        10        25     9      180.000000        0.281396         4
        21         3         9        24     9        0.000000       -0.249552         1
        21         3         9        24     9      180.000000       11.261506         2
        21         3         9        24     9        0.000000       -0.621949         3
        21         3         9        24     9      180.000000        0.273003         4
        22         6         7        23     9        0.000000        0.015584         1
        22         6         7        23     9      180.000000       11.951684         2
        22         6         7        23     9        0.000000       -0.725462         3
        22         6         7        23     9      180.000000        0.280129         4
        24         9        10        25     9        0.000000       -0.249552         1
        24         9        10        25     9      180.000000       11.261506         2
        24         9        10        25     9        0.000000       -0.621949         3
        24         9        10        25     9      180.000000        0.273003         4
        28        17        18        32     9        0.000000        2.883248         1
        28        17        18        32     9      180.000000        8.134337         2
        28        17        18        32     9        0.000000        0.517737         3
        28        17        18        32     9      180.000000        0.188424         4
        29        30        31        32     9        0.000000       -0.034017         1
        29        30        31        32     9      180.000000       19.300496         2
        29        30        31        32     9        0.000000       -1.667268         3
        29        30        31        32     9      180.000000       -0.471443         4
        29        30        31        37     9        0.000000       -0.033868         1
        29        30        31        37     9      180.000000       14.988956         2
        29        30        31        37     9        0.000000       -0.694082         3
        29        30        31        37     9      180.000000        0.135810         4
        29        34        33        32     9        0.000000       -0.034017         1
        29        34        33        32     9      180.000000       19.300496         2
        29        34        33        32     9        0.000000       -1.667269         3
        29        34        33        32     9      180.000000       -0.471442         4
        29        34        33        38     9        0.000000       -0.033869         1
        29        34        33        38     9      180.000000       14.988958         2
        29        34        33        38     9        0.000000       -0.694082         3
        29        34        33        38     9      180.000000        0.135811         4
        30        29        34        33     9        0.000000        0.033178         1
        30        29        34        33     9      180.000000       18.410199         2
        30        29        34        33     9        0.000000       -1.525083         3
        30        29        34        33     9      180.000000       -0.373583         4
        30        29        34        39     9        0.000000       -0.028499         1
        30        29        34        39     9      180.000000       14.390754         2
        30        29        34        39     9        0.000000       -0.691192         3
        30        29        34        39     9      180.000000        0.162070         4
        30        31        32        33     9        0.000000        0.046349         1
        30        31        32        33     9      180.000000       18.393991         2
        30        31        32        33     9        0.000000       -1.422522         3
        30        31        32        33     9      180.000000       -0.420439         4
        31        30        29        34     9        0.000000        0.033179         1
        31        30        29        34     9      180.000000       18.410201         2
        31        30        29        34     9        0.000000       -1.525083         3
        31        30        29        34     9      180.000000       -0.373584         4
        31        30        29        35     9        0.000000        0.048529         1
        31        30        29        35     9      180.000000       14.136517         2
        31        30        29        35     9        0.000000       -0.679396         3
        31        30        29        35     9      180.000000        0.148925         4
        31        32        33        34     9        0.000000        0.046350         1
        31        32        33        34     9      180.000000       18.393993         2
        31        32        33        34     9        0.000000       -1.422522         3
        31        32        33        34     9      180.000000       -0.420438         4
        31        32        33        38     9        0.000000        0.063413         1
        31        32        33        38     9      180.000000       13.794248         2
        31        32        33        38     9        0.000000       -0.606704         3
        31        32        33        38     9      180.000000        0.115865         4
        32        31        30        36     9        0.000000       -0.000861         1
        32        31        30        36     9      180.000000       14.826833         2
        32        31        30        36     9        0.000000       -0.542400         3
        32        31        30        36     9      180.000000        0.125333         4
        32        33        34        39     9        0.000000       -0.000861         1
        32        33        34        39     9      180.000000       14.826833         2
        32        33        34        39     9        0.000000       -0.542400         3
        32        33        34        39     9      180.000000        0.125333         4
        33        32        31        37     9        0.000000        0.063413         1
        33        32        31        37     9      180.000000       13.794248         2
        33        32        31        37     9        0.000000       -0.606704         3
        33        32        31        37     9      180.000000        0.115865         4
        33        34        29        35     9        0.000000        0.048528         1
        33        34        29        35     9      180.000000       14.136517         2
        33        34        29        35     9        0.000000       -0.679396         3
        33        34        29        35     9      180.000000        0.148924         4
        34        29        30        36     9        0.000000       -0.028500         1
        34        29        30        36     9      180.000000       14.390754         2
        34        29        30        36     9        0.000000       -0.691193         3
        34        29        30        36     9      180.000000        0.162070         4
        35        29        30        36     9        0.000000       -0.104679         1
        35        29        30        36     9      180.000000       11.230179         2
        35        29        30        36     9        0.000000       -0.509016         3
        35        29        30        36     9      180.000000        0.254362         4
        35        29        34        39     9        0.000000       -0.104679         1
        35        29        34        39     9      180.000000       11.230180         2
        35        29        34        39     9        0.000000       -0.509016         3
        35        29        34        39     9      180.000000        0.254362         4
        36        30        31        37     9        0.000000       -0.181904         1
        36        30        31        37     9      180.000000       12.170793         2
        36        30        31        37     9        0.000000       -0.714955         3
        36        30        31        37     9      180.000000        0.345153         4
        38        33        34        39     9        0.000000       -0.181904         1
        38        33        34        39     9      180.000000       12.170793         2
        38        33        34        39     9        0.000000       -0.714955         3
        38        33        34        39     9      180.000000        0.345153         4

[ dihedrals ] ; impropers
;       ai        aj        ak        al funct           phase               k        pn
         5         1        12        13     4      180.000000       27.893333         2
         5        12        13         1     4      180.000000       27.893333         2
         5        13         1        12     4      180.000000       27.893333         2
         7         6        14        23     4      180.000000        1.503460         2
         7        14        23         6     4      180.000000        1.503460         2
         7        23         6        14     4      180.000000        1.503460         2
         9         3        10        24     4      180.000000        0.827180         2
         9        10        24         3     4      180.000000        0.827180         2
         9        24         3        10     4      180.000000        0.827180         2
        15        14        16        17     4      180.000000        1.070874         2
        15        16        17        14     4      180.000000        1.070874         2
        15        17        14        16     4      180.000000        1.070874         2
        18        17        19        32     4      180.000000       27.893333         2
        18        19        32        17     4      180.000000       27.893333         2
        18        32        17        19     4      180.000000       27.893333         2

[ pairs ]
;       ai        aj funct
         1         4     1
         1         9     1
         1        21     1
         1        25     1
         1        26     1
         2        10     1
         2        12     1
         2        13     1
         2        20     1
         2        24     1
         3         5     1
         3         8     1
         3        25     1
         4        12     1
         4        14     1
         4        17     1
         4        23     1
         5         6     1
         5        10     1
         5        11     1
         5        16     1
         5        20     1
         6        15     1
         6        26     1
         6        27     1
         7        13     1
         7        16     1
         7        17     1
         8        11     1
         8        12     1
         8        13     1
         8        24     1
         9        11     1
         9        20     1
        10        21     1
        11        21     1
        12        26     1
        13        15     1
        13        22     1
        13        27     1
        14        18     1
        14        22     1
        14        27     1
        14        28     1
        15        19     1
        15        23     1
        15        32     1
        16        18     1
        16        22     1
        16        26     1
        16        28     1
        17        27     1
        17        31     1
        17        33     1
        18        30     1
        18        34     1
        18        37     1
        18        38     1
        19        28     1
        19        31     1
        19        33     1
        20        25     1
        21        24     1
        22        23     1
        24        25     1
        28        32     1
        29        32     1
        29        37     1
        29        38     1
        30        33     1
        30        39     1
        31        34     1
        31        35     1
        31        38     1
        32        36     1
        32        39     1
        33        35     1
        33        37     1
        34        36     1
        35        36     1
        35        39     1
        36        37     1
        38        39     1
