; ITP file created by ByteFF-ML, 2026-02-21 08:25:50.639969

[ atomtypes ]
;name           bonded.type        at.num        mass        charge   ptype           sigma         epsilon
 c0bf                                   6      0.0000       0.00000       A     3.31516e-01     4.11633e-01
 c1bf                                   6      0.0000       0.00000       A     3.31469e-01     4.12823e-01
 c2bf                                   6      0.0000       0.00000       A     3.31513e-01     4.12453e-01
 c3bf                                   6      0.0000       0.00000       A     3.31446e-01     4.15754e-01
 c4bf                                   6      0.0000       0.00000       A     3.31246e-01     4.10396e-01
 c5bf                                   6      0.0000       0.00000       A     3.31459e-01     4.12049e-01
 c6bf                                   6      0.0000       0.00000       A     3.31385e-01     4.12672e-01
 c7bf                                   6      0.0000       0.00000       A     3.31469e-01     4.12823e-01
 c8bf                                   6      0.0000       0.00000       A     3.31444e-01     4.13066e-01
 c9bf                                   6      0.0000       0.00000       A     3.31513e-01     4.12453e-01
 cl10bf                                17      0.0000       0.00000       A     3.46557e-01     1.10332e+00
 o11bf                                  8      0.0000       0.00000       A     3.04688e-01     6.11596e-01
 n12bf                                  7      0.0000       0.00000       A     3.27190e-01     4.85938e-01
 n13bf                                  7      0.0000       0.00000       A     3.38308e-01     3.93578e-01
 c14bf                                  6      0.0000       0.00000       A     3.31444e-01     4.13636e-01
 c15bf                                  6      0.0000       0.00000       A     3.31254e-01     4.14718e-01
 n16bf                                  7      0.0000       0.00000       A     3.27097e-01     4.87665e-01
 c17bf                                  6      0.0000       0.00000       A     3.31377e-01     4.11890e-01
 o18bf                                  8      0.0000       0.00000       A     3.04625e-01     6.11911e-01
 cl19bf                                17      0.0000       0.00000       A     3.46557e-01     1.10332e+00
 h20bf                                  1      0.0000       0.00000       A     2.62472e-01     6.72807e-02
 h21bf                                  1      0.0000       0.00000       A     2.62569e-01     6.73892e-02
 h22bf                                  1      0.0000       0.00000       A     2.53603e-01     6.75872e-02
 h23bf                                  1      0.0000       0.00000       A     2.62442e-01     6.71179e-02
 h24bf                                  1      0.0000       0.00000       A     2.62472e-01     6.72807e-02
 h25bf                                  1      0.0000       0.00000       A     1.10552e-01     4.15186e-02
 h26bf                                  1      0.0000       0.00000       A     2.62698e-01     6.80197e-02
 h27bf                                  1      0.0000       0.00000       A     1.10447e-01     3.90319e-02
 o28bf                                  8      0.0000       0.00000       A     3.15561e-01     3.03805e-01
 c29bf                                  6      0.0000       0.00000       A     3.39792e-01     4.50312e-01
 h30bf                                  1      0.0000       0.00000       A     2.42024e-01     8.73098e-02
 h31bf                                  1      0.0000       0.00000       A     2.42024e-01     8.73098e-02
 h32bf                                  1      0.0000       0.00000       A     2.42024e-01     8.73098e-02

[ moleculetype ]
;name             nrexcl
 ejm_55                3

[ atoms ]
;       nr            type      resi   res      atom      cgnr      charge          mass ; qtot
         1            c0bf         1   UNL        c0         1    -0.13969       12.0110 ; qtot   -0.140
         2            c1bf         1   UNL        c1         2     0.15319       12.0110 ; qtot    0.013
         3            c2bf         1   UNL        c2         3    -0.10353       12.0110 ; qtot   -0.090
         4            c3bf         1   UNL        c3         4     0.04025       12.0110 ; qtot   -0.050
         5            c4bf         1   UNL        c4         5     0.63693       12.0110 ; qtot    0.587
         6            c5bf         1   UNL        c5         6    -0.22521       12.0110 ; qtot    0.362
         7            c6bf         1   UNL        c6         7     0.38903       12.0110 ; qtot    0.751
         8            c7bf         1   UNL        c7         8     0.15319       12.0110 ; qtot    0.904
         9            c8bf         1   UNL        c8         9    -0.08095       12.0110 ; qtot    0.823
        10            c9bf         1   UNL        c9        10    -0.10353       12.0110 ; qtot    0.720
        11          cl10bf         1   UNL      cl10        11    -0.18538       35.4530 ; qtot    0.534
        12           o11bf         1   UNL       o11        12    -0.54820       15.9990 ; qtot   -0.014
        13           n12bf         1   UNL       n12        13    -0.14723       14.0070 ; qtot   -0.161
        14           n13bf         1   UNL       n13        14    -0.71824       14.0070 ; qtot   -0.879
        15           c14bf         1   UNL       c14        15     0.51079       12.0110 ; qtot   -0.369
        16           c15bf         1   UNL       c15        16    -0.22483       12.0110 ; qtot   -0.593
        17           n16bf         1   UNL       n16        17    -0.31654       14.0070 ; qtot   -0.910
        18           c17bf         1   UNL       c17        18     0.64053       12.0110 ; qtot   -0.269
        19           o18bf         1   UNL       o18        19    -0.49446       15.9990 ; qtot   -0.764
        20          cl19bf         1   UNL      cl19        20    -0.18538       35.4530 ; qtot   -0.949
        21           h20bf         1   UNL       h20        21     0.13919        1.0080 ; qtot   -0.810
        22           h21bf         1   UNL       h21        22     0.14093        1.0080 ; qtot   -0.669
        23           h22bf         1   UNL       h22        23     0.02391        1.0080 ; qtot   -0.645
        24           h23bf         1   UNL       h23        24     0.12973        1.0080 ; qtot   -0.515
        25           h24bf         1   UNL       h24        25     0.13919        1.0080 ; qtot   -0.376
        26           h25bf         1   UNL       h25        26     0.17125        1.0080 ; qtot   -0.205
        27           h26bf         1   UNL       h26        27     0.15715        1.0080 ; qtot   -0.048
        28           h27bf         1   UNL       h27        28     0.17525        1.0080 ; qtot    0.127
        29           o28bf         1   UNL       o28        29    -0.45549       15.9990 ; qtot   -0.328
        30           c29bf         1   UNL       c29        30     0.16670       12.0110 ; qtot   -0.161
        31           h30bf         1   UNL       h30        31     0.05383        1.0080 ; qtot   -0.108
        32           h31bf         1   UNL       h31        32     0.05383        1.0080 ; qtot   -0.054
        33           h32bf         1   UNL       h32        33     0.05379        1.0080 ; qtot    0.000

[ bonds ]
;       ai        aj funct               r               k
         1         2     1        0.140153   273317.935791
         1         5     1        0.151711   166028.776025
         1         8     1        0.140153   273317.935791
         2         3     1        0.139601   303384.741016
         2        11     1        0.175680   146917.122583
         3         9     1        0.139552   310746.655518
         3        21     1        0.108433   325893.481201
         4         6     1        0.140513   286751.119287
         4        13     1        0.140524   250238.798730
         4        16     1        0.139919   298589.203857
         5        12     1        0.122463   630902.561133
         5        13     1        0.137080   280552.062598
         6         7     1        0.139256   310098.600293
         6        22     1        0.108288   328862.757520
         7        14     1        0.133846   333124.824463
         7        23     1        0.108846   313284.405762
         8        10     1        0.139601   303384.741016
         8        20     1        0.175680   146917.160889
         9        10     1        0.139552   310746.655518
         9        24     1        0.108532   324260.434131
        10        25     1        0.108433   325893.455664
        13        26     1        0.101272   414819.901562
        14        15     1        0.133839   296833.221143
        15        16     1        0.140336   276800.303711
        15        17     1        0.140388   245845.905176
        16        27     1        0.108102   332286.364551
        17        18     1        0.137866   265244.021143
        17        28     1        0.101360   415240.344531
        18        19     1        0.121598   640695.582910
        18        29     1        0.136309   222320.839111
        29        30     1        0.144149   189015.404907
        30        31     1        0.109100   309215.016309
        30        32     1        0.109100   309215.016309
        30        33     1        0.109100   309215.016309

[ angles ]
;       ai        aj        ak funct           theta             cth
         1         2         3     1      121.751663      655.182887
         1         2        11     1      119.792053      319.960477
         1         5        12     1      120.784958      604.796191
         1         5        13     1      113.460876      443.006218
         1         8        10     1      121.751663      655.182887
         1         8        20     1      119.792053      319.960508
         2         1         5     1      121.186684      614.373182
         2         1         8     1      117.581833      636.725686
         2         3         9     1      119.116493      651.293458
         2         3        21     1      119.837120      399.290326
         3         2        11     1      118.196632      386.667588
         3         9        10     1      120.469688      692.783216
         3         9        24     1      119.783386      428.127021
         4         6         7     1      117.801376      807.940832
         4         6        22     1      121.420532      455.652322
         4        13         5     1      128.688263      489.007969
         4        13        26     1      115.373009      446.250676
         4        16        15     1      117.966087      858.309780
         4        16        27     1      120.888962      422.151912
         5         1         8     1      121.186684      614.373182
         5        13        26     1      116.072533      474.421204
         6         4        13     1      120.826538      611.104879
         6         4        16     1      118.460648      580.360625
         6         7        14     1      124.774353      695.619304
         6         7        23     1      119.546288      417.474184
         7         6        22     1      120.837181      432.142636
         7        14        15     1      117.109070      789.533875
         8        10         9     1      119.116493      651.293458
         8        10        25     1      119.837120      399.290358
         9         3        21     1      120.963661      425.124942
         9        10        25     1      120.963661      425.124942
        10         8        20     1      118.196632      386.667588
        10         9        24     1      119.783371      428.127021
        12         5        13     1      125.471695      605.741894
        13         4        16     1      120.230606      502.006294
        14         7        23     1      115.650734      404.478509
        14        15        16     1      123.740845      582.533897
        14        15        17     1      114.598679      640.239209
        15        16        27     1      120.264793      442.821202
        15        17        18     1      128.170624      502.162325
        15        17        28     1      114.751938      441.206362
        16        15        17     1      120.978531      491.290986
        17        18        19     1      127.584877      502.289053
        17        18        29     1      108.109146      547.756312
        18        17        28     1      116.278687      470.993773
        18        29        30     1      114.485107      571.622209
        19        18        29     1      124.407410      564.087358
        29        30        31     1      108.741188      463.332448
        29        30        32     1      108.741188      463.332448
        29        30        33     1      108.741188      463.332448
        31        30        32     1      110.240356      339.958172
        31        30        33     1      110.240356      339.958172
        32        30        33     1      110.240356      339.958172

[ dihedrals ] ; propers for gromacs 4.5 or higher, use funct 9
;       ai        aj        ak        al funct           phase               k        pn
         1         2         3         9     9        0.000000       -0.076454         1
         1         2         3         9     9      180.000000       18.378655         2
         1         2         3         9     9        0.000000       -1.485477         3
         1         2         3         9     9      180.000000       -0.443965         4
         1         2         3        21     9        0.000000       -0.051695         1
         1         2         3        21     9      180.000000       13.896893         2
         1         2         3        21     9        0.000000       -0.582597         3
         1         2         3        21     9      180.000000        0.104501         4
         1         5        13         4     9        0.000000        1.943510         1
         1         5        13         4     9      180.000000        8.245869         2
         1         5        13         4     9        0.000000        0.553648         3
         1         5        13         4     9      180.000000       -0.727358         4
         1         5        13        26     9        0.000000        0.256953         1
         1         5        13        26     9      180.000000        8.497288         2
         1         5        13        26     9        0.000000       -0.416932         3
         1         5        13        26     9      180.000000        0.234809         4
         1         8        10         9     9        0.000000       -0.076454         1
         1         8        10         9     9      180.000000       18.378655         2
         1         8        10         9     9        0.000000       -1.485477         3
         1         8        10         9     9      180.000000       -0.443965         4
         1         8        10        25     9        0.000000       -0.051695         1
         1         8        10        25     9      180.000000       13.896893         2
         1         8        10        25     9        0.000000       -0.582597         3
         1         8        10        25     9      180.000000        0.104501         4
         2         1         5        12     9        0.000000       -2.052614         1
         2         1         5        12     9      180.000000        1.139086         2
         2         1         5        12     9        0.000000        0.054306         3
         2         1         5        12     9      180.000000       -0.099915         4
         2         1         5        13     9        0.000000        0.440757         1
         2         1         5        13     9      180.000000       -0.113254         2
         2         1         5        13     9        0.000000        0.438440         3
         2         1         5        13     9      180.000000       -0.175863         4
         2         1         8        10     9        0.000000       -0.232741         1
         2         1         8        10     9      180.000000       16.722108         2
         2         1         8        10     9        0.000000       -1.528985         3
         2         1         8        10     9      180.000000       -0.338205         4
         2         1         8        20     9        0.000000        0.390196         1
         2         1         8        20     9      180.000000       17.596080         2
         2         1         8        20     9        0.000000        0.390762         3
         2         1         8        20     9      180.000000       -0.617838         4
         2         3         9        10     9        0.000000       -0.096937         1
         2         3         9        10     9      180.000000       18.601608         2
         2         3         9        10     9        0.000000       -1.549844         3
         2         3         9        10     9      180.000000       -0.460936         4
         2         3         9        24     9        0.000000        0.064500         1
         2         3         9        24     9      180.000000       14.350299         2
         2         3         9        24     9        0.000000       -0.619285         3
         2         3         9        24     9      180.000000        0.031010         4
         3         2         1         5     9        0.000000        0.221282         1
         3         2         1         5     9      180.000000       13.281605         2
         3         2         1         5     9        0.000000       -0.048385         3
         3         2         1         5     9      180.000000       -0.286210         4
         3         2         1         8     9        0.000000       -0.232741         1
         3         2         1         8     9      180.000000       16.722108         2
         3         2         1         8     9        0.000000       -1.528985         3
         3         2         1         8     9      180.000000       -0.338205         4
         3         9        10         8     9        0.000000       -0.096937         1
         3         9        10         8     9      180.000000       18.601608         2
         3         9        10         8     9        0.000000       -1.549844         3
         3         9        10         8     9      180.000000       -0.460936         4
         3         9        10        25     9        0.000000        0.044045         1
         3         9        10        25     9      180.000000       14.360883         2
         3         9        10        25     9        0.000000       -0.708188         3
         3         9        10        25     9      180.000000        0.127882         4
         4         6         7        14     9        0.000000       -0.102284         1
         4         6         7        14     9      180.000000       18.778677         2
         4         6         7        14     9        0.000000       -1.128404         3
         4         6         7        14     9      180.000000       -0.629831         4
         4         6         7        23     9        0.000000        0.173211         1
         4         6         7        23     9      180.000000       14.523484         2
         4         6         7        23     9        0.000000       -0.533298         3
         4         6         7        23     9      180.000000       -0.020321         4
         4        13         5        12     9        0.000000       -0.902764         1
         4        13         5        12     9      180.000000        9.869690         2
         4        13         5        12     9        0.000000        0.328250         3
         4        13         5        12     9      180.000000       -0.852134         4
         4        16        15        14     9        0.000000        0.155420         1
         4        16        15        14     9      180.000000       13.332367         2
         4        16        15        14     9        0.000000       -0.317444         3
         4        16        15        14     9      180.000000       -0.333624         4
         4        16        15        17     9        0.000000        0.422213         1
         4        16        15        17     9      180.000000       16.344750         2
         4        16        15        17     9        0.000000        0.406782         3
         4        16        15        17     9      180.000000       -0.713311         4
         5         1         2        11     9        0.000000        0.372587         1
         5         1         2        11     9      180.000000       14.761763         2
         5         1         2        11     9        0.000000        0.512397         3
         5         1         2        11     9      180.000000       -0.697437         4
         5         1         8        10     9        0.000000        0.221282         1
         5         1         8        10     9      180.000000       13.281605         2
         5         1         8        10     9        0.000000       -0.048385         3
         5         1         8        10     9      180.000000       -0.286210         4
         5         1         8        20     9        0.000000        0.372588         1
         5         1         8        20     9      180.000000       14.761763         2
         5         1         8        20     9        0.000000        0.512396         3
         5         1         8        20     9      180.000000       -0.697437         4
         5        13         4         6     9        0.000000       -0.079836         1
         5        13         4         6     9      180.000000        2.906425         2
         5        13         4         6     9        0.000000       -0.037766         3
         5        13         4         6     9      180.000000        0.090064         4
         5        13         4        16     9        0.000000       -0.016614         1
         5        13         4        16     9      180.000000        2.907219         2
         5        13         4        16     9        0.000000       -0.063341         3
         5        13         4        16     9      180.000000        0.092109         4
         6         4        13        26     9        0.000000        0.349726         1
         6         4        13        26     9      180.000000        3.679211         2
         6         4        13        26     9        0.000000        0.254809         3
         6         4        13        26     9      180.000000        0.088175         4
         6         4        16        15     9        0.000000       -0.050275         1
         6         4        16        15     9      180.000000       15.910005         2
         6         4        16        15     9        0.000000       -1.126630         3
         6         4        16        15     9      180.000000       -0.300858         4
         6         4        16        27     9        0.000000       -0.015354         1
         6         4        16        27     9      180.000000       13.049803         2
         6         4        16        27     9        0.000000       -0.449245         3
         6         4        16        27     9      180.000000        0.185591         4
         6         7        14        15     9        0.000000       -0.027854         1
         6         7        14        15     9      180.000000       21.606643         2
         6         7        14        15     9        0.000000       -0.737803         3
         6         7        14        15     9      180.000000       -0.111157         4
         7         6         4        13     9        0.000000        0.368706         1
         7         6         4        13     9      180.000000       17.250912         2
         7         6         4        13     9        0.000000        0.281694         3
         7         6         4        13     9      180.000000       -0.473227         4
         7         6         4        16     9        0.000000        0.058406         1
         7         6         4        16     9      180.000000       16.571809         2
         7         6         4        16     9        0.000000       -1.253430         3
         7         6         4        16     9      180.000000       -0.354845         4
         7        14        15        16     9        0.000000        0.359576         1
         7        14        15        16     9      180.000000       21.755724         2
         7        14        15        16     9        0.000000       -0.127848         3
         7        14        15        16     9      180.000000       -0.204694         4
         7        14        15        17     9        0.000000        0.636531         1
         7        14        15        17     9      180.000000       28.950308         2
         7        14        15        17     9        0.000000        0.927641         3
         7        14        15        17     9      180.000000       -0.780589         4
         8         1         2        11     9        0.000000        0.390197         1
         8         1         2        11     9      180.000000       17.596084         2
         8         1         2        11     9        0.000000        0.390763         3
         8         1         2        11     9      180.000000       -0.617838         4
         8         1         5        12     9        0.000000       -2.052614         1
         8         1         5        12     9      180.000000        1.139086         2
         8         1         5        12     9        0.000000        0.054306         3
         8         1         5        12     9      180.000000       -0.099915         4
         8         1         5        13     9        0.000000        0.440757         1
         8         1         5        13     9      180.000000       -0.113254         2
         8         1         5        13     9        0.000000        0.438440         3
         8         1         5        13     9      180.000000       -0.175863         4
         8        10         9        24     9        0.000000        0.064500         1
         8        10         9        24     9      180.000000       14.350299         2
         8        10         9        24     9        0.000000       -0.619285         3
         8        10         9        24     9      180.000000        0.031010         4
         9         3         2        11     9        0.000000        0.358058         1
         9         3         2        11     9      180.000000       20.681090         2
         9         3         2        11     9        0.000000        0.483238         3
         9         3         2        11     9      180.000000       -0.652499         4
         9        10         8        20     9        0.000000        0.358057         1
         9        10         8        20     9      180.000000       20.681092         2
         9        10         8        20     9        0.000000        0.483238         3
         9        10         8        20     9      180.000000       -0.652500         4
        10         9         3        21     9        0.000000        0.044045         1
        10         9         3        21     9      180.000000       14.360883         2
        10         9         3        21     9        0.000000       -0.708188         3
        10         9         3        21     9      180.000000        0.127882         4
        11         2         3        21     9        0.000000        0.034849         1
        11         2         3        21     9      180.000000       14.545328         2
        11         2         3        21     9        0.000000        0.037854         3
        11         2         3        21     9      180.000000        0.281396         4
        12         5        13        26     9        0.000000        0.189370         1
        12         5        13        26     9      180.000000       11.938541         2
        12         5        13        26     9        0.000000        0.390839         3
        12         5        13        26     9      180.000000        0.857293         4
        13         4         6        22     9        0.000000       -0.139266         1
        13         4         6        22     9      180.000000       13.649156         2
        13         4         6        22     9        0.000000       -0.068755         3
        13         4         6        22     9      180.000000        0.190415         4
        13         4        16        15     9        0.000000        0.364573         1
        13         4        16        15     9      180.000000       16.801752         2
        13         4        16        15     9        0.000000        0.211976         3
        13         4        16        15     9      180.000000       -0.510288         4
        13         4        16        27     9        0.000000       -0.227058         1
        13         4        16        27     9      180.000000       13.909946         2
        13         4        16        27     9        0.000000       -0.150497         3
        13         4        16        27     9      180.000000        0.222036         4
        14         7         6        22     9        0.000000        0.156311         1
        14         7         6        22     9      180.000000       15.703912         2
        14         7         6        22     9        0.000000       -0.227437         3
        14         7         6        22     9      180.000000       -0.122549         4
        14        15        16        27     9        0.000000       -0.124084         1
        14        15        16        27     9      180.000000       11.741728         2
        14        15        16        27     9        0.000000       -0.135488         3
        14        15        16        27     9      180.000000       -0.112431         4
        14        15        17        18     9        0.000000       -0.914133         1
        14        15        17        18     9      180.000000        4.337446         2
        14        15        17        18     9        0.000000        0.292012         3
        14        15        17        18     9      180.000000       -0.034086         4
        14        15        17        28     9        0.000000        0.801153         1
        14        15        17        28     9      180.000000        3.473214         2
        14        15        17        28     9        0.000000        0.043182         3
        14        15        17        28     9      180.000000       -0.194371         4
        15        14         7        23     9        0.000000        1.597392         1
        15        14         7        23     9      180.000000       20.482799         2
        15        14         7        23     9        0.000000        0.243947         3
        15        14         7        23     9      180.000000       -0.223029         4
        15        17        18        19     9        0.000000       -0.345273         1
        15        17        18        19     9      180.000000        6.882483         2
        15        17        18        19     9        0.000000       -0.381508         3
        15        17        18        19     9      180.000000       -0.234863         4
        15        17        18        29     9        0.000000       -0.882841         1
        15        17        18        29     9      180.000000        7.381970         2
        15        17        18        29     9        0.000000       -0.063763         3
        15        17        18        29     9      180.000000       -0.325931         4
        16         4         6        22     9        0.000000        0.125913         1
        16         4         6        22     9      180.000000       13.131160         2
        16         4         6        22     9        0.000000       -0.474541         3
        16         4         6        22     9      180.000000        0.126410         4
        16         4        13        26     9        0.000000        1.038026         1
        16         4        13        26     9      180.000000        3.707659         2
        16         4        13        26     9        0.000000        0.274279         3
        16         4        13        26     9      180.000000        0.076530         4
        16        15        17        18     9        0.000000       -0.712210         1
        16        15        17        18     9      180.000000        3.316289         2
        16        15        17        18     9        0.000000       -0.182546         3
        16        15        17        18     9      180.000000        0.194442         4
        16        15        17        28     9        0.000000        0.883118         1
        16        15        17        28     9      180.000000        4.124597         2
        16        15        17        28     9        0.000000        0.527555         3
        16        15        17        28     9      180.000000       -0.133910         4
        17        15        16        27     9        0.000000        0.067998         1
        17        15        16        27     9      180.000000       13.353615         2
        17        15        16        27     9        0.000000       -0.104942         3
        17        15        16        27     9      180.000000        0.133904         4
        17        18        29        30     9        0.000000       -0.759959         1
        17        18        29        30     9      180.000000       10.585629         2
        17        18        29        30     9        0.000000       -0.330881         3
        17        18        29        30     9      180.000000        0.081987         4
        18        29        30        31     9        0.000000        0.042440         1
        18        29        30        31     9      180.000000        0.053911         2
        18        29        30        31     9        0.000000        0.184863         3
        18        29        30        31     9      180.000000        0.010487         4
        18        29        30        32     9        0.000000        0.042440         1
        18        29        30        32     9      180.000000        0.053911         2
        18        29        30        32     9        0.000000        0.184863         3
        18        29        30        32     9      180.000000        0.010487         4
        18        29        30        33     9        0.000000        0.042440         1
        18        29        30        33     9      180.000000        0.053911         2
        18        29        30        33     9        0.000000        0.184863         3
        18        29        30        33     9      180.000000        0.010487         4
        19        18        17        28     9        0.000000       -0.713400         1
        19        18        17        28     9      180.000000        7.480413         2
        19        18        17        28     9        0.000000       -0.200313         3
        19        18        17        28     9      180.000000        0.342286         4
        19        18        29        30     9        0.000000        0.514092         1
        19        18        29        30     9      180.000000        7.830080         2
        19        18        29        30     9        0.000000       -0.206860         3
        19        18        29        30     9      180.000000        0.232420         4
        20         8        10        25     9        0.000000        0.034848         1
        20         8        10        25     9      180.000000       14.545326         2
        20         8        10        25     9        0.000000        0.037854         3
        20         8        10        25     9      180.000000        0.281396         4
        21         3         9        24     9        0.000000       -0.249552         1
        21         3         9        24     9      180.000000       11.261506         2
        21         3         9        24     9        0.000000       -0.621949         3
        21         3         9        24     9      180.000000        0.273003         4
        22         6         7        23     9        0.000000        0.015584         1
        22         6         7        23     9      180.000000       11.951685         2
        22         6         7        23     9        0.000000       -0.725462         3
        22         6         7        23     9      180.000000        0.280129         4
        24         9        10        25     9        0.000000       -0.249552         1
        24         9        10        25     9      180.000000       11.261506         2
        24         9        10        25     9        0.000000       -0.621949         3
        24         9        10        25     9      180.000000        0.273003         4
        28        17        18        29     9        0.000000        3.084202         1
        28        17        18        29     9      180.000000        8.292704         2
        28        17        18        29     9        0.000000        0.100826         3
        28        17        18        29     9      180.000000        0.275534         4

[ dihedrals ] ; impropers
;       ai        aj        ak        al funct           phase               k        pn
         5         1        12        13     4      180.000000       27.893333         2
         5        12        13         1     4      180.000000       27.893333         2
         5        13         1        12     4      180.000000       27.893333         2
         7         6        14        23     4      180.000000        1.493841         2
         7        14        23         6     4      180.000000        1.493841         2
         7        23         6        14     4      180.000000        1.493841         2
         9         3        10        24     4      180.000000        0.827180         2
         9        10        24         3     4      180.000000        0.827180         2
         9        24         3        10     4      180.000000        0.827180         2
        15        14        16        17     4      180.000000        2.117265         2
        15        16        17        14     4      180.000000        2.117265         2
        15        17        14        16     4      180.000000        2.117265         2
        18        17        19        29     4      180.000000       27.893333         2
        18        19        29        17     4      180.000000       27.893333         2
        18        29        17        19     4      180.000000       27.893333         2

[ pairs ]
;       ai        aj funct
         1         4     1
         1         9     1
         1        21     1
         1        25     1
         1        26     1
         2        10     1
         2        12     1
         2        13     1
         2        20     1
         2        24     1
         3         5     1
         3         8     1
         3        25     1
         4        12     1
         4        14     1
         4        17     1
         4        23     1
         5         6     1
         5        10     1
         5        11     1
         5        16     1
         5        20     1
         6        15     1
         6        26     1
         6        27     1
         7        13     1
         7        16     1
         7        17     1
         8        11     1
         8        12     1
         8        13     1
         8        24     1
         9        11     1
         9        20     1
        10        21     1
        11        21     1
        12        26     1
        13        15     1
        13        22     1
        13        27     1
        14        18     1
        14        22     1
        14        27     1
        14        28     1
        15        19     1
        15        23     1
        15        29     1
        16        18     1
        16        22     1
        16        26     1
        16        28     1
        17        27     1
        17        30     1
        18        31     1
        18        32     1
        18        33     1
        19        28     1
        19        30     1
        20        25     1
        21        24     1
        22        23     1
        24        25     1
        28        29     1
