; ITP file created by ByteFF-ML, 2026-02-21 08:25:53.245044

[ atomtypes ]
;name           bonded.type        at.num        mass        charge   ptype           sigma         epsilon
 c0bf                                   6      0.0000       0.00000       A     3.31516e-01     4.11633e-01
 c1bf                                   6      0.0000       0.00000       A     3.31469e-01     4.12823e-01
 c2bf                                   6      0.0000       0.00000       A     3.31513e-01     4.12453e-01
 c3bf                                   6      0.0000       0.00000       A     3.31446e-01     4.15754e-01
 c4bf                                   6      0.0000       0.00000       A     3.31246e-01     4.10396e-01
 c5bf                                   6      0.0000       0.00000       A     3.31459e-01     4.12049e-01
 c6bf                                   6      0.0000       0.00000       A     3.31385e-01     4.12672e-01
 c7bf                                   6      0.0000       0.00000       A     3.31469e-01     4.12823e-01
 c8bf                                   6      0.0000       0.00000       A     3.31444e-01     4.13066e-01
 c9bf                                   6      0.0000       0.00000       A     3.31513e-01     4.12453e-01
 cl10bf                                17      0.0000       0.00000       A     3.46557e-01     1.10332e+00
 o11bf                                  8      0.0000       0.00000       A     3.04688e-01     6.11596e-01
 n12bf                                  7      0.0000       0.00000       A     3.27190e-01     4.85938e-01
 n13bf                                  7      0.0000       0.00000       A     3.38307e-01     3.93203e-01
 c14bf                                  6      0.0000       0.00000       A     3.31564e-01     4.14073e-01
 c15bf                                  6      0.0000       0.00000       A     3.31311e-01     4.14882e-01
 n16bf                                  7      0.0000       0.00000       A     3.27141e-01     4.85649e-01
 c17bf                                  6      0.0000       0.00000       A     3.31640e-01     4.11979e-01
 o18bf                                  8      0.0000       0.00000       A     3.04732e-01     6.10983e-01
 c19bf                                  6      0.0000       0.00000       A     3.39703e-01     4.51485e-01
 cl20bf                                17      0.0000       0.00000       A     3.46557e-01     1.10332e+00
 h21bf                                  1      0.0000       0.00000       A     2.62472e-01     6.72807e-02
 h22bf                                  1      0.0000       0.00000       A     2.62569e-01     6.73892e-02
 h23bf                                  1      0.0000       0.00000       A     2.53603e-01     6.75872e-02
 h24bf                                  1      0.0000       0.00000       A     2.62442e-01     6.71179e-02
 h25bf                                  1      0.0000       0.00000       A     2.62472e-01     6.72807e-02
 h26bf                                  1      0.0000       0.00000       A     1.10552e-01     4.15186e-02
 h27bf                                  1      0.0000       0.00000       A     2.62698e-01     6.80197e-02
 h28bf                                  1      0.0000       0.00000       A     1.10520e-01     3.99672e-02
 h29bf                                  1      0.0000       0.00000       A     2.60039e-01     8.76944e-02
 h30bf                                  1      0.0000       0.00000       A     2.60039e-01     8.76944e-02
 h31bf                                  1      0.0000       0.00000       A     2.60039e-01     8.76944e-02

[ moleculetype ]
;name             nrexcl
 ejm_31                3

[ atoms ]
;       nr            type      resi   res      atom      cgnr      charge          mass ; qtot
         1            c0bf         1   UNL        c0         1    -0.13969       12.0110 ; qtot   -0.140
         2            c1bf         1   UNL        c1         2     0.15319       12.0110 ; qtot    0.013
         3            c2bf         1   UNL        c2         3    -0.10353       12.0110 ; qtot   -0.090
         4            c3bf         1   UNL        c3         4     0.03996       12.0110 ; qtot   -0.050
         5            c4bf         1   UNL        c4         5     0.63693       12.0110 ; qtot    0.587
         6            c5bf         1   UNL        c5         6    -0.22521       12.0110 ; qtot    0.362
         7            c6bf         1   UNL        c6         7     0.38957       12.0110 ; qtot    0.751
         8            c7bf         1   UNL        c7         8     0.15319       12.0110 ; qtot    0.904
         9            c8bf         1   UNL        c8         9    -0.08095       12.0110 ; qtot    0.823
        10            c9bf         1   UNL        c9        10    -0.10353       12.0110 ; qtot    0.720
        11          cl10bf         1   UNL      cl10        11    -0.18538       35.4530 ; qtot    0.535
        12           o11bf         1   UNL       o11        12    -0.54820       15.9990 ; qtot   -0.014
        13           n12bf         1   UNL       n12        13    -0.14723       14.0070 ; qtot   -0.161
        14           n13bf         1   UNL       n13        14    -0.71943       14.0070 ; qtot   -0.880
        15           c14bf         1   UNL       c14        15     0.49282       12.0110 ; qtot   -0.387
        16           c15bf         1   UNL       c15        16    -0.21909       12.0110 ; qtot   -0.607
        17           n16bf         1   UNL       n16        17    -0.33780       14.0070 ; qtot   -0.944
        18           c17bf         1   UNL       c17        18     0.60569       12.0110 ; qtot   -0.339
        19           o18bf         1   UNL       o18        19    -0.56406       15.9990 ; qtot   -0.903
        20           c19bf         1   UNL       c19        20    -0.18064       12.0110 ; qtot   -1.083
        21          cl20bf         1   UNL      cl20        21    -0.18538       35.4530 ; qtot   -1.269
        22           h21bf         1   UNL       h21        22     0.13919        1.0080 ; qtot   -1.130
        23           h22bf         1   UNL       h22        23     0.14093        1.0080 ; qtot   -0.989
        24           h23bf         1   UNL       h23        24     0.02391        1.0080 ; qtot   -0.965
        25           h24bf         1   UNL       h24        25     0.12973        1.0080 ; qtot   -0.835
        26           h25bf         1   UNL       h25        26     0.13919        1.0080 ; qtot   -0.696
        27           h26bf         1   UNL       h26        27     0.17125        1.0080 ; qtot   -0.525
        28           h27bf         1   UNL       h27        28     0.15926        1.0080 ; qtot   -0.365
        29           h28bf         1   UNL       h28        29     0.16328        1.0080 ; qtot   -0.202
        30           h29bf         1   UNL       h29        30     0.06735        1.0080 ; qtot   -0.135
        31           h30bf         1   UNL       h30        31     0.06735        1.0080 ; qtot   -0.067
        32           h31bf         1   UNL       h31        32     0.06733        1.0080 ; qtot    0.000

[ bonds ]
;       ai        aj funct               r               k
         1         2     1        0.140153   273317.935791
         1         5     1        0.151711   166028.776025
         1         8     1        0.140153   273317.935791
         2         3     1        0.139601   303384.741016
         2        11     1        0.175680   146917.122583
         3         9     1        0.139552   310746.655518
         3        22     1        0.108433   325893.481201
         4         6     1        0.140513   286751.119287
         4        13     1        0.140524   250238.798730
         4        16     1        0.139955   298192.663623
         5        12     1        0.122463   630902.561133
         5        13     1        0.137080   280552.062598
         6         7     1        0.139256   310098.600293
         6        23     1        0.108288   328862.757520
         7        14     1        0.133859   332648.863818
         7        24     1        0.108846   313284.405762
         8        10     1        0.139601   303384.741016
         8        21     1        0.175680   146917.135352
         9        10     1        0.139552   310746.655518
         9        25     1        0.108532   324260.434131
        10        26     1        0.108433   325893.481201
        13        27     1        0.101272   414819.901562
        14        15     1        0.133856   296423.656982
        15        16     1        0.140306   277744.512793
        15        17     1        0.140547   242010.154736
        16        28     1        0.108100   332557.772949
        17        18     1        0.138218   246236.444189
        17        29     1        0.101283   415710.150732
        18        19     1        0.122387   631146.031934
        18        20     1        0.152035   178381.535498
        20        30     1        0.109268   307863.745703
        20        31     1        0.109268   307863.745703
        20        32     1        0.109268   307863.745703

[ angles ]
;       ai        aj        ak funct           theta             cth
         1         2         3     1      121.751663      655.182887
         1         2        11     1      119.792053      319.960477
         1         5        12     1      120.784958      604.796191
         1         5        13     1      113.460876      443.006218
         1         8        10     1      121.751663      655.182887
         1         8        21     1      119.792053      319.960508
         2         1         5     1      121.186684      614.373182
         2         1         8     1      117.581833      636.725686
         2         3         9     1      119.116493      651.293458
         2         3        22     1      119.837120      399.290326
         3         2        11     1      118.196632      386.667588
         3         9        10     1      120.469688      692.783216
         3         9        25     1      119.783386      428.127021
         4         6         7     1      117.801376      807.940832
         4         6        23     1      121.420532      455.652322
         4        13         5     1      128.688263      489.007969
         4        13        27     1      115.373009      446.250676
         4        16        15     1      117.971085      855.379013
         4        16        28     1      120.938805      419.668620
         5         1         8     1      121.186684      614.373182
         5        13        27     1      116.072533      474.421204
         6         4        13     1      120.826538      611.104879
         6         4        16     1      118.460243      585.162432
         6         7        14     1      124.746437      697.183324
         6         7        24     1      119.546288      417.474184
         7         6        23     1      120.837181      432.142636
         7        14        15     1      117.136902      781.954142
         8        10         9     1      119.116493      651.293458
         8        10        26     1      119.837120      399.290326
         9         3        22     1      120.963661      425.124942
         9        10        26     1      120.963661      425.124942
        10         8        21     1      118.196632      386.667588
        10         9        25     1      119.783371      428.127053
        12         5        13     1      125.471695      605.741894
        13         4        16     1      120.214943      500.183870
        14         7        24     1      115.668198      406.245804
        14        15        16     1      123.864456      582.672755
        14        15        17     1      113.899490      641.597656
        15        16        28     1      120.195572      445.544830
        15        17        18     1      129.007965      526.389732
        15        17        29     1      113.079430      457.206287
        16        15        17     1      121.289383      495.167424
        17        18        19     1      124.006088      644.971044
        17        18        20     1      113.899399      467.907772
        18        17        29     1      117.766113      429.626720
        18        20        30     1      110.194046      523.053277
        18        20        31     1      110.194046      523.053277
        18        20        32     1      110.194046      523.053277
        19        18        20     1      122.015846      559.180019
        30        20        31     1      108.683899      356.686319
        30        20        32     1      108.683899      356.686319
        31        20        32     1      108.683899      356.686319

[ dihedrals ] ; propers for gromacs 4.5 or higher, use funct 9
;       ai        aj        ak        al funct           phase               k        pn
         1         2         3         9     9        0.000000       -0.076454         1
         1         2         3         9     9      180.000000       18.378655         2
         1         2         3         9     9        0.000000       -1.485477         3
         1         2         3         9     9      180.000000       -0.443965         4
         1         2         3        22     9        0.000000       -0.051695         1
         1         2         3        22     9      180.000000       13.896893         2
         1         2         3        22     9        0.000000       -0.582597         3
         1         2         3        22     9      180.000000        0.104501         4
         1         5        13         4     9        0.000000        1.943510         1
         1         5        13         4     9      180.000000        8.245869         2
         1         5        13         4     9        0.000000        0.553648         3
         1         5        13         4     9      180.000000       -0.727358         4
         1         5        13        27     9        0.000000        0.256953         1
         1         5        13        27     9      180.000000        8.497288         2
         1         5        13        27     9        0.000000       -0.416932         3
         1         5        13        27     9      180.000000        0.234809         4
         1         8        10         9     9        0.000000       -0.076454         1
         1         8        10         9     9      180.000000       18.378655         2
         1         8        10         9     9        0.000000       -1.485477         3
         1         8        10         9     9      180.000000       -0.443965         4
         1         8        10        26     9        0.000000       -0.051695         1
         1         8        10        26     9      180.000000       13.896894         2
         1         8        10        26     9        0.000000       -0.582597         3
         1         8        10        26     9      180.000000        0.104501         4
         2         1         5        12     9        0.000000       -2.052614         1
         2         1         5        12     9      180.000000        1.139086         2
         2         1         5        12     9        0.000000        0.054306         3
         2         1         5        12     9      180.000000       -0.099915         4
         2         1         5        13     9        0.000000        0.440757         1
         2         1         5        13     9      180.000000       -0.113254         2
         2         1         5        13     9        0.000000        0.438440         3
         2         1         5        13     9      180.000000       -0.175863         4
         2         1         8        10     9        0.000000       -0.232741         1
         2         1         8        10     9      180.000000       16.722108         2
         2         1         8        10     9        0.000000       -1.528985         3
         2         1         8        10     9      180.000000       -0.338205         4
         2         1         8        21     9        0.000000        0.390196         1
         2         1         8        21     9      180.000000       17.596080         2
         2         1         8        21     9        0.000000        0.390762         3
         2         1         8        21     9      180.000000       -0.617838         4
         2         3         9        10     9        0.000000       -0.096937         1
         2         3         9        10     9      180.000000       18.601608         2
         2         3         9        10     9        0.000000       -1.549844         3
         2         3         9        10     9      180.000000       -0.460936         4
         2         3         9        25     9        0.000000        0.064500         1
         2         3         9        25     9      180.000000       14.350302         2
         2         3         9        25     9        0.000000       -0.619285         3
         2         3         9        25     9      180.000000        0.031009         4
         3         2         1         5     9        0.000000        0.221282         1
         3         2         1         5     9      180.000000       13.281605         2
         3         2         1         5     9        0.000000       -0.048385         3
         3         2         1         5     9      180.000000       -0.286210         4
         3         2         1         8     9        0.000000       -0.232741         1
         3         2         1         8     9      180.000000       16.722108         2
         3         2         1         8     9        0.000000       -1.528985         3
         3         2         1         8     9      180.000000       -0.338205         4
         3         9        10         8     9        0.000000       -0.096937         1
         3         9        10         8     9      180.000000       18.601608         2
         3         9        10         8     9        0.000000       -1.549844         3
         3         9        10         8     9      180.000000       -0.460936         4
         3         9        10        26     9        0.000000        0.044045         1
         3         9        10        26     9      180.000000       14.360884         2
         3         9        10        26     9        0.000000       -0.708188         3
         3         9        10        26     9      180.000000        0.127882         4
         4         6         7        14     9        0.000000       -0.097026         1
         4         6         7        14     9      180.000000       18.757270         2
         4         6         7        14     9        0.000000       -1.122167         3
         4         6         7        14     9      180.000000       -0.627964         4
         4         6         7        24     9        0.000000        0.173211         1
         4         6         7        24     9      180.000000       14.523484         2
         4         6         7        24     9        0.000000       -0.533298         3
         4         6         7        24     9      180.000000       -0.020321         4
         4        13         5        12     9        0.000000       -0.902764         1
         4        13         5        12     9      180.000000        9.869690         2
         4        13         5        12     9        0.000000        0.328250         3
         4        13         5        12     9      180.000000       -0.852134         4
         4        16        15        14     9        0.000000        0.153288         1
         4        16        15        14     9      180.000000       13.360922         2
         4        16        15        14     9        0.000000       -0.321741         3
         4        16        15        14     9      180.000000       -0.355612         4
         4        16        15        17     9        0.000000        0.492606         1
         4        16        15        17     9      180.000000       16.057752         2
         4        16        15        17     9        0.000000        0.304371         3
         4        16        15        17     9      180.000000       -0.589608         4
         5         1         2        11     9        0.000000        0.372587         1
         5         1         2        11     9      180.000000       14.761763         2
         5         1         2        11     9        0.000000        0.512397         3
         5         1         2        11     9      180.000000       -0.697437         4
         5         1         8        10     9        0.000000        0.221282         1
         5         1         8        10     9      180.000000       13.281605         2
         5         1         8        10     9        0.000000       -0.048385         3
         5         1         8        10     9      180.000000       -0.286210         4
         5         1         8        21     9        0.000000        0.372588         1
         5         1         8        21     9      180.000000       14.761763         2
         5         1         8        21     9        0.000000        0.512396         3
         5         1         8        21     9      180.000000       -0.697437         4
         5        13         4         6     9        0.000000       -0.079836         1
         5        13         4         6     9      180.000000        2.906425         2
         5        13         4         6     9        0.000000       -0.037766         3
         5        13         4         6     9      180.000000        0.090064         4
         5        13         4        16     9        0.000000        0.014914         1
         5        13         4        16     9      180.000000        2.893446         2
         5        13         4        16     9        0.000000       -0.060229         3
         5        13         4        16     9      180.000000        0.092184         4
         6         4        13        27     9        0.000000        0.349726         1
         6         4        13        27     9      180.000000        3.679211         2
         6         4        13        27     9        0.000000        0.254809         3
         6         4        13        27     9      180.000000        0.088175         4
         6         4        16        15     9        0.000000       -0.039689         1
         6         4        16        15     9      180.000000       15.822046         2
         6         4        16        15     9        0.000000       -1.054702         3
         6         4        16        15     9      180.000000       -0.293758         4
         6         4        16        28     9        0.000000       -0.010390         1
         6         4        16        28     9      180.000000       13.021707         2
         6         4        16        28     9        0.000000       -0.454151         3
         6         4        16        28     9      180.000000        0.184317         4
         6         7        14        15     9        0.000000       -0.002528         1
         6         7        14        15     9      180.000000       21.431409         2
         6         7        14        15     9        0.000000       -0.728290         3
         6         7        14        15     9      180.000000       -0.086670         4
         7         6         4        13     9        0.000000        0.368706         1
         7         6         4        13     9      180.000000       17.250912         2
         7         6         4        13     9        0.000000        0.281694         3
         7         6         4        13     9      180.000000       -0.473227         4
         7         6         4        16     9        0.000000        0.072432         1
         7         6         4        16     9      180.000000       16.601230         2
         7         6         4        16     9        0.000000       -1.259844         3
         7         6         4        16     9      180.000000       -0.359155         4
         7        14        15        16     9        0.000000        0.371614         1
         7        14        15        16     9      180.000000       22.388817         2
         7        14        15        16     9        0.000000       -0.105050         3
         7        14        15        16     9      180.000000       -0.223925         4
         7        14        15        17     9        0.000000        0.478345         1
         7        14        15        17     9      180.000000       29.173095         2
         7        14        15        17     9        0.000000        0.746732         3
         7        14        15        17     9      180.000000       -0.622339         4
         8         1         2        11     9        0.000000        0.390197         1
         8         1         2        11     9      180.000000       17.596084         2
         8         1         2        11     9        0.000000        0.390763         3
         8         1         2        11     9      180.000000       -0.617838         4
         8         1         5        12     9        0.000000       -2.052614         1
         8         1         5        12     9      180.000000        1.139086         2
         8         1         5        12     9        0.000000        0.054306         3
         8         1         5        12     9      180.000000       -0.099915         4
         8         1         5        13     9        0.000000        0.440757         1
         8         1         5        13     9      180.000000       -0.113254         2
         8         1         5        13     9        0.000000        0.438440         3
         8         1         5        13     9      180.000000       -0.175863         4
         8        10         9        25     9        0.000000        0.064500         1
         8        10         9        25     9      180.000000       14.350302         2
         8        10         9        25     9        0.000000       -0.619285         3
         8        10         9        25     9      180.000000        0.031009         4
         9         3         2        11     9        0.000000        0.358058         1
         9         3         2        11     9      180.000000       20.681090         2
         9         3         2        11     9        0.000000        0.483238         3
         9         3         2        11     9      180.000000       -0.652499         4
         9        10         8        21     9        0.000000        0.358057         1
         9        10         8        21     9      180.000000       20.681092         2
         9        10         8        21     9        0.000000        0.483238         3
         9        10         8        21     9      180.000000       -0.652500         4
        10         9         3        22     9        0.000000        0.044045         1
        10         9         3        22     9      180.000000       14.360883         2
        10         9         3        22     9        0.000000       -0.708188         3
        10         9         3        22     9      180.000000        0.127882         4
        11         2         3        22     9        0.000000        0.034849         1
        11         2         3        22     9      180.000000       14.545328         2
        11         2         3        22     9        0.000000        0.037854         3
        11         2         3        22     9      180.000000        0.281396         4
        12         5        13        27     9        0.000000        0.189370         1
        12         5        13        27     9      180.000000       11.938541         2
        12         5        13        27     9        0.000000        0.390839         3
        12         5        13        27     9      180.000000        0.857293         4
        13         4         6        23     9        0.000000       -0.139266         1
        13         4         6        23     9      180.000000       13.649156         2
        13         4         6        23     9        0.000000       -0.068755         3
        13         4         6        23     9      180.000000        0.190415         4
        13         4        16        15     9        0.000000        0.361986         1
        13         4        16        15     9      180.000000       16.713112         2
        13         4        16        15     9        0.000000        0.176882         3
        13         4        16        15     9      180.000000       -0.500582         4
        13         4        16        28     9        0.000000       -0.212065         1
        13         4        16        28     9      180.000000       13.863605         2
        13         4        16        28     9        0.000000       -0.143058         3
        13         4        16        28     9      180.000000        0.223504         4
        14         7         6        23     9        0.000000        0.144766         1
        14         7         6        23     9      180.000000       15.688896         2
        14         7         6        23     9        0.000000       -0.242985         3
        14         7         6        23     9      180.000000       -0.119580         4
        14        15        16        28     9        0.000000       -0.094441         1
        14        15        16        28     9      180.000000       11.695231         2
        14        15        16        28     9        0.000000       -0.138994         3
        14        15        16        28     9      180.000000       -0.161981         4
        14        15        17        18     9        0.000000       -2.285121         1
        14        15        17        18     9      180.000000        4.195086         2
        14        15        17        18     9        0.000000        0.484662         3
        14        15        17        18     9      180.000000       -0.174484         4
        14        15        17        29     9        0.000000        2.086928         1
        14        15        17        29     9      180.000000        3.809026         2
        14        15        17        29     9        0.000000        0.056690         3
        14        15        17        29     9      180.000000       -0.293145         4
        15        14         7        24     9        0.000000        1.601938         1
        15        14         7        24     9      180.000000       20.418325         2
        15        14         7        24     9        0.000000        0.211707         3
        15        14         7        24     9      180.000000       -0.204870         4
        15        17        18        19     9        0.000000        0.161575         1
        15        17        18        19     9      180.000000        9.281209         2
        15        17        18        19     9        0.000000       -0.248814         3
        15        17        18        19     9      180.000000       -0.450935         4
        15        17        18        20     9        0.000000        0.782080         1
        15        17        18        20     9      180.000000        8.681027         2
        15        17        18        20     9        0.000000        0.504668         3
        15        17        18        20     9      180.000000       -0.490812         4
        16         4         6        23     9        0.000000        0.122029         1
        16         4         6        23     9      180.000000       13.164135         2
        16         4         6        23     9        0.000000       -0.486827         3
        16         4         6        23     9      180.000000        0.121131         4
        16         4        13        27     9        0.000000        0.958864         1
        16         4        13        27     9      180.000000        3.697166         2
        16         4        13        27     9        0.000000        0.260531         3
        16         4        13        27     9      180.000000        0.085054         4
        16        15        17        18     9        0.000000        0.557412         1
        16        15        17        18     9      180.000000        2.633637         2
        16        15        17        18     9        0.000000       -0.029960         3
        16        15        17        18     9      180.000000        0.110659         4
        16        15        17        29     9        0.000000        0.629665         1
        16        15        17        29     9      180.000000        4.854328         2
        16        15        17        29     9        0.000000        0.726915         3
        16        15        17        29     9      180.000000       -0.118113         4
        17        15        16        28     9        0.000000        0.189860         1
        17        15        16        28     9      180.000000       13.240679         2
        17        15        16        28     9        0.000000       -0.177930         3
        17        15        16        28     9      180.000000        0.140910         4
        17        18        20        30     9        0.000000       -0.039263         1
        17        18        20        30     9      180.000000       -0.029493         2
        17        18        20        30     9        0.000000        0.046650         3
        17        18        20        30     9      180.000000        0.024648         4
        17        18        20        31     9        0.000000       -0.039263         1
        17        18        20        31     9      180.000000       -0.029493         2
        17        18        20        31     9        0.000000        0.046650         3
        17        18        20        31     9      180.000000        0.024648         4
        17        18        20        32     9        0.000000       -0.039263         1
        17        18        20        32     9      180.000000       -0.029493         2
        17        18        20        32     9        0.000000        0.046650         3
        17        18        20        32     9      180.000000        0.024648         4
        19        18        17        29     9        0.000000       -0.446911         1
        19        18        17        29     9      180.000000       10.180887         2
        19        18        17        29     9        0.000000        0.001600         3
        19        18        17        29     9      180.000000        0.733574         4
        19        18        20        30     9        0.000000        0.019499         1
        19        18        20        30     9      180.000000        0.012404         2
        19        18        20        30     9        0.000000        0.048515         3
        19        18        20        30     9      180.000000       -0.013015         4
        19        18        20        31     9        0.000000        0.019499         1
        19        18        20        31     9      180.000000        0.012404         2
        19        18        20        31     9        0.000000        0.048515         3
        19        18        20        31     9      180.000000       -0.013015         4
        19        18        20        32     9        0.000000        0.019499         1
        19        18        20        32     9      180.000000        0.012404         2
        19        18        20        32     9        0.000000        0.048515         3
        19        18        20        32     9      180.000000       -0.013015         4
        20        18        17        29     9        0.000000        3.368983         1
        20        18        17        29     9      180.000000        9.108055         2
        20        18        17        29     9        0.000000       -0.001298         3
        20        18        17        29     9      180.000000        0.420887         4
        21         8        10        26     9        0.000000        0.034847         1
        21         8        10        26     9      180.000000       14.545326         2
        21         8        10        26     9        0.000000        0.037853         3
        21         8        10        26     9      180.000000        0.281397         4
        22         3         9        25     9        0.000000       -0.249552         1
        22         3         9        25     9      180.000000       11.261508         2
        22         3         9        25     9        0.000000       -0.621950         3
        22         3         9        25     9      180.000000        0.273002         4
        23         6         7        24     9        0.000000        0.015584         1
        23         6         7        24     9      180.000000       11.951685         2
        23         6         7        24     9        0.000000       -0.725462         3
        23         6         7        24     9      180.000000        0.280129         4
        25         9        10        26     9        0.000000       -0.249553         1
        25         9        10        26     9      180.000000       11.261505         2
        25         9        10        26     9        0.000000       -0.621950         3
        25         9        10        26     9      180.000000        0.273002         4

[ dihedrals ] ; impropers
;       ai        aj        ak        al funct           phase               k        pn
         5         1        12        13     4      180.000000       27.893333         2
         5        12        13         1     4      180.000000       27.893333         2
         5        13         1        12     4      180.000000       27.893333         2
         7         6        14        24     4      180.000000        1.496355         2
         7        14        24         6     4      180.000000        1.496355         2
         7        24         6        14     4      180.000000        1.496355         2
         9         3        10        25     4      180.000000        0.827180         2
         9        10        25         3     4      180.000000        0.827180         2
         9        25         3        10     4      180.000000        0.827180         2
        15        14        16        17     4      180.000000        1.958804         2
        15        16        17        14     4      180.000000        1.958804         2
        15        17        14        16     4      180.000000        1.958804         2
        18        17        19        20     4      180.000000       27.893333         2
        18        19        20        17     4      180.000000       27.893333         2
        18        20        17        19     4      180.000000       27.893333         2

[ pairs ]
;       ai        aj funct
         1         4     1
         1         9     1
         1        22     1
         1        26     1
         1        27     1
         2        10     1
         2        12     1
         2        13     1
         2        21     1
         2        25     1
         3         5     1
         3         8     1
         3        26     1
         4        12     1
         4        14     1
         4        17     1
         4        24     1
         5         6     1
         5        10     1
         5        11     1
         5        16     1
         5        21     1
         6        15     1
         6        27     1
         6        28     1
         7        13     1
         7        16     1
         7        17     1
         8        11     1
         8        12     1
         8        13     1
         8        25     1
         9        11     1
         9        21     1
        10        22     1
        11        22     1
        12        27     1
        13        15     1
        13        23     1
        13        28     1
        14        18     1
        14        23     1
        14        28     1
        14        29     1
        15        19     1
        15        20     1
        15        24     1
        16        18     1
        16        23     1
        16        27     1
        16        29     1
        17        28     1
        17        30     1
        17        31     1
        17        32     1
        19        29     1
        19        30     1
        19        31     1
        19        32     1
        20        29     1
        21        26     1
        22        25     1
        23        24     1
        25        26     1
