; ITP file created by ByteFF-ML, 2026-02-21 08:25:58.537672

[ atomtypes ]
;name           bonded.type        at.num        mass        charge   ptype           sigma         epsilon
 c0bf                                   6      0.0000       0.00000       A     3.31516e-01     4.11633e-01
 c1bf                                   6      0.0000       0.00000       A     3.31469e-01     4.12823e-01
 c2bf                                   6      0.0000       0.00000       A     3.31513e-01     4.12453e-01
 c3bf                                   6      0.0000       0.00000       A     3.31446e-01     4.15754e-01
 c4bf                                   6      0.0000       0.00000       A     3.31246e-01     4.10396e-01
 c5bf                                   6      0.0000       0.00000       A     3.31459e-01     4.12049e-01
 c6bf                                   6      0.0000       0.00000       A     3.31385e-01     4.12672e-01
 c7bf                                   6      0.0000       0.00000       A     3.31469e-01     4.12823e-01
 c8bf                                   6      0.0000       0.00000       A     3.31444e-01     4.13066e-01
 c9bf                                   6      0.0000       0.00000       A     3.31513e-01     4.12453e-01
 cl10bf                                17      0.0000       0.00000       A     3.46557e-01     1.10332e+00
 o11bf                                  8      0.0000       0.00000       A     3.04688e-01     6.11596e-01
 n12bf                                  7      0.0000       0.00000       A     3.27190e-01     4.85938e-01
 n13bf                                  7      0.0000       0.00000       A     3.38304e-01     3.93185e-01
 c14bf                                  6      0.0000       0.00000       A     3.31514e-01     4.13810e-01
 c15bf                                  6      0.0000       0.00000       A     3.31280e-01     4.14515e-01
 n16bf                                  7      0.0000       0.00000       A     3.26927e-01     4.84808e-01
 c17bf                                  6      0.0000       0.00000       A     3.31740e-01     4.14218e-01
 o18bf                                  8      0.0000       0.00000       A     3.05094e-01     6.11638e-01
 c19bf                                  6      0.0000       0.00000       A     3.40026e-01     4.59152e-01
 c20bf                                  6      0.0000       0.00000       A     3.39603e-01     4.49214e-01
 c21bf                                  6      0.0000       0.00000       A     3.39337e-01     4.42111e-01
 cl22bf                                17      0.0000       0.00000       A     3.46557e-01     1.10332e+00
 h23bf                                  1      0.0000       0.00000       A     2.62472e-01     6.72807e-02
 h24bf                                  1      0.0000       0.00000       A     2.62569e-01     6.73892e-02
 h25bf                                  1      0.0000       0.00000       A     2.53603e-01     6.75872e-02
 h26bf                                  1      0.0000       0.00000       A     2.62442e-01     6.71179e-02
 h27bf                                  1      0.0000       0.00000       A     2.62472e-01     6.72807e-02
 h28bf                                  1      0.0000       0.00000       A     1.10552e-01     4.15186e-02
 h29bf                                  1      0.0000       0.00000       A     2.62698e-01     6.80197e-02
 h30bf                                  1      0.0000       0.00000       A     1.10366e-01     4.04795e-02
 h31bf                                  1      0.0000       0.00000       A     2.59672e-01     8.62101e-02
 h32bf                                  1      0.0000       0.00000       A     2.60070e-01     8.57584e-02
 h33bf                                  1      0.0000       0.00000       A     2.60070e-01     8.57584e-02
 h34bf                                  1      0.0000       0.00000       A     2.43104e-01     8.58526e-02
 cl35bf                                17      0.0000       0.00000       A     3.46316e-01     1.11188e+00

[ moleculetype ]
;name             nrexcl
 jmc_27                3

[ atoms ]
;       nr            type      resi   res      atom      cgnr      charge          mass ; qtot
         1            c0bf         1   UNL        c0         1    -0.13969       12.0110 ; qtot   -0.140
         2            c1bf         1   UNL        c1         2     0.15319       12.0110 ; qtot    0.013
         3            c2bf         1   UNL        c2         3    -0.10353       12.0110 ; qtot   -0.090
         4            c3bf         1   UNL        c3         4     0.03989       12.0110 ; qtot   -0.050
         5            c4bf         1   UNL        c4         5     0.63693       12.0110 ; qtot    0.587
         6            c5bf         1   UNL        c5         6    -0.22521       12.0110 ; qtot    0.362
         7            c6bf         1   UNL        c6         7     0.39007       12.0110 ; qtot    0.752
         8            c7bf         1   UNL        c7         8     0.15319       12.0110 ; qtot    0.905
         9            c8bf         1   UNL        c8         9    -0.08095       12.0110 ; qtot    0.824
        10            c9bf         1   UNL        c9        10    -0.10353       12.0110 ; qtot    0.720
        11          cl10bf         1   UNL      cl10        11    -0.18538       35.4530 ; qtot    0.535
        12           o11bf         1   UNL       o11        12    -0.54820       15.9990 ; qtot   -0.013
        13           n12bf         1   UNL       n12        13    -0.14723       14.0070 ; qtot   -0.160
        14           n13bf         1   UNL       n13        14    -0.71964       14.0070 ; qtot   -0.880
        15           c14bf         1   UNL       c14        15     0.49264       12.0110 ; qtot   -0.387
        16           c15bf         1   UNL       c15        16    -0.22016       12.0110 ; qtot   -0.608
        17           n16bf         1   UNL       n16        17    -0.32077       14.0070 ; qtot   -0.928
        18           c17bf         1   UNL       c17        18     0.64960       12.0110 ; qtot   -0.279
        19           o18bf         1   UNL       o18        19    -0.56089       15.9990 ; qtot   -0.840
        20           c19bf         1   UNL       c19        20    -0.23116       12.0110 ; qtot   -1.071
        21           c20bf         1   UNL       c20        21    -0.07947       12.0110 ; qtot   -1.150
        22           c21bf         1   UNL       c21        22     0.08368       12.0110 ; qtot   -1.067
        23          cl22bf         1   UNL      cl22        23    -0.18538       35.4530 ; qtot   -1.252
        24           h23bf         1   UNL       h23        24     0.13919        1.0080 ; qtot   -1.113
        25           h24bf         1   UNL       h24        25     0.14093        1.0080 ; qtot   -0.972
        26           h25bf         1   UNL       h25        26     0.02391        1.0080 ; qtot   -0.948
        27           h26bf         1   UNL       h26        27     0.12973        1.0080 ; qtot   -0.818
        28           h27bf         1   UNL       h27        28     0.13919        1.0080 ; qtot   -0.679
        29           h28bf         1   UNL       h28        29     0.17125        1.0080 ; qtot   -0.508
        30           h29bf         1   UNL       h29        30     0.15928        1.0080 ; qtot   -0.349
        31           h30bf         1   UNL       h30        31     0.16655        1.0080 ; qtot   -0.182
        32           h31bf         1   UNL       h31        32     0.11378        1.0080 ; qtot   -0.068
        33           h32bf         1   UNL       h32        33     0.09512        1.0080 ; qtot    0.027
        34           h33bf         1   UNL       h33        34     0.09512        1.0080 ; qtot    0.122
        35           h34bf         1   UNL       h34        35     0.10780        1.0080 ; qtot    0.230
        36          cl35bf         1   UNL      cl35        36    -0.22985       35.4530 ; qtot    0.000

[ bonds ]
;       ai        aj funct               r               k
         1         2     1        0.140153   273317.935791
         1         5     1        0.151711   166028.776025
         1         8     1        0.140153   273317.935791
         2         3     1        0.139601   303384.741016
         2        11     1        0.175680   146917.122583
         3         9     1        0.139552   310746.655518
         3        24     1        0.108433   325893.481201
         4         6     1        0.140513   286751.119287
         4        13     1        0.140524   250238.798730
         4        16     1        0.139963   298006.549170
         5        12     1        0.122463   630902.561133
         5        13     1        0.137080   280552.062598
         6         7     1        0.139256   310098.600293
         6        25     1        0.108288   328862.757520
         7        14     1        0.133863   332565.255322
         7        26     1        0.108846   313284.405762
         8        10     1        0.139601   303384.741016
         8        23     1        0.175680   146917.160889
         9        10     1        0.139552   310746.655518
         9        27     1        0.108532   324260.434131
        10        28     1        0.108433   325893.481201
        13        29     1        0.101272   414819.901562
        14        15     1        0.133887   295542.473486
        15        16     1        0.140358   276609.311670
        15        17     1        0.140528   241570.916455
        16        30     1        0.108098   332566.251270
        17        18     1        0.138144   248095.341455
        17        31     1        0.101278   416380.525391
        18        19     1        0.122659   615047.846777
        18        20     1        0.150478   177107.923242
        20        21     1        0.152958   168781.012451
        20        22     1        0.151693   179015.213330
        20        32     1        0.108483   322264.121680
        21        22     1        0.149436   221671.558105
        21        33     1        0.108445   326015.650732
        21        34     1        0.108445   326015.650732
        22        35     1        0.108482   325578.123438
        22        36     1        0.178631   131192.953931

[ angles ]
;       ai        aj        ak funct           theta             cth
         1         2         3     1      121.751663      655.182887
         1         2        11     1      119.792053      319.960477
         1         5        12     1      120.784958      604.796191
         1         5        13     1      113.460876      443.006218
         1         8        10     1      121.751663      655.182887
         1         8        23     1      119.792053      319.960508
         2         1         5     1      121.186684      614.373182
         2         1         8     1      117.581833      636.725686
         2         3         9     1      119.116493      651.293458
         2         3        24     1      119.837120      399.290326
         3         2        11     1      118.196632      386.667588
         3         9        10     1      120.469688      692.783216
         3         9        27     1      119.783386      428.127021
         4         6         7     1      117.801376      807.940832
         4         6        25     1      121.420532      455.652322
         4        13         5     1      128.688263      489.007969
         4        13        29     1      115.373009      446.250676
         4        16        15     1      117.972672      854.860993
         4        16        30     1      120.919968      419.833558
         5         1         8     1      121.186684      614.373182
         5        13        29     1      116.072533      474.421268
         6         4        13     1      120.826538      611.104943
         6         4        16     1      118.444016      586.517303
         6         7        14     1      124.745895      697.898427
         6         7        26     1      119.546288      417.474184
         7         6        25     1      120.837181      432.142636
         7        14        15     1      117.139610      789.158735
         8        10         9     1      119.116493      651.293458
         8        10        28     1      119.837120      399.290326
         9         3        24     1      120.963646      425.124974
         9        10        28     1      120.963661      425.124974
        10         8        23     1      118.196632      386.667588
        10         9        27     1      119.783386      428.127021
        12         5        13     1      125.471703      605.741958
        13         4        16     1      120.214561      500.049736
        14         7        26     1      115.655136      405.669655
        14        15        16     1      123.808365      582.962729
        14        15        17     1      113.798508      630.793032
        15        16        30     1      120.172646      446.378393
        15        17        18     1      128.754883      533.370014
        15        17        31     1      113.040672      455.793925
        16        15        17     1      121.323730      484.180785
        17        18        19     1      124.134079      623.787884
        17        18        20     1      113.992470      450.315609
        18        17        31     1      117.482765      428.136470
        18        20        21     1      119.490311      428.439212
        18        20        22     1      119.962479      491.535728
        18        20        32     1      115.070053      439.064437
        19        18        20     1      121.488831      564.864005
        20        21        22     1       60.367317      167.360000
        20        21        33     1      116.931862      358.904728
        20        21        34     1      116.931862      358.904728
        20        22        21     1       60.878899      167.360000
        20        22        35     1      117.205116      338.146218
        20        22        36     1      119.446861      378.356185
        21        20        22     1       58.872803      167.360000
        21        20        32     1      116.955421      364.191101
        21        22        35     1      119.220825      343.367536
        21        22        36     1      120.139908      412.189375
        22        20        32     1      115.395874      380.846244
        22        21        33     1      117.589645      374.973188
        22        21        34     1      117.589645      374.973188
        33        21        34     1      116.309006      302.435571
        35        22        36     1      111.865623      335.239425

[ dihedrals ] ; propers for gromacs 4.5 or higher, use funct 9
;       ai        aj        ak        al funct           phase               k        pn
         1         2         3         9     9        0.000000       -0.076454         1
         1         2         3         9     9      180.000000       18.378655         2
         1         2         3         9     9        0.000000       -1.485477         3
         1         2         3         9     9      180.000000       -0.443965         4
         1         2         3        24     9        0.000000       -0.051695         1
         1         2         3        24     9      180.000000       13.896893         2
         1         2         3        24     9        0.000000       -0.582597         3
         1         2         3        24     9      180.000000        0.104501         4
         1         5        13         4     9        0.000000        1.943510         1
         1         5        13         4     9      180.000000        8.245869         2
         1         5        13         4     9        0.000000        0.553648         3
         1         5        13         4     9      180.000000       -0.727358         4
         1         5        13        29     9        0.000000        0.256953         1
         1         5        13        29     9      180.000000        8.497288         2
         1         5        13        29     9        0.000000       -0.416932         3
         1         5        13        29     9      180.000000        0.234809         4
         1         8        10         9     9        0.000000       -0.076454         1
         1         8        10         9     9      180.000000       18.378655         2
         1         8        10         9     9        0.000000       -1.485477         3
         1         8        10         9     9      180.000000       -0.443965         4
         1         8        10        28     9        0.000000       -0.051695         1
         1         8        10        28     9      180.000000       13.896894         2
         1         8        10        28     9        0.000000       -0.582597         3
         1         8        10        28     9      180.000000        0.104501         4
         2         1         5        12     9        0.000000       -2.052614         1
         2         1         5        12     9      180.000000        1.139086         2
         2         1         5        12     9        0.000000        0.054306         3
         2         1         5        12     9      180.000000       -0.099915         4
         2         1         5        13     9        0.000000        0.440757         1
         2         1         5        13     9      180.000000       -0.113254         2
         2         1         5        13     9        0.000000        0.438440         3
         2         1         5        13     9      180.000000       -0.175863         4
         2         1         8        10     9        0.000000       -0.232741         1
         2         1         8        10     9      180.000000       16.722108         2
         2         1         8        10     9        0.000000       -1.528985         3
         2         1         8        10     9      180.000000       -0.338205         4
         2         1         8        23     9        0.000000        0.390196         1
         2         1         8        23     9      180.000000       17.596080         2
         2         1         8        23     9        0.000000        0.390762         3
         2         1         8        23     9      180.000000       -0.617838         4
         2         3         9        10     9        0.000000       -0.096937         1
         2         3         9        10     9      180.000000       18.601608         2
         2         3         9        10     9        0.000000       -1.549844         3
         2         3         9        10     9      180.000000       -0.460936         4
         2         3         9        27     9        0.000000        0.064500         1
         2         3         9        27     9      180.000000       14.350299         2
         2         3         9        27     9        0.000000       -0.619285         3
         2         3         9        27     9      180.000000        0.031010         4
         3         2         1         5     9        0.000000        0.221282         1
         3         2         1         5     9      180.000000       13.281605         2
         3         2         1         5     9        0.000000       -0.048385         3
         3         2         1         5     9      180.000000       -0.286210         4
         3         2         1         8     9        0.000000       -0.232741         1
         3         2         1         8     9      180.000000       16.722108         2
         3         2         1         8     9        0.000000       -1.528985         3
         3         2         1         8     9      180.000000       -0.338205         4
         3         9        10         8     9        0.000000       -0.096937         1
         3         9        10         8     9      180.000000       18.601608         2
         3         9        10         8     9        0.000000       -1.549844         3
         3         9        10         8     9      180.000000       -0.460936         4
         3         9        10        28     9        0.000000        0.044045         1
         3         9        10        28     9      180.000000       14.360884         2
         3         9        10        28     9        0.000000       -0.708188         3
         3         9        10        28     9      180.000000        0.127882         4
         4         6         7        14     9        0.000000       -0.101868         1
         4         6         7        14     9      180.000000       18.758846         2
         4         6         7        14     9        0.000000       -1.120673         3
         4         6         7        14     9      180.000000       -0.631980         4
         4         6         7        26     9        0.000000        0.173211         1
         4         6         7        26     9      180.000000       14.523484         2
         4         6         7        26     9        0.000000       -0.533298         3
         4         6         7        26     9      180.000000       -0.020321         4
         4        13         5        12     9        0.000000       -0.902764         1
         4        13         5        12     9      180.000000        9.869690         2
         4        13         5        12     9        0.000000        0.328250         3
         4        13         5        12     9      180.000000       -0.852134         4
         4        16        15        14     9        0.000000        0.125730         1
         4        16        15        14     9      180.000000       13.232139         2
         4        16        15        14     9        0.000000       -0.309258         3
         4        16        15        14     9      180.000000       -0.359168         4
         4        16        15        17     9        0.000000        0.438386         1
         4        16        15        17     9      180.000000       15.770324         2
         4        16        15        17     9        0.000000        0.362843         3
         4        16        15        17     9      180.000000       -0.549693         4
         5         1         2        11     9        0.000000        0.372587         1
         5         1         2        11     9      180.000000       14.761763         2
         5         1         2        11     9        0.000000        0.512397         3
         5         1         2        11     9      180.000000       -0.697437         4
         5         1         8        10     9        0.000000        0.221282         1
         5         1         8        10     9      180.000000       13.281605         2
         5         1         8        10     9        0.000000       -0.048385         3
         5         1         8        10     9      180.000000       -0.286210         4
         5         1         8        23     9        0.000000        0.372588         1
         5         1         8        23     9      180.000000       14.761763         2
         5         1         8        23     9        0.000000        0.512396         3
         5         1         8        23     9      180.000000       -0.697437         4
         5        13         4         6     9        0.000000       -0.079836         1
         5        13         4         6     9      180.000000        2.906425         2
         5        13         4         6     9        0.000000       -0.037766         3
         5        13         4         6     9      180.000000        0.090064         4
         5        13         4        16     9        0.000000        0.010601         1
         5        13         4        16     9      180.000000        2.903844         2
         5        13         4        16     9        0.000000       -0.055962         3
         5        13         4        16     9      180.000000        0.085791         4
         6         4        13        29     9        0.000000        0.349726         1
         6         4        13        29     9      180.000000        3.679211         2
         6         4        13        29     9        0.000000        0.254809         3
         6         4        13        29     9      180.000000        0.088175         4
         6         4        16        15     9        0.000000       -0.027525         1
         6         4        16        15     9      180.000000       15.896549         2
         6         4        16        15     9        0.000000       -1.083663         3
         6         4        16        15     9      180.000000       -0.315858         4
         6         4        16        30     9        0.000000       -0.016236         1
         6         4        16        30     9      180.000000       13.047971         2
         6         4        16        30     9        0.000000       -0.463903         3
         6         4        16        30     9      180.000000        0.183118         4
         6         7        14        15     9        0.000000       -0.011421         1
         6         7        14        15     9      180.000000       21.543880         2
         6         7        14        15     9        0.000000       -0.791685         3
         6         7        14        15     9      180.000000       -0.099507         4
         7         6         4        13     9        0.000000        0.368706         1
         7         6         4        13     9      180.000000       17.250912         2
         7         6         4        13     9        0.000000        0.281694         3
         7         6         4        13     9      180.000000       -0.473227         4
         7         6         4        16     9        0.000000        0.081608         1
         7         6         4        16     9      180.000000       16.590097         2
         7         6         4        16     9        0.000000       -1.243746         3
         7         6         4        16     9      180.000000       -0.358586         4
         7        14        15        16     9        0.000000        0.377507         1
         7        14        15        16     9      180.000000       22.201979         2
         7        14        15        16     9        0.000000       -0.080984         3
         7        14        15        16     9      180.000000       -0.216724         4
         7        14        15        17     9        0.000000        0.534078         1
         7        14        15        17     9      180.000000       29.153846         2
         7        14        15        17     9        0.000000        0.770188         3
         7        14        15        17     9      180.000000       -0.663985         4
         8         1         2        11     9        0.000000        0.390197         1
         8         1         2        11     9      180.000000       17.596084         2
         8         1         2        11     9        0.000000        0.390763         3
         8         1         2        11     9      180.000000       -0.617838         4
         8         1         5        12     9        0.000000       -2.052614         1
         8         1         5        12     9      180.000000        1.139086         2
         8         1         5        12     9        0.000000        0.054306         3
         8         1         5        12     9      180.000000       -0.099915         4
         8         1         5        13     9        0.000000        0.440757         1
         8         1         5        13     9      180.000000       -0.113254         2
         8         1         5        13     9        0.000000        0.438440         3
         8         1         5        13     9      180.000000       -0.175863         4
         8        10         9        27     9        0.000000        0.064500         1
         8        10         9        27     9      180.000000       14.350299         2
         8        10         9        27     9        0.000000       -0.619285         3
         8        10         9        27     9      180.000000        0.031010         4
         9         3         2        11     9        0.000000        0.358058         1
         9         3         2        11     9      180.000000       20.681090         2
         9         3         2        11     9        0.000000        0.483238         3
         9         3         2        11     9      180.000000       -0.652499         4
         9        10         8        23     9        0.000000        0.358057         1
         9        10         8        23     9      180.000000       20.681092         2
         9        10         8        23     9        0.000000        0.483238         3
         9        10         8        23     9      180.000000       -0.652500         4
        10         9         3        24     9        0.000000        0.044045         1
        10         9         3        24     9      180.000000       14.360883         2
        10         9         3        24     9        0.000000       -0.708188         3
        10         9         3        24     9      180.000000        0.127882         4
        11         2         3        24     9        0.000000        0.034849         1
        11         2         3        24     9      180.000000       14.545328         2
        11         2         3        24     9        0.000000        0.037854         3
        11         2         3        24     9      180.000000        0.281396         4
        12         5        13        29     9        0.000000        0.189370         1
        12         5        13        29     9      180.000000       11.938541         2
        12         5        13        29     9        0.000000        0.390839         3
        12         5        13        29     9      180.000000        0.857293         4
        13         4         6        25     9        0.000000       -0.139266         1
        13         4         6        25     9      180.000000       13.649156         2
        13         4         6        25     9        0.000000       -0.068755         3
        13         4         6        25     9      180.000000        0.190415         4
        13         4        16        15     9        0.000000        0.325755         1
        13         4        16        15     9      180.000000       16.821881         2
        13         4        16        15     9        0.000000        0.159002         3
        13         4        16        15     9      180.000000       -0.538251         4
        13         4        16        30     9        0.000000       -0.213758         1
        13         4        16        30     9      180.000000       13.869065         2
        13         4        16        30     9        0.000000       -0.148384         3
        13         4        16        30     9      180.000000        0.225480         4
        14         7         6        25     9        0.000000        0.150135         1
        14         7         6        25     9      180.000000       15.664247         2
        14         7         6        25     9        0.000000       -0.241286         3
        14         7         6        25     9      180.000000       -0.125289         4
        14        15        16        30     9        0.000000       -0.138630         1
        14        15        16        30     9      180.000000       11.616167         2
        14        15        16        30     9        0.000000       -0.160510         3
        14        15        16        30     9      180.000000       -0.178771         4
        14        15        17        18     9        0.000000       -1.929980         1
        14        15        17        18     9      180.000000        4.322429         2
        14        15        17        18     9        0.000000        0.308595         3
        14        15        17        18     9      180.000000       -0.098335         4
        14        15        17        31     9        0.000000        2.426167         1
        14        15        17        31     9      180.000000        3.856370         2
        14        15        17        31     9        0.000000        0.342938         3
        14        15        17        31     9      180.000000       -0.298094         4
        15        14         7        26     9        0.000000        1.553341         1
        15        14         7        26     9      180.000000       20.429011         2
        15        14         7        26     9        0.000000        0.207392         3
        15        14         7        26     9      180.000000       -0.212481         4
        15        17        18        19     9        0.000000       -0.455351         1
        15        17        18        19     9      180.000000        8.569796         2
        15        17        18        19     9        0.000000       -0.332144         3
        15        17        18        19     9      180.000000       -0.223452         4
        15        17        18        20     9        0.000000        0.728635         1
        15        17        18        20     9      180.000000        9.853440         2
        15        17        18        20     9        0.000000        0.416185         3
        15        17        18        20     9      180.000000       -0.380711         4
        16         4         6        25     9        0.000000        0.124440         1
        16         4         6        25     9      180.000000       13.156038         2
        16         4         6        25     9        0.000000       -0.484029         3
        16         4         6        25     9      180.000000        0.120324         4
        16         4        13        29     9        0.000000        0.968575         1
        16         4        13        29     9      180.000000        3.699411         2
        16         4        13        29     9        0.000000        0.257965         3
        16         4        13        29     9      180.000000        0.081633         4
        16        15        17        18     9        0.000000        0.270566         1
        16        15        17        18     9      180.000000        3.011556         2
        16        15        17        18     9        0.000000       -0.123848         3
        16        15        17        18     9      180.000000        0.098399         4
        16        15        17        31     9        0.000000        0.417646         1
        16        15        17        31     9      180.000000        4.818002         2
        16        15        17        31     9        0.000000        0.639281         3
        16        15        17        31     9      180.000000       -0.130081         4
        17        15        16        30     9        0.000000        0.112639         1
        17        15        16        30     9      180.000000       13.170080         2
        17        15        16        30     9        0.000000       -0.168944         3
        17        15        16        30     9      180.000000        0.164803         4
        17        18        20        21     9        0.000000        0.362017         1
        17        18        20        21     9      180.000000        1.784843         2
        17        18        20        21     9        0.000000        0.054650         3
        17        18        20        21     9      180.000000        0.048201         4
        17        18        20        22     9        0.000000       -0.030114         1
        17        18        20        22     9      180.000000        1.635346         2
        17        18        20        22     9        0.000000       -0.017435         3
        17        18        20        22     9      180.000000        0.046528         4
        17        18        20        32     9        0.000000        0.191558         1
        17        18        20        32     9      180.000000        2.497820         2
        17        18        20        32     9        0.000000       -0.154914         3
        17        18        20        32     9      180.000000        0.083309         4
        18        20        21        22     9        0.000000       16.217335         1
        18        20        21        22     9      180.000000        6.046781         2
        18        20        21        22     9        0.000000        3.060408         3
        18        20        21        22     9      180.000000        6.882944         4
        18        20        21        33     9        0.000000        2.992309         1
        18        20        21        33     9      180.000000        0.170703         2
        18        20        21        33     9        0.000000        0.586169         3
        18        20        21        33     9      180.000000        1.429521         4
        18        20        21        34     9        0.000000        2.992309         1
        18        20        21        34     9      180.000000        0.170703         2
        18        20        21        34     9        0.000000        0.586169         3
        18        20        21        34     9      180.000000        1.429521         4
        18        20        22        21     9        0.000000       27.429718         1
        18        20        22        21     9      180.000000        5.746896         2
        18        20        22        21     9        0.000000        2.582853         3
        18        20        22        21     9      180.000000        8.799682         4
        18        20        22        35     9        0.000000        5.680868         1
        18        20        22        35     9      180.000000        1.777070         2
        18        20        22        35     9        0.000000        0.668453         3
        18        20        22        35     9      180.000000        2.540277         4
        18        20        22        36     9        0.000000        5.108058         1
        18        20        22        36     9      180.000000       -0.092144         2
        18        20        22        36     9        0.000000        0.590798         3
        18        20        22        36     9      180.000000        1.368399         4
        19        18        17        31     9        0.000000       -0.981956         1
        19        18        17        31     9      180.000000        9.535156         2
        19        18        17        31     9        0.000000        0.073055         3
        19        18        17        31     9      180.000000        0.798791         4
        19        18        20        21     9        0.000000       -0.325317         1
        19        18        20        21     9      180.000000        1.574953         2
        19        18        20        21     9        0.000000        0.022820         3
        19        18        20        21     9      180.000000        0.081542         4
        19        18        20        22     9        0.000000       -1.435839         1
        19        18        20        22     9      180.000000        1.179258         2
        19        18        20        22     9        0.000000        0.324557         3
        19        18        20        22     9      180.000000        0.095629         4
        19        18        20        32     9        0.000000        0.143032         1
        19        18        20        32     9      180.000000        2.286718         2
        19        18        20        32     9        0.000000        0.307625         3
        19        18        20        32     9      180.000000        0.118314         4
        20        18        17        31     9        0.000000        3.413365         1
        20        18        17        31     9      180.000000       10.294350         2
        20        18        17        31     9        0.000000        0.057826         3
        20        18        17        31     9      180.000000        0.451959         4
        20        21        22        35     9        0.000000       28.119619         1
        20        21        22        35     9      180.000000       -0.590810         2
        20        21        22        35     9        0.000000       -0.322317         3
        20        21        22        35     9      180.000000        6.514393         4
        20        21        22        36     9        0.000000       54.988611         1
        20        21        22        36     9      180.000000      -10.334225         2
        20        21        22        36     9        0.000000       -1.616546         3
        20        21        22        36     9      180.000000       11.368772         4
        20        22        21        33     9        0.000000       17.708090         1
        20        22        21        33     9      180.000000        1.097407         2
        20        22        21        33     9        0.000000       -0.134877         3
        20        22        21        33     9      180.000000        4.503679         4
        20        22        21        34     9        0.000000       17.708090         1
        20        22        21        34     9      180.000000        1.097407         2
        20        22        21        34     9        0.000000       -0.134877         3
        20        22        21        34     9      180.000000        4.503679         4
        21        20        22        35     9        0.000000       30.453360         1
        21        20        22        35     9      180.000000        3.630693         2
        21        20        22        35     9        0.000000       -0.485202         3
        21        20        22        35     9      180.000000        5.269416         4
        21        20        22        36     9        0.000000       56.772338         1
        21        20        22        36     9      180.000000       -0.881634         2
        21        20        22        36     9        0.000000       -1.531891         3
        21        20        22        36     9      180.000000       11.181445         4
        21        22        20        32     9        0.000000       27.430201         1
        21        22        20        32     9      180.000000        4.717635         2
        21        22        20        32     9        0.000000       -0.215698         3
        21        22        20        32     9      180.000000        4.792443         4
        22        20        21        33     9        0.000000       19.234758         1
        22        20        21        33     9      180.000000        3.324755         2
        22        20        21        33     9        0.000000       -0.022274         3
        22        20        21        33     9      180.000000        3.663101         4
        22        20        21        34     9        0.000000       19.234758         1
        22        20        21        34     9      180.000000        3.324755         2
        22        20        21        34     9        0.000000       -0.022274         3
        22        20        21        34     9      180.000000        3.663101         4
        22        21        20        32     9        0.000000       25.326025         1
        22        21        20        32     9      180.000000        3.969851         2
        22        21        20        32     9        0.000000       -0.137511         3
        22        21        20        32     9      180.000000        4.235875         4
        23         8        10        28     9        0.000000        0.034847         1
        23         8        10        28     9      180.000000       14.545326         2
        23         8        10        28     9        0.000000        0.037853         3
        23         8        10        28     9      180.000000        0.281397         4
        24         3         9        27     9        0.000000       -0.249552         1
        24         3         9        27     9      180.000000       11.261506         2
        24         3         9        27     9        0.000000       -0.621949         3
        24         3         9        27     9      180.000000        0.273003         4
        25         6         7        26     9        0.000000        0.015584         1
        25         6         7        26     9      180.000000       11.951684         2
        25         6         7        26     9        0.000000       -0.725462         3
        25         6         7        26     9      180.000000        0.280129         4
        27         9        10        28     9        0.000000       -0.249552         1
        27         9        10        28     9      180.000000       11.261506         2
        27         9        10        28     9        0.000000       -0.621950         3
        27         9        10        28     9      180.000000        0.273003         4
        32        20        21        33     9        0.000000        2.586253         1
        32        20        21        33     9      180.000000        0.681008         2
        32        20        21        33     9        0.000000       -0.121433         3
        32        20        21        33     9      180.000000        1.197551         4
        32        20        21        34     9        0.000000        2.586253         1
        32        20        21        34     9      180.000000        0.681008         2
        32        20        21        34     9        0.000000       -0.121433         3
        32        20        21        34     9      180.000000        1.197551         4
        32        20        22        35     9        0.000000        4.476563         1
        32        20        22        35     9      180.000000        2.484462         2
        32        20        22        35     9        0.000000        0.127879         3
        32        20        22        35     9      180.000000        2.055050         4
        32        20        22        36     9        0.000000        3.441888         1
        32        20        22        36     9      180.000000        1.715605         2
        32        20        22        36     9        0.000000        0.172101         3
        32        20        22        36     9      180.000000        1.602075         4
        33        21        22        35     9        0.000000       -1.333481         1
        33        21        22        35     9      180.000000       -0.501453         2
        33        21        22        35     9        0.000000       -0.185208         3
        33        21        22        35     9      180.000000        1.197797         4
        33        21        22        36     9        0.000000       -4.023717         1
        33        21        22        36     9      180.000000       -1.153277         2
        33        21        22        36     9        0.000000       -0.195765         3
        33        21        22        36     9      180.000000        0.964090         4
        34        21        22        35     9        0.000000       -1.333481         1
        34        21        22        35     9      180.000000       -0.501453         2
        34        21        22        35     9        0.000000       -0.185208         3
        34        21        22        35     9      180.000000        1.197797         4
        34        21        22        36     9        0.000000       -4.023717         1
        34        21        22        36     9      180.000000       -1.153277         2
        34        21        22        36     9        0.000000       -0.195765         3
        34        21        22        36     9      180.000000        0.964090         4

[ dihedrals ] ; impropers
;       ai        aj        ak        al funct           phase               k        pn
         5         1        12        13     4      180.000000       27.893333         2
         5        12        13         1     4      180.000000       27.893333         2
         5        13         1        12     4      180.000000       27.893333         2
         7         6        14        26     4      180.000000        1.510313         2
         7        14        26         6     4      180.000000        1.510313         2
         7        26         6        14     4      180.000000        1.510313         2
         9         3        10        27     4      180.000000        0.827180         2
         9        10        27         3     4      180.000000        0.827180         2
         9        27         3        10     4      180.000000        0.827180         2
        15        14        16        17     4      180.000000        1.823427         2
        15        16        17        14     4      180.000000        1.823427         2
        15        17        14        16     4      180.000000        1.823427         2
        18        17        19        20     4      180.000000       18.373765         2
        18        19        20        17     4      180.000000       18.373765         2
        18        20        17        19     4      180.000000       18.373765         2

[ pairs ]
;       ai        aj funct
         1         4     1
         1         9     1
         1        24     1
         1        28     1
         1        29     1
         2        10     1
         2        12     1
         2        13     1
         2        23     1
         2        27     1
         3         5     1
         3         8     1
         3        28     1
         4        12     1
         4        14     1
         4        17     1
         4        26     1
         5         6     1
         5        10     1
         5        11     1
         5        16     1
         5        23     1
         6        15     1
         6        29     1
         6        30     1
         7        13     1
         7        16     1
         7        17     1
         8        11     1
         8        12     1
         8        13     1
         8        27     1
         9        11     1
         9        23     1
        10        24     1
        11        24     1
        12        29     1
        13        15     1
        13        25     1
        13        30     1
        14        18     1
        14        25     1
        14        30     1
        14        31     1
        15        19     1
        15        20     1
        15        26     1
        16        18     1
        16        25     1
        16        29     1
        16        31     1
        17        21     1
        17        22     1
        17        30     1
        17        32     1
        18        33     1
        18        34     1
        18        35     1
        18        36     1
        19        21     1
        19        22     1
        19        31     1
        19        32     1
        20        31     1
        23        28     1
        24        27     1
        25        26     1
        27        28     1
        32        33     1
        32        34     1
        32        35     1
        32        36     1
        33        35     1
        33        36     1
        34        35     1
        34        36     1
