; ITP file created by ByteFF-ML, 2026-02-21 08:26:10.746490

[ atomtypes ]
;name           bonded.type        at.num        mass        charge   ptype           sigma         epsilon
 c0bf                                   6      0.0000       0.00000       A     3.31516e-01     4.11633e-01
 c1bf                                   6      0.0000       0.00000       A     3.31469e-01     4.12823e-01
 c2bf                                   6      0.0000       0.00000       A     3.31513e-01     4.12453e-01
 c3bf                                   6      0.0000       0.00000       A     3.31446e-01     4.15754e-01
 c4bf                                   6      0.0000       0.00000       A     3.31246e-01     4.10396e-01
 c5bf                                   6      0.0000       0.00000       A     3.31459e-01     4.12049e-01
 c6bf                                   6      0.0000       0.00000       A     3.31385e-01     4.12672e-01
 c7bf                                   6      0.0000       0.00000       A     3.31469e-01     4.12823e-01
 c8bf                                   6      0.0000       0.00000       A     3.31444e-01     4.13066e-01
 c9bf                                   6      0.0000       0.00000       A     3.31513e-01     4.12453e-01
 cl10bf                                17      0.0000       0.00000       A     3.46557e-01     1.10332e+00
 o11bf                                  8      0.0000       0.00000       A     3.04688e-01     6.11596e-01
 n12bf                                  7      0.0000       0.00000       A     3.27190e-01     4.85938e-01
 n13bf                                  7      0.0000       0.00000       A     3.38304e-01     3.93185e-01
 c14bf                                  6      0.0000       0.00000       A     3.31514e-01     4.13810e-01
 c15bf                                  6      0.0000       0.00000       A     3.31280e-01     4.14515e-01
 n16bf                                  7      0.0000       0.00000       A     3.26987e-01     4.86148e-01
 c17bf                                  6      0.0000       0.00000       A     3.31631e-01     4.14697e-01
 o18bf                                  8      0.0000       0.00000       A     3.05046e-01     6.11055e-01
 c19bf                                  6      0.0000       0.00000       A     3.40166e-01     4.51084e-01
 c20bf                                  6      0.0000       0.00000       A     3.39401e-01     4.50101e-01
 c21bf                                  6      0.0000       0.00000       A     3.39109e-01     4.48633e-01
 cl22bf                                17      0.0000       0.00000       A     3.46557e-01     1.10332e+00
 h23bf                                  1      0.0000       0.00000       A     2.62472e-01     6.72807e-02
 h24bf                                  1      0.0000       0.00000       A     2.62569e-01     6.73892e-02
 h25bf                                  1      0.0000       0.00000       A     2.53603e-01     6.75872e-02
 h26bf                                  1      0.0000       0.00000       A     2.62442e-01     6.71179e-02
 h27bf                                  1      0.0000       0.00000       A     2.62472e-01     6.72807e-02
 h28bf                                  1      0.0000       0.00000       A     1.10552e-01     4.15186e-02
 h29bf                                  1      0.0000       0.00000       A     2.62698e-01     6.80197e-02
 h30bf                                  1      0.0000       0.00000       A     1.10366e-01     4.04795e-02
 h31bf                                  1      0.0000       0.00000       A     2.60381e-01     8.53530e-02
 h32bf                                  1      0.0000       0.00000       A     2.60282e-01     8.49715e-02
 h33bf                                  1      0.0000       0.00000       A     2.60282e-01     8.49715e-02
 c34bf                                  6      0.0000       0.00000       A     3.47923e-01     6.61309e-01
 n35bf                                  7      0.0000       0.00000       A     3.27929e-01     4.63642e-01
 h36bf                                  1      0.0000       0.00000       A     2.58709e-01     8.63059e-02

[ moleculetype ]
;name             nrexcl
 jmc_30                3

[ atoms ]
;       nr            type      resi   res      atom      cgnr      charge          mass ; qtot
         1            c0bf         1   UNL        c0         1    -0.13969       12.0110 ; qtot   -0.140
         2            c1bf         1   UNL        c1         2     0.15319       12.0110 ; qtot    0.013
         3            c2bf         1   UNL        c2         3    -0.10353       12.0110 ; qtot   -0.090
         4            c3bf         1   UNL        c3         4     0.03989       12.0110 ; qtot   -0.050
         5            c4bf         1   UNL        c4         5     0.63693       12.0110 ; qtot    0.587
         6            c5bf         1   UNL        c5         6    -0.22521       12.0110 ; qtot    0.362
         7            c6bf         1   UNL        c6         7     0.39007       12.0110 ; qtot    0.752
         8            c7bf         1   UNL        c7         8     0.15319       12.0110 ; qtot    0.905
         9            c8bf         1   UNL        c8         9    -0.08095       12.0110 ; qtot    0.824
        10            c9bf         1   UNL        c9        10    -0.10353       12.0110 ; qtot    0.720
        11          cl10bf         1   UNL      cl10        11    -0.18538       35.4530 ; qtot    0.535
        12           o11bf         1   UNL       o11        12    -0.54820       15.9990 ; qtot   -0.013
        13           n12bf         1   UNL       n12        13    -0.14723       14.0070 ; qtot   -0.160
        14           n13bf         1   UNL       n13        14    -0.71964       14.0070 ; qtot   -0.880
        15           c14bf         1   UNL       c14        15     0.49149       12.0110 ; qtot   -0.389
        16           c15bf         1   UNL       c15        16    -0.22016       12.0110 ; qtot   -0.609
        17           n16bf         1   UNL       n16        17    -0.32018       14.0070 ; qtot   -0.929
        18           c17bf         1   UNL       c17        18     0.64743       12.0110 ; qtot   -0.282
        19           o18bf         1   UNL       o18        19    -0.56125       15.9990 ; qtot   -0.843
        20           c19bf         1   UNL       c19        20    -0.20496       12.0110 ; qtot   -1.048
        21           c20bf         1   UNL       c20        21    -0.06225       12.0110 ; qtot   -1.110
        22           c21bf         1   UNL       c21        22    -0.07904       12.0110 ; qtot   -1.189
        23          cl22bf         1   UNL      cl22        23    -0.18538       35.4530 ; qtot   -1.374
        24           h23bf         1   UNL       h23        24     0.13919        1.0080 ; qtot   -1.235
        25           h24bf         1   UNL       h24        25     0.14093        1.0080 ; qtot   -1.094
        26           h25bf         1   UNL       h25        26     0.02391        1.0080 ; qtot   -1.070
        27           h26bf         1   UNL       h26        27     0.12973        1.0080 ; qtot   -0.941
        28           h27bf         1   UNL       h27        28     0.13919        1.0080 ; qtot   -0.801
        29           h28bf         1   UNL       h28        29     0.17125        1.0080 ; qtot   -0.630
        30           h29bf         1   UNL       h29        30     0.15928        1.0080 ; qtot   -0.471
        31           h30bf         1   UNL       h30        31     0.16769        1.0080 ; qtot   -0.303
        32           h31bf         1   UNL       h31        32     0.11692        1.0080 ; qtot   -0.186
        33           h32bf         1   UNL       h32        33     0.09660        1.0080 ; qtot   -0.090
        34           h33bf         1   UNL       h33        34     0.09660        1.0080 ; qtot    0.007
        35           c34bf         1   UNL       c34        35     0.31595       12.0110 ; qtot    0.323
        36           n35bf         1   UNL       n35        36    -0.44448       14.0070 ; qtot   -0.122
        37           h36bf         1   UNL       h36        37     0.12163        1.0080 ; qtot    0.000

[ bonds ]
;       ai        aj funct               r               k
         1         2     1        0.140153   273317.935791
         1         5     1        0.151711   166028.776025
         1         8     1        0.140153   273317.935791
         2         3     1        0.139601   303384.741016
         2        11     1        0.175680   146917.122583
         3         9     1        0.139552   310746.655518
         3        24     1        0.108433   325893.481201
         4         6     1        0.140513   286751.119287
         4        13     1        0.140524   250238.798730
         4        16     1        0.139963   298006.549170
         5        12     1        0.122463   630902.561133
         5        13     1        0.137080   280552.062598
         6         7     1        0.139256   310098.600293
         6        25     1        0.108288   328862.757520
         7        14     1        0.133863   332565.255322
         7        26     1        0.108846   313284.405762
         8        10     1        0.139601   303384.741016
         8        23     1        0.175680   146917.160889
         9        10     1        0.139552   310746.655518
         9        27     1        0.108532   324260.434131
        10        28     1        0.108433   325893.455664
        13        29     1        0.101272   414819.901562
        14        15     1        0.133887   295542.473486
        15        16     1        0.140358   276609.311670
        15        17     1        0.140534   241622.986621
        16        30     1        0.108098   332566.251270
        17        18     1        0.137962   250064.303662
        17        31     1        0.101282   416427.462598
        18        19     1        0.122712   614652.225879
        18        20     1        0.150451   178530.161475
        20        21     1        0.151042   190759.410718
        20        22     1        0.153877   147500.402930
        20        32     1        0.108505   321949.249121
        21        22     1        0.151548   187214.055518
        21        33     1        0.108453   327013.717578
        21        34     1        0.108453   327013.717578
        22        35     1        0.144179   269725.860449
        22        37     1        0.108414   326426.287451
        35        36     1        0.116492  1111689.821484

[ angles ]
;       ai        aj        ak funct           theta             cth
         1         2         3     1      121.751663      655.182951
         1         2        11     1      119.792053      319.960508
         1         5        12     1      120.784958      604.796191
         1         5        13     1      113.460876      443.006218
         1         8        10     1      121.751663      655.182951
         1         8        23     1      119.792053      319.960508
         2         1         5     1      121.186684      614.373182
         2         1         8     1      117.581833      636.725686
         2         3         9     1      119.116493      651.293458
         2         3        24     1      119.837120      399.290326
         3         2        11     1      118.196632      386.667652
         3         9        10     1      120.469688      692.783152
         3         9        27     1      119.783386      428.127021
         4         6         7     1      117.801376      807.940832
         4         6        25     1      121.420532      455.652322
         4        13         5     1      128.688263      489.007969
         4        13        29     1      115.373009      446.250676
         4        16        15     1      117.972672      854.860929
         4        16        30     1      120.919968      419.833526
         5         1         8     1      121.186684      614.373182
         5        13        29     1      116.072533      474.421268
         6         4        13     1      120.826538      611.104879
         6         4        16     1      118.444016      586.517239
         6         7        14     1      124.745895      697.898427
         6         7        26     1      119.546288      417.474184
         7         6        25     1      120.837181      432.142604
         7        14        15     1      117.139610      789.158735
         8        10         9     1      119.116493      651.293458
         8        10        28     1      119.837120      399.290326
         9         3        24     1      120.963661      425.124974
         9        10        28     1      120.963661      425.124974
        10         8        23     1      118.196632      386.667620
        10         9        27     1      119.783386      428.127021
        12         5        13     1      125.471703      605.741958
        13         4        16     1      120.214561      500.049736
        14         7        26     1      115.655136      405.669655
        14        15        16     1      123.808365      582.962793
        14        15        17     1      113.874512      628.231852
        15        16        30     1      120.172646      446.378393
        15        17        18     1      128.746994      532.884394
        15        17        31     1      113.045815      455.492332
        16        15        17     1      121.247986      484.675758
        17        18        19     1      124.436424      626.837717
        17        18        20     1      114.124657      451.034798
        18        17        31     1      117.572006      428.603927
        18        20        21     1      119.871033      441.285911
        18        20        22     1      117.771378      445.107890
        18        20        32     1      115.261353      430.520742
        19        18        20     1      121.261375      551.304438
        20        21        22     1       61.283886      167.360000
        20        21        33     1      117.040665      356.827444
        20        21        34     1      117.040665      356.827444
        20        22        21     1       59.475403      167.360000
        20        22        35     1      118.800049      414.798661
        20        22        37     1      115.545265      351.632046
        21        20        22     1       59.828735      167.360000
        21        20        32     1      117.176407      367.445806
        21        22        35     1      119.910301      428.176116
        21        22        37     1      117.538208      359.521289
        22        20        32     1      114.689621      362.751766
        22        21        33     1      116.828018      360.593593
        22        21        34     1      116.828018      360.593593
        22        35        36     1      178.591949      167.360000
        33        21        34     1      116.260109      302.249374
        35        22        37     1      115.213211      408.531088

[ dihedrals ] ; propers for gromacs 4.5 or higher, use funct 9
;       ai        aj        ak        al funct           phase               k        pn
         1         2         3         9     9        0.000000       -0.076454         1
         1         2         3         9     9      180.000000       18.378655         2
         1         2         3         9     9        0.000000       -1.485477         3
         1         2         3         9     9      180.000000       -0.443965         4
         1         2         3        24     9        0.000000       -0.051695         1
         1         2         3        24     9      180.000000       13.896893         2
         1         2         3        24     9        0.000000       -0.582597         3
         1         2         3        24     9      180.000000        0.104501         4
         1         5        13         4     9        0.000000        1.943510         1
         1         5        13         4     9      180.000000        8.245869         2
         1         5        13         4     9        0.000000        0.553648         3
         1         5        13         4     9      180.000000       -0.727358         4
         1         5        13        29     9        0.000000        0.256953         1
         1         5        13        29     9      180.000000        8.497288         2
         1         5        13        29     9        0.000000       -0.416932         3
         1         5        13        29     9      180.000000        0.234809         4
         1         8        10         9     9        0.000000       -0.076454         1
         1         8        10         9     9      180.000000       18.378655         2
         1         8        10         9     9        0.000000       -1.485477         3
         1         8        10         9     9      180.000000       -0.443965         4
         1         8        10        28     9        0.000000       -0.051695         1
         1         8        10        28     9      180.000000       13.896893         2
         1         8        10        28     9        0.000000       -0.582597         3
         1         8        10        28     9      180.000000        0.104501         4
         2         1         5        12     9        0.000000       -2.052614         1
         2         1         5        12     9      180.000000        1.139086         2
         2         1         5        12     9        0.000000        0.054306         3
         2         1         5        12     9      180.000000       -0.099915         4
         2         1         5        13     9        0.000000        0.440757         1
         2         1         5        13     9      180.000000       -0.113254         2
         2         1         5        13     9        0.000000        0.438440         3
         2         1         5        13     9      180.000000       -0.175863         4
         2         1         8        10     9        0.000000       -0.232741         1
         2         1         8        10     9      180.000000       16.722108         2
         2         1         8        10     9        0.000000       -1.528985         3
         2         1         8        10     9      180.000000       -0.338205         4
         2         1         8        23     9        0.000000        0.390196         1
         2         1         8        23     9      180.000000       17.596080         2
         2         1         8        23     9        0.000000        0.390762         3
         2         1         8        23     9      180.000000       -0.617838         4
         2         3         9        10     9        0.000000       -0.096937         1
         2         3         9        10     9      180.000000       18.601608         2
         2         3         9        10     9        0.000000       -1.549844         3
         2         3         9        10     9      180.000000       -0.460936         4
         2         3         9        27     9        0.000000        0.064500         1
         2         3         9        27     9      180.000000       14.350299         2
         2         3         9        27     9        0.000000       -0.619285         3
         2         3         9        27     9      180.000000        0.031010         4
         3         2         1         5     9        0.000000        0.221282         1
         3         2         1         5     9      180.000000       13.281605         2
         3         2         1         5     9        0.000000       -0.048385         3
         3         2         1         5     9      180.000000       -0.286210         4
         3         2         1         8     9        0.000000       -0.232741         1
         3         2         1         8     9      180.000000       16.722108         2
         3         2         1         8     9        0.000000       -1.528985         3
         3         2         1         8     9      180.000000       -0.338205         4
         3         9        10         8     9        0.000000       -0.096937         1
         3         9        10         8     9      180.000000       18.601608         2
         3         9        10         8     9        0.000000       -1.549844         3
         3         9        10         8     9      180.000000       -0.460936         4
         3         9        10        28     9        0.000000        0.044045         1
         3         9        10        28     9      180.000000       14.360883         2
         3         9        10        28     9        0.000000       -0.708188         3
         3         9        10        28     9      180.000000        0.127882         4
         4         6         7        14     9        0.000000       -0.101868         1
         4         6         7        14     9      180.000000       18.758846         2
         4         6         7        14     9        0.000000       -1.120673         3
         4         6         7        14     9      180.000000       -0.631980         4
         4         6         7        26     9        0.000000        0.173211         1
         4         6         7        26     9      180.000000       14.523484         2
         4         6         7        26     9        0.000000       -0.533298         3
         4         6         7        26     9      180.000000       -0.020321         4
         4        13         5        12     9        0.000000       -0.902764         1
         4        13         5        12     9      180.000000        9.869690         2
         4        13         5        12     9        0.000000        0.328250         3
         4        13         5        12     9      180.000000       -0.852134         4
         4        16        15        14     9        0.000000        0.125730         1
         4        16        15        14     9      180.000000       13.232139         2
         4        16        15        14     9        0.000000       -0.309258         3
         4        16        15        14     9      180.000000       -0.359168         4
         4        16        15        17     9        0.000000        0.424361         1
         4        16        15        17     9      180.000000       15.667402         2
         4        16        15        17     9        0.000000        0.329886         3
         4        16        15        17     9      180.000000       -0.532878         4
         5         1         2        11     9        0.000000        0.372587         1
         5         1         2        11     9      180.000000       14.761763         2
         5         1         2        11     9        0.000000        0.512397         3
         5         1         2        11     9      180.000000       -0.697437         4
         5         1         8        10     9        0.000000        0.221282         1
         5         1         8        10     9      180.000000       13.281605         2
         5         1         8        10     9        0.000000       -0.048385         3
         5         1         8        10     9      180.000000       -0.286210         4
         5         1         8        23     9        0.000000        0.372588         1
         5         1         8        23     9      180.000000       14.761763         2
         5         1         8        23     9        0.000000        0.512396         3
         5         1         8        23     9      180.000000       -0.697437         4
         5        13         4         6     9        0.000000       -0.079836         1
         5        13         4         6     9      180.000000        2.906425         2
         5        13         4         6     9        0.000000       -0.037766         3
         5        13         4         6     9      180.000000        0.090064         4
         5        13         4        16     9        0.000000        0.010601         1
         5        13         4        16     9      180.000000        2.903844         2
         5        13         4        16     9        0.000000       -0.055962         3
         5        13         4        16     9      180.000000        0.085791         4
         6         4        13        29     9        0.000000        0.349726         1
         6         4        13        29     9      180.000000        3.679211         2
         6         4        13        29     9        0.000000        0.254809         3
         6         4        13        29     9      180.000000        0.088175         4
         6         4        16        15     9        0.000000       -0.027525         1
         6         4        16        15     9      180.000000       15.896549         2
         6         4        16        15     9        0.000000       -1.083663         3
         6         4        16        15     9      180.000000       -0.315858         4
         6         4        16        30     9        0.000000       -0.016236         1
         6         4        16        30     9      180.000000       13.047971         2
         6         4        16        30     9        0.000000       -0.463903         3
         6         4        16        30     9      180.000000        0.183118         4
         6         7        14        15     9        0.000000       -0.011421         1
         6         7        14        15     9      180.000000       21.543880         2
         6         7        14        15     9        0.000000       -0.791685         3
         6         7        14        15     9      180.000000       -0.099507         4
         7         6         4        13     9        0.000000        0.368706         1
         7         6         4        13     9      180.000000       17.250912         2
         7         6         4        13     9        0.000000        0.281694         3
         7         6         4        13     9      180.000000       -0.473227         4
         7         6         4        16     9        0.000000        0.081608         1
         7         6         4        16     9      180.000000       16.590097         2
         7         6         4        16     9        0.000000       -1.243746         3
         7         6         4        16     9      180.000000       -0.358586         4
         7        14        15        16     9        0.000000        0.377507         1
         7        14        15        16     9      180.000000       22.201979         2
         7        14        15        16     9        0.000000       -0.080984         3
         7        14        15        16     9      180.000000       -0.216724         4
         7        14        15        17     9        0.000000        0.498454         1
         7        14        15        17     9      180.000000       29.041381         2
         7        14        15        17     9        0.000000        0.765426         3
         7        14        15        17     9      180.000000       -0.656723         4
         8         1         2        11     9        0.000000        0.390197         1
         8         1         2        11     9      180.000000       17.596084         2
         8         1         2        11     9        0.000000        0.390763         3
         8         1         2        11     9      180.000000       -0.617838         4
         8         1         5        12     9        0.000000       -2.052614         1
         8         1         5        12     9      180.000000        1.139086         2
         8         1         5        12     9        0.000000        0.054306         3
         8         1         5        12     9      180.000000       -0.099915         4
         8         1         5        13     9        0.000000        0.440757         1
         8         1         5        13     9      180.000000       -0.113254         2
         8         1         5        13     9        0.000000        0.438440         3
         8         1         5        13     9      180.000000       -0.175863         4
         8        10         9        27     9        0.000000        0.064500         1
         8        10         9        27     9      180.000000       14.350299         2
         8        10         9        27     9        0.000000       -0.619285         3
         8        10         9        27     9      180.000000        0.031010         4
         9         3         2        11     9        0.000000        0.358058         1
         9         3         2        11     9      180.000000       20.681090         2
         9         3         2        11     9        0.000000        0.483238         3
         9         3         2        11     9      180.000000       -0.652499         4
         9        10         8        23     9        0.000000        0.358057         1
         9        10         8        23     9      180.000000       20.681092         2
         9        10         8        23     9        0.000000        0.483238         3
         9        10         8        23     9      180.000000       -0.652500         4
        10         9         3        24     9        0.000000        0.044045         1
        10         9         3        24     9      180.000000       14.360883         2
        10         9         3        24     9        0.000000       -0.708188         3
        10         9         3        24     9      180.000000        0.127882         4
        11         2         3        24     9        0.000000        0.034849         1
        11         2         3        24     9      180.000000       14.545328         2
        11         2         3        24     9        0.000000        0.037854         3
        11         2         3        24     9      180.000000        0.281396         4
        12         5        13        29     9        0.000000        0.189370         1
        12         5        13        29     9      180.000000       11.938541         2
        12         5        13        29     9        0.000000        0.390839         3
        12         5        13        29     9      180.000000        0.857293         4
        13         4         6        25     9        0.000000       -0.139266         1
        13         4         6        25     9      180.000000       13.649156         2
        13         4         6        25     9        0.000000       -0.068755         3
        13         4         6        25     9      180.000000        0.190415         4
        13         4        16        15     9        0.000000        0.325755         1
        13         4        16        15     9      180.000000       16.821881         2
        13         4        16        15     9        0.000000        0.159002         3
        13         4        16        15     9      180.000000       -0.538251         4
        13         4        16        30     9        0.000000       -0.213758         1
        13         4        16        30     9      180.000000       13.869065         2
        13         4        16        30     9        0.000000       -0.148384         3
        13         4        16        30     9      180.000000        0.225480         4
        14         7         6        25     9        0.000000        0.150135         1
        14         7         6        25     9      180.000000       15.664247         2
        14         7         6        25     9        0.000000       -0.241286         3
        14         7         6        25     9      180.000000       -0.125289         4
        14        15        16        30     9        0.000000       -0.138630         1
        14        15        16        30     9      180.000000       11.616167         2
        14        15        16        30     9        0.000000       -0.160510         3
        14        15        16        30     9      180.000000       -0.178771         4
        14        15        17        18     9        0.000000       -1.957662         1
        14        15        17        18     9      180.000000        4.327160         2
        14        15        17        18     9        0.000000        0.250823         3
        14        15        17        18     9      180.000000       -0.086706         4
        14        15        17        31     9        0.000000        2.382040         1
        14        15        17        31     9      180.000000        3.859646         2
        14        15        17        31     9        0.000000        0.318622         3
        14        15        17        31     9      180.000000       -0.295053         4
        15        14         7        26     9        0.000000        1.553341         1
        15        14         7        26     9      180.000000       20.429011         2
        15        14         7        26     9        0.000000        0.207392         3
        15        14         7        26     9      180.000000       -0.212481         4
        15        17        18        19     9        0.000000       -0.452088         1
        15        17        18        19     9      180.000000        9.106459         2
        15        17        18        19     9        0.000000       -0.352039         3
        15        17        18        19     9      180.000000       -0.269803         4
        15        17        18        20     9        0.000000        1.094759         1
        15        17        18        20     9      180.000000       10.153616         2
        15        17        18        20     9        0.000000        0.379381         3
        15        17        18        20     9      180.000000       -0.335085         4
        16         4         6        25     9        0.000000        0.124440         1
        16         4         6        25     9      180.000000       13.156038         2
        16         4         6        25     9        0.000000       -0.484029         3
        16         4         6        25     9      180.000000        0.120324         4
        16         4        13        29     9        0.000000        0.968575         1
        16         4        13        29     9      180.000000        3.699411         2
        16         4        13        29     9        0.000000        0.257965         3
        16         4        13        29     9      180.000000        0.081633         4
        16        15        17        18     9        0.000000        0.165164         1
        16        15        17        18     9      180.000000        2.946712         2
        16        15        17        18     9        0.000000       -0.136674         3
        16        15        17        18     9      180.000000        0.093240         4
        16        15        17        31     9        0.000000        0.397514         1
        16        15        17        31     9      180.000000        4.799091         2
        16        15        17        31     9        0.000000        0.647075         3
        16        15        17        31     9      180.000000       -0.126202         4
        17        15        16        30     9        0.000000        0.104928         1
        17        15        16        30     9      180.000000       13.132418         2
        17        15        16        30     9        0.000000       -0.171622         3
        17        15        16        30     9      180.000000        0.164435         4
        17        18        20        21     9        0.000000        0.391745         1
        17        18        20        21     9      180.000000        1.646932         2
        17        18        20        21     9        0.000000       -0.037738         3
        17        18        20        21     9      180.000000        0.016899         4
        17        18        20        22     9        0.000000       -0.042301         1
        17        18        20        22     9      180.000000        2.270903         2
        17        18        20        22     9        0.000000        0.020128         3
        17        18        20        22     9      180.000000        0.029199         4
        17        18        20        32     9        0.000000        0.224258         1
        17        18        20        32     9      180.000000        2.520048         2
        17        18        20        32     9        0.000000       -0.122646         3
        17        18        20        32     9      180.000000        0.067529         4
        18        20        21        22     9        0.000000       11.584383         1
        18        20        21        22     9      180.000000        4.927404         2
        18        20        21        22     9        0.000000        2.286037         3
        18        20        21        22     9      180.000000        6.799861         4
        18        20        21        33     9        0.000000        2.889735         1
        18        20        21        33     9      180.000000        0.581073         2
        18        20        21        33     9        0.000000        0.360077         3
        18        20        21        33     9      180.000000        1.713660         4
        18        20        21        34     9        0.000000        2.889735         1
        18        20        21        34     9      180.000000        0.581073         2
        18        20        21        34     9        0.000000        0.360077         3
        18        20        21        34     9      180.000000        1.713660         4
        18        20        22        21     9        0.000000       34.364682         1
        18        20        22        21     9      180.000000        7.502619         2
        18        20        22        21     9        0.000000        2.469093         3
        18        20        22        21     9      180.000000        8.793063         4
        18        20        22        35     9        0.000000       10.039875         1
        18        20        22        35     9      180.000000        4.820222         2
        18        20        22        35     9        0.000000        0.813191         3
        18        20        22        35     9      180.000000        1.721965         4
        18        20        22        37     9        0.000000       10.101782         1
        18        20        22        37     9      180.000000        3.872110         2
        18        20        22        37     9        0.000000        0.702845         3
        18        20        22        37     9      180.000000        2.527763         4
        19        18        17        31     9        0.000000       -0.855510         1
        19        18        17        31     9      180.000000        9.964935         2
        19        18        17        31     9        0.000000        0.020556         3
        19        18        17        31     9      180.000000        0.894668         4
        19        18        20        21     9        0.000000       -0.168928         1
        19        18        20        21     9      180.000000        1.437694         2
        19        18        20        21     9        0.000000        0.000514         3
        19        18        20        21     9      180.000000        0.068058         4
        19        18        20        22     9        0.000000       -1.768210         1
        19        18        20        22     9      180.000000        1.708093         2
        19        18        20        22     9        0.000000        0.254828         3
        19        18        20        22     9      180.000000        0.068734         4
        19        18        20        32     9        0.000000        0.597765         1
        19        18        20        32     9      180.000000        2.307683         2
        19        18        20        32     9        0.000000        0.296462         3
        19        18        20        32     9      180.000000        0.119020         4
        20        18        17        31     9        0.000000        3.692148         1
        20        18        17        31     9      180.000000       10.752464         2
        20        18        17        31     9        0.000000        0.142703         3
        20        18        17        31     9      180.000000        0.485481         4
        20        21        22        35     9        0.000000       28.692337         1
        20        21        22        35     9      180.000000        1.335574         2
        20        21        22        35     9        0.000000        1.419055         3
        20        21        22        35     9      180.000000        7.912597         4
        20        21        22        37     9        0.000000       25.173928         1
        20        21        22        37     9      180.000000        2.143343         2
        20        21        22        37     9        0.000000       -0.111471         3
        20        21        22        37     9      180.000000        5.356150         4
        20        22        21        33     9        0.000000       24.381020         1
        20        22        21        33     9      180.000000        2.463430         2
        20        22        21        33     9        0.000000       -0.013811         3
        20        22        21        33     9      180.000000        4.373476         4
        20        22        21        34     9        0.000000       24.381020         1
        20        22        21        34     9      180.000000        2.463430         2
        20        22        21        34     9        0.000000       -0.013811         3
        20        22        21        34     9      180.000000        4.373476         4
        20        22        35        36     9        0.000000        0.000000         1
        20        22        35        36     9      180.000000        0.000000         2
        20        22        35        36     9        0.000000        0.000000         3
        20        22        35        36     9      180.000000        0.000000         4
        21        20        22        35     9        0.000000       39.958478         1
        21        20        22        35     9      180.000000        5.625116         2
        21        20        22        35     9        0.000000        0.949478         3
        21        20        22        35     9      180.000000        8.014385         4
        21        20        22        37     9        0.000000       32.614580         1
        21        20        22        37     9      180.000000        6.081865         2
        21        20        22        37     9        0.000000       -0.301499         3
        21        20        22        37     9      180.000000        5.489896         4
        21        22        20        32     9        0.000000       32.537380         1
        21        22        20        32     9      180.000000        6.760446         2
        21        22        20        32     9        0.000000       -0.257644         3
        21        22        20        32     9      180.000000        5.423905         4
        21        22        35        36     9        0.000000        0.000000         1
        21        22        35        36     9      180.000000        0.000000         2
        21        22        35        36     9        0.000000        0.000000         3
        21        22        35        36     9      180.000000        0.000000         4
        22        20        21        33     9        0.000000       21.586177         1
        22        20        21        33     9      180.000000        2.307999         2
        22        20        21        33     9        0.000000       -0.155720         3
        22        20        21        33     9      180.000000        4.437214         4
        22        20        21        34     9        0.000000       21.586177         1
        22        20        21        34     9      180.000000        2.307999         2
        22        20        21        34     9        0.000000       -0.155720         3
        22        20        21        34     9      180.000000        4.437214         4
        22        21        20        32     9        0.000000       20.279950         1
        22        21        20        32     9      180.000000        3.644267         2
        22        21        20        32     9        0.000000       -0.111000         3
        22        21        20        32     9      180.000000        4.430716         4
        23         8        10        28     9        0.000000        0.034848         1
        23         8        10        28     9      180.000000       14.545326         2
        23         8        10        28     9        0.000000        0.037854         3
        23         8        10        28     9      180.000000        0.281396         4
        24         3         9        27     9        0.000000       -0.249552         1
        24         3         9        27     9      180.000000       11.261506         2
        24         3         9        27     9        0.000000       -0.621949         3
        24         3         9        27     9      180.000000        0.273003         4
        25         6         7        26     9        0.000000        0.015584         1
        25         6         7        26     9      180.000000       11.951684         2
        25         6         7        26     9        0.000000       -0.725462         3
        25         6         7        26     9      180.000000        0.280129         4
        27         9        10        28     9        0.000000       -0.249552         1
        27         9        10        28     9      180.000000       11.261506         2
        27         9        10        28     9        0.000000       -0.621949         3
        27         9        10        28     9      180.000000        0.273003         4
        32        20        21        33     9        0.000000        2.194301         1
        32        20        21        33     9      180.000000        0.383697         2
        32        20        21        33     9        0.000000       -0.113545         3
        32        20        21        33     9      180.000000        1.282025         4
        32        20        21        34     9        0.000000        2.194301         1
        32        20        21        34     9      180.000000        0.383697         2
        32        20        21        34     9        0.000000       -0.113545         3
        32        20        21        34     9      180.000000        1.282025         4
        32        20        22        35     9        0.000000        8.792183         1
        32        20        22        35     9      180.000000        3.260863         2
        32        20        22        35     9        0.000000        0.366882         3
        32        20        22        35     9      180.000000        1.810488         4
        32        20        22        37     9        0.000000        7.795195         1
        32        20        22        37     9      180.000000        2.423579         2
        32        20        22        37     9        0.000000        0.069452         3
        32        20        22        37     9      180.000000        2.293452         4
        33        21        22        35     9        0.000000        1.582287         1
        33        21        22        35     9      180.000000        1.033192         2
        33        21        22        35     9        0.000000        0.239704         3
        33        21        22        35     9      180.000000        1.297008         4
        33        21        22        37     9        0.000000        2.164173         1
        33        21        22        37     9      180.000000        0.724673         2
        33        21        22        37     9        0.000000       -0.085650         3
        33        21        22        37     9      180.000000        1.352183         4
        34        21        22        35     9        0.000000        1.582287         1
        34        21        22        35     9      180.000000        1.033192         2
        34        21        22        35     9        0.000000        0.239704         3
        34        21        22        35     9      180.000000        1.297008         4
        34        21        22        37     9        0.000000        2.164173         1
        34        21        22        37     9      180.000000        0.724673         2
        34        21        22        37     9        0.000000       -0.085650         3
        34        21        22        37     9      180.000000        1.352183         4
        36        35        22        37     9        0.000000        0.000000         1
        36        35        22        37     9      180.000000        0.000000         2
        36        35        22        37     9        0.000000        0.000000         3
        36        35        22        37     9      180.000000        0.000000         4

[ dihedrals ] ; impropers
;       ai        aj        ak        al funct           phase               k        pn
         5         1        12        13     4      180.000000       27.893333         2
         5        12        13         1     4      180.000000       27.893333         2
         5        13         1        12     4      180.000000       27.893333         2
         7         6        14        26     4      180.000000        1.510313         2
         7        14        26         6     4      180.000000        1.510313         2
         7        26         6        14     4      180.000000        1.510313         2
         9         3        10        27     4      180.000000        0.827180         2
         9        10        27         3     4      180.000000        0.827180         2
         9        27         3        10     4      180.000000        0.827180         2
        15        14        16        17     4      180.000000        1.830276         2
        15        16        17        14     4      180.000000        1.830276         2
        15        17        14        16     4      180.000000        1.830276         2
        18        17        19        20     4      180.000000       12.288832         2
        18        19        20        17     4      180.000000       12.288832         2
        18        20        17        19     4      180.000000       12.288832         2

[ pairs ]
;       ai        aj funct
         1         4     1
         1         9     1
         1        24     1
         1        28     1
         1        29     1
         2        10     1
         2        12     1
         2        13     1
         2        23     1
         2        27     1
         3         5     1
         3         8     1
         3        28     1
         4        12     1
         4        14     1
         4        17     1
         4        26     1
         5         6     1
         5        10     1
         5        11     1
         5        16     1
         5        23     1
         6        15     1
         6        29     1
         6        30     1
         7        13     1
         7        16     1
         7        17     1
         8        11     1
         8        12     1
         8        13     1
         8        27     1
         9        11     1
         9        23     1
        10        24     1
        11        24     1
        12        29     1
        13        15     1
        13        25     1
        13        30     1
        14        18     1
        14        25     1
        14        30     1
        14        31     1
        15        19     1
        15        20     1
        15        26     1
        16        18     1
        16        25     1
        16        29     1
        16        31     1
        17        21     1
        17        22     1
        17        30     1
        17        32     1
        18        33     1
        18        34     1
        18        35     1
        18        37     1
        19        21     1
        19        22     1
        19        31     1
        19        32     1
        20        31     1
        20        36     1
        21        36     1
        23        28     1
        24        27     1
        25        26     1
        27        28     1
        32        33     1
        32        34     1
        32        35     1
        32        37     1
        33        35     1
        33        37     1
        34        35     1
        34        37     1
        36        37     1
