; ITP file created by ByteFF-ML, 2026-02-21 07:38:48.841643

[ atomtypes ]
;name           bonded.type        at.num        mass        charge   ptype           sigma         epsilon
 c0bf                                   6      0.0000       0.00000       A     3.39772e-01     4.50374e-01
 c1bf                                   6      0.0000       0.00000       A     3.39867e-01     4.54082e-01
 c2bf                                   6      0.0000       0.00000       A     3.39772e-01     4.50374e-01
 c3bf                                   6      0.0000       0.00000       A     3.39772e-01     4.50374e-01
 c4bf                                   6      0.0000       0.00000       A     3.31513e-01     4.12293e-01
 c5bf                                   6      0.0000       0.00000       A     3.31494e-01     4.12775e-01
 c6bf                                   6      0.0000       0.00000       A     3.31496e-01     4.14206e-01
 c7bf                                   6      0.0000       0.00000       A     3.31453e-01     4.11728e-01
 c8bf                                   6      0.0000       0.00000       A     3.31300e-01     4.09756e-01
 c9bf                                   6      0.0000       0.00000       A     3.31271e-01     4.12345e-01
 c10bf                                  6      0.0000       0.00000       A     3.39707e-01     4.52289e-01
 o11bf                                  8      0.0000       0.00000       A     3.15786e-01     3.01983e-01
 c12bf                                  6      0.0000       0.00000       A     3.39725e-01     4.51957e-01
 c13bf                                  6      0.0000       0.00000       A     3.39741e-01     4.51469e-01
 c14bf                                  6      0.0000       0.00000       A     3.39872e-01     4.51579e-01
 c15bf                                  6      0.0000       0.00000       A     3.40260e-01     4.50626e-01
 c16bf                                  6      0.0000       0.00000       A     3.39196e-01     4.49764e-01
 c17bf                                  6      0.0000       0.00000       A     3.31304e-01     4.11420e-01
 c18bf                                  6      0.0000       0.00000       A     3.31484e-01     4.13677e-01
 c19bf                                  6      0.0000       0.00000       A     3.31542e-01     4.13031e-01
 s20bf                                 16      0.0000       0.00000       A     3.53141e-01     1.17932e+00
 c21bf                                  6      0.0000       0.00000       A     3.31553e-01     4.11323e-01
 n22bf                                  7      0.0000       0.00000       A     3.28234e-01     6.44049e-01
 h23bf                                  1      0.0000       0.00000       A     2.59968e-01     8.75795e-02
 h24bf                                  1      0.0000       0.00000       A     2.59968e-01     8.75795e-02
 h25bf                                  1      0.0000       0.00000       A     2.59968e-01     8.75795e-02
 h26bf                                  1      0.0000       0.00000       A     2.59968e-01     8.75795e-02
 h27bf                                  1      0.0000       0.00000       A     2.59968e-01     8.75795e-02
 h28bf                                  1      0.0000       0.00000       A     2.59968e-01     8.75795e-02
 h29bf                                  1      0.0000       0.00000       A     2.59968e-01     8.75795e-02
 h30bf                                  1      0.0000       0.00000       A     2.59968e-01     8.75795e-02
 h31bf                                  1      0.0000       0.00000       A     2.59968e-01     8.75795e-02
 h32bf                                  1      0.0000       0.00000       A     2.62486e-01     6.76526e-02
 h33bf                                  1      0.0000       0.00000       A     2.62406e-01     6.70142e-02
 h34bf                                  1      0.0000       0.00000       A     2.62333e-01     6.71626e-02
 h35bf                                  1      0.0000       0.00000       A     2.42769e-01     8.90256e-02
 h36bf                                  1      0.0000       0.00000       A     2.42137e-01     8.75316e-02
 h37bf                                  1      0.0000       0.00000       A     2.42137e-01     8.75316e-02
 h38bf                                  1      0.0000       0.00000       A     2.60214e-01     8.73226e-02
 h39bf                                  1      0.0000       0.00000       A     2.60214e-01     8.73226e-02
 h40bf                                  1      0.0000       0.00000       A     2.60008e-01     8.66235e-02
 h41bf                                  1      0.0000       0.00000       A     2.60008e-01     8.66235e-02
 h42bf                                  1      0.0000       0.00000       A     2.59626e-01     8.67974e-02
 h43bf                                  1      0.0000       0.00000       A     2.42572e-01     8.89777e-02
 h44bf                                  1      0.0000       0.00000       A     2.62758e-01     6.75153e-02
 h45bf                                  1      0.0000       0.00000       A     2.53894e-01     6.63310e-02
 h46bf                                  1      0.0000       0.00000       A     2.54053e-01     6.61890e-02
 h47bf                                  1      0.0000       0.00000       A     1.11042e-01     4.12999e-02

[ moleculetype ]
;name             nrexcl
 CHEMBL1084115         3

[ atoms ]
;       nr            type      resi   res      atom      cgnr      charge          mass ; qtot
         1            c0bf         1   UNL        c0         1    -0.08750       12.0110 ; qtot   -0.087
         2            c1bf         1   UNL        c1         2     0.00063       12.0110 ; qtot   -0.087
         3            c2bf         1   UNL        c2         3    -0.08750       12.0110 ; qtot   -0.174
         4            c3bf         1   UNL        c3         4    -0.08750       12.0110 ; qtot   -0.262
         5            c4bf         1   UNL        c4         5    -0.10900       12.0110 ; qtot   -0.371
         6            c5bf         1   UNL        c5         6    -0.07276       12.0110 ; qtot   -0.444
         7            c6bf         1   UNL        c6         7    -0.17222       12.0110 ; qtot   -0.616
         8            c7bf         1   UNL        c7         8     0.29358       12.0110 ; qtot   -0.322
         9            c8bf         1   UNL        c8         9    -0.15526       12.0110 ; qtot   -0.478
        10            c9bf         1   UNL        c9        10    -0.05266       12.0110 ; qtot   -0.530
        11           c10bf         1   UNL       c10        11     0.22492       12.0110 ; qtot   -0.305
        12           o11bf         1   UNL       o11        12    -0.45654       15.9990 ; qtot   -0.762
        13           c12bf         1   UNL       c12        13     0.15356       12.0110 ; qtot   -0.608
        14           c13bf         1   UNL       c13        14    -0.11013       12.0110 ; qtot   -0.718
        15           c14bf         1   UNL       c14        15    -0.06853       12.0110 ; qtot   -0.787
        16           c15bf         1   UNL       c15        16    -0.09566       12.0110 ; qtot   -0.883
        17           c16bf         1   UNL       c16        17     0.27743       12.0110 ; qtot   -0.605
        18           c17bf         1   UNL       c17        18    -0.12973       12.0110 ; qtot   -0.735
        19           c18bf         1   UNL       c18        19    -0.11659       12.0110 ; qtot   -0.851
        20           c19bf         1   UNL       c19        20    -0.22742       12.0110 ; qtot   -1.079
        21           s20bf         1   UNL       s20        21     0.17068       32.0670 ; qtot   -0.908
        22           c21bf         1   UNL       c21        22    -0.21272       12.0110 ; qtot   -1.121
        23           n22bf         1   UNL       n22        23    -0.92476       14.0070 ; qtot   -2.046
        24           h23bf         1   UNL       h23        24     0.03657        1.0080 ; qtot   -2.009
        25           h24bf         1   UNL       h24        25     0.03657        1.0080 ; qtot   -1.973
        26           h25bf         1   UNL       h25        26     0.03657        1.0080 ; qtot   -1.936
        27           h26bf         1   UNL       h26        27     0.03657        1.0080 ; qtot   -1.899
        28           h27bf         1   UNL       h27        28     0.03657        1.0080 ; qtot   -1.863
        29           h28bf         1   UNL       h28        29     0.03657        1.0080 ; qtot   -1.826
        30           h29bf         1   UNL       h29        30     0.03657        1.0080 ; qtot   -1.790
        31           h30bf         1   UNL       h30        31     0.03657        1.0080 ; qtot   -1.753
        32           h31bf         1   UNL       h31        32     0.03657        1.0080 ; qtot   -1.717
        33           h32bf         1   UNL       h32        33     0.11563        1.0080 ; qtot   -1.601
        34           h33bf         1   UNL       h33        34     0.11606        1.0080 ; qtot   -1.485
        35           h34bf         1   UNL       h34        35     0.11995        1.0080 ; qtot   -1.365
        36           h35bf         1   UNL       h35        36     0.05485        1.0080 ; qtot   -1.310
        37           h36bf         1   UNL       h36        37     0.04701        1.0080 ; qtot   -1.263
        38           h37bf         1   UNL       h37        38     0.04701        1.0080 ; qtot   -1.216
        39           h38bf         1   UNL       h38        39     0.04954        1.0080 ; qtot   -1.166
        40           h39bf         1   UNL       h39        40     0.04954        1.0080 ; qtot   -1.117
        41           h40bf         1   UNL       h40        41     0.04791        1.0080 ; qtot   -1.069
        42           h41bf         1   UNL       h41        42     0.04791        1.0080 ; qtot   -1.021
        43           h42bf         1   UNL       h42        43     0.06797        1.0080 ; qtot   -0.953
        44           h43bf         1   UNL       h43        44     0.05628        1.0080 ; qtot   -0.897
        45           h44bf         1   UNL       h44        45     0.13942        1.0080 ; qtot   -0.757
        46           h45bf         1   UNL       h45        46     0.14855        1.0080 ; qtot   -0.609
        47           h46bf         1   UNL       h46        47     0.15228        1.0080 ; qtot   -0.457
        48           h47bf         1   UNL       h47        48     0.45664        1.0080 ; qtot   -0.000

[ bonds ]
;       ai        aj funct               r               k
         1         2     1        0.154414   170954.552441
         1        24     1        0.109415   298687.904785
         1        25     1        0.109415   298687.904785
         1        26     1        0.109415   298687.904785
         2         3     1        0.154414   170954.552441
         2         4     1        0.154414   170954.552441
         2         5     1        0.153459   164414.179517
         3        27     1        0.109415   298687.904785
         3        28     1        0.109415   298687.904785
         3        29     1        0.109415   298687.904785
         4        30     1        0.109415   298687.904785
         4        31     1        0.109415   298687.904785
         4        32     1        0.109415   298687.904785
         5         6     1        0.140490   282236.796777
         5        10     1        0.140242   281430.079492
         6         7     1        0.139229   329370.205420
         6        33     1        0.108572   318246.879004
         7         8     1        0.140527   280356.192969
         7        34     1        0.108690   314873.682227
         8         9     1        0.140981   267776.153223
         8        23     1        0.140071   268218.660254
         9        10     1        0.139688   302485.119727
         9        11     1        0.151190   191058.399194
        10        35     1        0.108557   317207.952783
        11        12     1        0.143557   180828.680078
        11        16     1        0.153898   165918.826001
        11        36     1        0.110063   278300.225830
        12        13     1        0.143232   193007.799976
        13        14     1        0.153236   183757.071484
        13        37     1        0.109612   292242.721436
        13        38     1        0.109612   292242.721436
        14        15     1        0.153734   183831.231250
        14        39     1        0.109516   296517.786768
        14        40     1        0.109516   296517.786768
        15        16     1        0.153790   175848.458545
        15        41     1        0.109483   296349.420605
        15        42     1        0.109483   296349.420605
        16        17     1        0.154515   158769.137646
        16        43     1        0.109653   296652.290723
        17        18     1        0.151277   193779.288818
        17        23     1        0.146782   190999.983057
        17        44     1        0.109881   283337.292969
        18        19     1        0.143664   239549.041357
        18        22     1        0.137338   369969.536035
        19        20     1        0.137088   386680.535205
        19        45     1        0.108437   325587.240186
        20        21     1        0.173395   167625.611475
        20        46     1        0.108212   338693.548682
        21        22     1        0.173374   168026.046118
        22        47     1        0.108194   337742.214746
        23        48     1        0.101379   409867.668701

[ angles ]
;       ai        aj        ak funct           theta             cth
         1         2         3     1      108.597389      558.465108
         1         2         4     1      108.597389      558.465108
         1         2         5     1      110.375267      651.238681
         2         1        24     1      111.037216      474.616371
         2         1        25     1      111.037216      474.616435
         2         1        26     1      111.037216      474.616435
         2         3        27     1      111.037216      474.616435
         2         3        28     1      111.037216      474.616435
         2         3        29     1      111.037216      474.616435
         2         4        30     1      111.037216      474.616435
         2         4        31     1      111.037216      474.616435
         2         4        32     1      111.037216      474.616435
         2         5         6     1      121.634232      520.072937
         2         5        10     1      121.651917      457.842736
         3         2         4     1      108.597389      558.465108
         3         2         5     1      110.375267      651.238681
         4         2         5     1      110.375267      651.238681
         5         6         7     1      121.563881      682.117004
         5         6        33     1      119.969864      408.296530
         5        10         9     1      122.774094      676.926459
         5        10        35     1      119.777512      396.482106
         6         5        10     1      116.841629      645.210391
         6         7         8     1      120.858109      766.384996
         6         7        34     1      119.754227      440.477853
         7         6        33     1      118.572372      426.345201
         7         8         9     1      118.728661      650.539347
         7         8        23     1      120.177368      539.549643
         8         7        34     1      119.247475      422.538672
         8         9        10     1      119.160583      766.746346
         8         9        11     1      120.111572      555.127854
         8        23        17     1      118.514603      534.506607
         8        23        48     1      113.597374      490.027506
         9         8        23     1      120.528770      578.856106
         9        10        35     1      117.883316      404.530604
         9        11        12     1      109.762535      644.045068
         9        11        16     1      112.072342      574.974530
         9        11        36     1      108.657860      462.552641
        10         9        11     1      120.629929      471.966130
        11        12        13     1      112.667191      607.408829
        11        16        15     1      110.059044      605.531852
        11        16        17     1      109.658241      677.579060
        11        16        43     1      107.158180      503.340416
        12        11        16     1      111.161575      584.634197
        12        11        36     1      107.112816      472.697577
        12        13        14     1      111.768433      604.901149
        12        13        37     1      107.410179      487.286289
        12        13        38     1      107.410179      487.286289
        13        14        15     1      110.180275      650.042650
        13        14        39     1      109.427063      501.275006
        13        14        40     1      109.427063      501.275006
        14        13        37     1      110.941002      481.507752
        14        13        38     1      110.941002      481.507752
        14        15        16     1      110.537254      629.867823
        14        15        41     1      109.996231      498.578160
        14        15        42     1      109.996231      498.578160
        15        14        39     1      110.392967      506.910791
        15        14        40     1      110.392967      506.910791
        15        16        17     1      113.350868      591.329324
        15        16        43     1      108.689835      484.125944
        16        11        36     1      108.317238      469.297949
        16        15        41     1      109.570480      497.850352
        16        15        42     1      109.570480      497.850352
        16        17        18     1      113.081497      531.571531
        16        17        23     1      108.639206      595.428222
        16        17        44     1      107.207397      480.036463
        17        16        43     1      106.948349      494.718992
        17        18        19     1      123.810349      482.938213
        17        18        22     1      124.459656      442.913071
        17        23        48     1      112.917603      473.009161
        18        17        23     1      111.056725      576.893707
        18        17        44     1      107.747192      490.579969
        18        19        20     1      113.082153      378.694200
        18        19        45     1      123.724106      398.828806
        18        22        21     1      112.296364      167.360000
        18        22        47     1      127.782898      371.415549
        19        18        22     1      111.866409      354.729666
        19        20        21     1      111.685448      167.360000
        19        20        46     1      128.237885      387.663886
        20        19        45     1      123.205566      394.944835
        20        21        22     1       91.372910      298.289366
        21        20        46     1      120.206589      370.841539
        21        22        47     1      119.917191      361.412472
        23        17        44     1      109.176498      444.194460
        24         1        25     1      107.883377      362.487840
        24         1        26     1      107.883377      362.487840
        25         1        26     1      107.883377      362.487840
        27         3        28     1      107.883377      362.487840
        27         3        29     1      107.883377      362.487840
        28         3        29     1      107.883377      362.487840
        30         4        31     1      107.883377      362.487840
        30         4        32     1      107.883377      362.487840
        31         4        32     1      107.883377      362.487840
        37        13        38     1      107.938248      342.346339
        39        14        40     1      107.040260      361.085182
        41        15        42     1      106.547340      361.933046

[ dihedrals ] ; propers for gromacs 4.5 or higher, use funct 9
;       ai        aj        ak        al funct           phase               k        pn
         1         2         3        27     9        0.000000       -0.087544         1
         1         2         3        27     9      180.000000        0.034291         2
         1         2         3        27     9        0.000000        0.537560         3
         1         2         3        27     9      180.000000        0.036946         4
         1         2         3        28     9        0.000000       -0.087544         1
         1         2         3        28     9      180.000000        0.034291         2
         1         2         3        28     9        0.000000        0.537560         3
         1         2         3        28     9      180.000000        0.036946         4
         1         2         3        29     9        0.000000       -0.087544         1
         1         2         3        29     9      180.000000        0.034291         2
         1         2         3        29     9        0.000000        0.537560         3
         1         2         3        29     9      180.000000        0.036946         4
         1         2         4        30     9        0.000000       -0.087544         1
         1         2         4        30     9      180.000000        0.034291         2
         1         2         4        30     9        0.000000        0.537560         3
         1         2         4        30     9      180.000000        0.036946         4
         1         2         4        31     9        0.000000       -0.087544         1
         1         2         4        31     9      180.000000        0.034291         2
         1         2         4        31     9        0.000000        0.537560         3
         1         2         4        31     9      180.000000        0.036946         4
         1         2         4        32     9        0.000000       -0.087544         1
         1         2         4        32     9      180.000000        0.034291         2
         1         2         4        32     9        0.000000        0.537560         3
         1         2         4        32     9      180.000000        0.036946         4
         1         2         5         6     9        0.000000        0.066118         1
         1         2         5         6     9      180.000000        0.256919         2
         1         2         5         6     9        0.000000        0.081785         3
         1         2         5         6     9      180.000000        0.232755         4
         1         2         5        10     9        0.000000       -0.084442         1
         1         2         5        10     9      180.000000        0.316333         2
         1         2         5        10     9        0.000000       -0.069832         3
         1         2         5        10     9      180.000000        0.262308         4
         2         5         6         7     9        0.000000       -0.012280         1
         2         5         6         7     9      180.000000       14.438512         2
         2         5         6         7     9        0.000000       -0.038221         3
         2         5         6         7     9      180.000000       -0.169980         4
         2         5         6        33     9        0.000000       -0.003084         1
         2         5         6        33     9      180.000000       12.620195         2
         2         5         6        33     9        0.000000       -0.269328         3
         2         5         6        33     9      180.000000        0.172534         4
         2         5        10         9     9        0.000000        0.002953         1
         2         5        10         9     9      180.000000       14.248478         2
         2         5        10         9     9        0.000000       -0.042672         3
         2         5        10         9     9      180.000000       -0.260300         4
         2         5        10        35     9        0.000000       -0.016810         1
         2         5        10        35     9      180.000000       12.814783         2
         2         5        10        35     9        0.000000       -0.264071         3
         2         5        10        35     9      180.000000        0.141286         4
         3         2         1        24     9        0.000000       -0.087543         1
         3         2         1        24     9      180.000000        0.034291         2
         3         2         1        24     9        0.000000        0.537560         3
         3         2         1        24     9      180.000000        0.036946         4
         3         2         1        25     9        0.000000       -0.087544         1
         3         2         1        25     9      180.000000        0.034291         2
         3         2         1        25     9        0.000000        0.537560         3
         3         2         1        25     9      180.000000        0.036946         4
         3         2         1        26     9        0.000000       -0.087544         1
         3         2         1        26     9      180.000000        0.034291         2
         3         2         1        26     9        0.000000        0.537560         3
         3         2         1        26     9      180.000000        0.036946         4
         3         2         4        30     9        0.000000       -0.087544         1
         3         2         4        30     9      180.000000        0.034291         2
         3         2         4        30     9        0.000000        0.537560         3
         3         2         4        30     9      180.000000        0.036946         4
         3         2         4        31     9        0.000000       -0.087544         1
         3         2         4        31     9      180.000000        0.034291         2
         3         2         4        31     9        0.000000        0.537560         3
         3         2         4        31     9      180.000000        0.036946         4
         3         2         4        32     9        0.000000       -0.087544         1
         3         2         4        32     9      180.000000        0.034291         2
         3         2         4        32     9        0.000000        0.537560         3
         3         2         4        32     9      180.000000        0.036946         4
         3         2         5         6     9        0.000000        0.066118         1
         3         2         5         6     9      180.000000        0.256919         2
         3         2         5         6     9        0.000000        0.081785         3
         3         2         5         6     9      180.000000        0.232755         4
         3         2         5        10     9        0.000000       -0.084442         1
         3         2         5        10     9      180.000000        0.316333         2
         3         2         5        10     9        0.000000       -0.069832         3
         3         2         5        10     9      180.000000        0.262308         4
         4         2         1        24     9        0.000000       -0.087543         1
         4         2         1        24     9      180.000000        0.034291         2
         4         2         1        24     9        0.000000        0.537560         3
         4         2         1        24     9      180.000000        0.036946         4
         4         2         1        25     9        0.000000       -0.087544         1
         4         2         1        25     9      180.000000        0.034291         2
         4         2         1        25     9        0.000000        0.537560         3
         4         2         1        25     9      180.000000        0.036946         4
         4         2         1        26     9        0.000000       -0.087544         1
         4         2         1        26     9      180.000000        0.034291         2
         4         2         1        26     9        0.000000        0.537560         3
         4         2         1        26     9      180.000000        0.036946         4
         4         2         3        27     9        0.000000       -0.087544         1
         4         2         3        27     9      180.000000        0.034291         2
         4         2         3        27     9        0.000000        0.537560         3
         4         2         3        27     9      180.000000        0.036946         4
         4         2         3        28     9        0.000000       -0.087544         1
         4         2         3        28     9      180.000000        0.034291         2
         4         2         3        28     9        0.000000        0.537560         3
         4         2         3        28     9      180.000000        0.036946         4
         4         2         3        29     9        0.000000       -0.087544         1
         4         2         3        29     9      180.000000        0.034291         2
         4         2         3        29     9        0.000000        0.537560         3
         4         2         3        29     9      180.000000        0.036946         4
         4         2         5         6     9        0.000000        0.066118         1
         4         2         5         6     9      180.000000        0.256919         2
         4         2         5         6     9        0.000000        0.081785         3
         4         2         5         6     9      180.000000        0.232755         4
         4         2         5        10     9        0.000000       -0.084442         1
         4         2         5        10     9      180.000000        0.316333         2
         4         2         5        10     9        0.000000       -0.069832         3
         4         2         5        10     9      180.000000        0.262308         4
         5         2         1        24     9        0.000000       -0.010428         1
         5         2         1        24     9      180.000000        0.022822         2
         5         2         1        24     9        0.000000        0.616609         3
         5         2         1        24     9      180.000000       -0.012817         4
         5         2         1        25     9        0.000000       -0.010429         1
         5         2         1        25     9      180.000000        0.022823         2
         5         2         1        25     9        0.000000        0.616609         3
         5         2         1        25     9      180.000000       -0.012818         4
         5         2         1        26     9        0.000000       -0.010429         1
         5         2         1        26     9      180.000000        0.022823         2
         5         2         1        26     9        0.000000        0.616609         3
         5         2         1        26     9      180.000000       -0.012818         4
         5         2         3        27     9        0.000000       -0.010429         1
         5         2         3        27     9      180.000000        0.022823         2
         5         2         3        27     9        0.000000        0.616609         3
         5         2         3        27     9      180.000000       -0.012818         4
         5         2         3        28     9        0.000000       -0.010429         1
         5         2         3        28     9      180.000000        0.022823         2
         5         2         3        28     9        0.000000        0.616609         3
         5         2         3        28     9      180.000000       -0.012818         4
         5         2         3        29     9        0.000000       -0.010429         1
         5         2         3        29     9      180.000000        0.022823         2
         5         2         3        29     9        0.000000        0.616609         3
         5         2         3        29     9      180.000000       -0.012818         4
         5         2         4        30     9        0.000000       -0.010429         1
         5         2         4        30     9      180.000000        0.022823         2
         5         2         4        30     9        0.000000        0.616609         3
         5         2         4        30     9      180.000000       -0.012818         4
         5         2         4        31     9        0.000000       -0.010429         1
         5         2         4        31     9      180.000000        0.022823         2
         5         2         4        31     9        0.000000        0.616609         3
         5         2         4        31     9      180.000000       -0.012818         4
         5         2         4        32     9        0.000000       -0.010429         1
         5         2         4        32     9      180.000000        0.022823         2
         5         2         4        32     9        0.000000        0.616609         3
         5         2         4        32     9      180.000000       -0.012818         4
         5         6         7         8     9        0.000000        0.055050         1
         5         6         7         8     9      180.000000       17.851535         2
         5         6         7         8     9        0.000000       -1.817078         3
         5         6         7         8     9      180.000000       -0.374805         4
         5         6         7        34     9        0.000000        0.015357         1
         5         6         7        34     9      180.000000       14.700802         2
         5         6         7        34     9        0.000000       -0.663279         3
         5         6         7        34     9      180.000000        0.171044         4
         5        10         9         8     9        0.000000        0.090098         1
         5        10         9         8     9      180.000000       18.706288         2
         5        10         9         8     9        0.000000       -1.664677         3
         5        10         9         8     9      180.000000       -0.420220         4
         5        10         9        11     9        0.000000        0.013653         1
         5        10         9        11     9      180.000000       16.614665         2
         5        10         9        11     9        0.000000       -0.191835         3
         5        10         9        11     9      180.000000       -0.312089         4
         6         5        10         9     9        0.000000       -0.062674         1
         6         5        10         9     9      180.000000       18.749336         2
         6         5        10         9     9        0.000000       -1.614980         3
         6         5        10         9     9      180.000000       -0.480792         4
         6         5        10        35     9        0.000000       -0.055040         1
         6         5        10        35     9      180.000000       14.417531         2
         6         5        10        35     9        0.000000       -0.625288         3
         6         5        10        35     9      180.000000        0.064387         4
         6         7         8         9     9        0.000000        0.012605         1
         6         7         8         9     9      180.000000       17.260710         2
         6         7         8         9     9        0.000000       -0.810749         3
         6         7         8         9     9      180.000000       -0.340453         4
         6         7         8        23     9        0.000000        0.311464         1
         6         7         8        23     9      180.000000       19.070986         2
         6         7         8        23     9        0.000000        0.283356         3
         6         7         8        23     9      180.000000       -0.308884         4
         7         6         5        10     9        0.000000       -0.092843         1
         7         6         5        10     9      180.000000       18.822934         2
         7         6         5        10     9        0.000000       -1.481357         3
         7         6         5        10     9      180.000000       -0.421607         4
         7         8         9        10     9        0.000000       -0.006283         1
         7         8         9        10     9      180.000000       14.872257         2
         7         8         9        10     9        0.000000       -0.776521         3
         7         8         9        10     9      180.000000       -0.252866         4
         7         8         9        11     9        0.000000        0.086219         1
         7         8         9        11     9      180.000000       12.183811         2
         7         8         9        11     9        0.000000       -0.196623         3
         7         8         9        11     9      180.000000       -0.091676         4
         7         8        23        17     9        0.000000       -0.572950         1
         7         8        23        17     9      180.000000        2.686804         2
         7         8        23        17     9        0.000000        0.004839         3
         7         8        23        17     9      180.000000        0.440961         4
         7         8        23        48     9        0.000000       -0.628138         1
         7         8        23        48     9      180.000000        4.139290         2
         7         8        23        48     9        0.000000       -0.070262         3
         7         8        23        48     9      180.000000        0.281534         4
         8         7         6        33     9        0.000000        0.126040         1
         8         7         6        33     9      180.000000       13.868523         2
         8         7         6        33     9        0.000000       -0.667227         3
         8         7         6        33     9      180.000000        0.180687         4
         8         9        10        35     9        0.000000        0.177588         1
         8         9        10        35     9      180.000000       13.965811         2
         8         9        10        35     9        0.000000       -0.249025         3
         8         9        10        35     9      180.000000        0.185513         4
         8         9        11        12     9        0.000000       -3.438545         1
         8         9        11        12     9      180.000000       -1.521884         2
         8         9        11        12     9        0.000000        0.667213         3
         8         9        11        12     9      180.000000       -0.105214         4
         8         9        11        16     9        0.000000        4.205839         1
         8         9        11        16     9      180.000000       -4.107201         2
         8         9        11        16     9        0.000000       -0.184804         3
         8         9        11        16     9      180.000000        0.840879         4
         8         9        11        36     9        0.000000        0.103822         1
         8         9        11        36     9      180.000000        0.322924         2
         8         9        11        36     9        0.000000        0.172820         3
         8         9        11        36     9      180.000000        0.004546         4
         8        23        17        16     9        0.000000        6.990808         1
         8        23        17        16     9      180.000000       -3.199397         2
         8        23        17        16     9        0.000000       -0.163676         3
         8        23        17        16     9      180.000000        0.700246         4
         8        23        17        18     9        0.000000        1.506879         1
         8        23        17        18     9      180.000000       -0.615887         2
         8        23        17        18     9        0.000000        0.756564         3
         8        23        17        18     9      180.000000        0.171466         4
         8        23        17        44     9        0.000000       -0.206047         1
         8        23        17        44     9      180.000000       -0.124018         2
         8        23        17        44     9        0.000000        0.614271         3
         8        23        17        44     9      180.000000       -0.014042         4
         9         8         7        34     9        0.000000        0.014655         1
         9         8         7        34     9      180.000000       12.758515         2
         9         8         7        34     9        0.000000       -0.233158         3
         9         8         7        34     9      180.000000        0.020255         4
         9         8        23        17     9        0.000000        3.062411         1
         9         8        23        17     9      180.000000        0.374372         2
         9         8        23        17     9        0.000000       -0.114617         3
         9         8        23        17     9      180.000000        1.052432         4
         9         8        23        48     9        0.000000        6.339989         1
         9         8        23        48     9      180.000000        3.850123         2
         9         8        23        48     9        0.000000       -0.589132         3
         9         8        23        48     9      180.000000        0.401615         4
         9        11        12        13     9        0.000000       -0.114144         1
         9        11        12        13     9      180.000000       -0.738611         2
         9        11        12        13     9        0.000000        0.805621         3
         9        11        12        13     9      180.000000        0.066388         4
         9        11        16        15     9        0.000000        0.732598         1
         9        11        16        15     9      180.000000       -1.718375         2
         9        11        16        15     9        0.000000        0.360666         3
         9        11        16        15     9      180.000000        0.034532         4
         9        11        16        17     9        0.000000        2.412435         1
         9        11        16        17     9      180.000000       -3.054071         2
         9        11        16        17     9        0.000000        0.037099         3
         9        11        16        17     9      180.000000        0.202227         4
         9        11        16        43     9        0.000000       -0.099179         1
         9        11        16        43     9      180.000000        0.008756         2
         9        11        16        43     9        0.000000        0.116745         3
         9        11        16        43     9      180.000000        0.197015         4
        10         5         6        33     9        0.000000       -0.000999         1
        10         5         6        33     9      180.000000       14.590484         2
        10         5         6        33     9        0.000000       -0.653741         3
        10         5         6        33     9      180.000000        0.015674         4
        10         9         8        23     9        0.000000        0.168913         1
        10         9         8        23     9      180.000000       17.282388         2
        10         9         8        23     9        0.000000        0.133352         3
        10         9         8        23     9      180.000000       -0.563435         4
        10         9        11        12     9        0.000000       -0.217716         1
        10         9        11        12     9      180.000000        0.309018         2
        10         9        11        12     9        0.000000       -0.786736         3
        10         9        11        12     9      180.000000        0.149209         4
        10         9        11        16     9        0.000000       -1.025042         1
        10         9        11        16     9      180.000000       -1.033306         2
        10         9        11        16     9        0.000000       -0.582903         3
        10         9        11        16     9      180.000000        0.272072         4
        10         9        11        36     9        0.000000        0.225522         1
        10         9        11        36     9      180.000000       -0.019400         2
        10         9        11        36     9        0.000000       -0.682054         3
        10         9        11        36     9      180.000000       -0.044509         4
        11         9         8        23     9        0.000000       -0.029486         1
        11         9         8        23     9      180.000000       16.078496         2
        11         9         8        23     9        0.000000        0.489055         3
        11         9         8        23     9      180.000000       -0.519873         4
        11         9        10        35     9        0.000000        0.016057         1
        11         9        10        35     9      180.000000       12.684094         2
        11         9        10        35     9        0.000000       -0.290153         3
        11         9        10        35     9      180.000000        0.187237         4
        11        12        13        14     9        0.000000        2.277706         1
        11        12        13        14     9      180.000000       -2.002577         2
        11        12        13        14     9        0.000000        0.309281         3
        11        12        13        14     9      180.000000        0.217842         4
        11        12        13        37     9        0.000000       -0.048228         1
        11        12        13        37     9      180.000000        0.089916         2
        11        12        13        37     9        0.000000        0.339908         3
        11        12        13        37     9      180.000000        0.009036         4
        11        12        13        38     9        0.000000       -0.048228         1
        11        12        13        38     9      180.000000        0.089916         2
        11        12        13        38     9        0.000000        0.339908         3
        11        12        13        38     9      180.000000        0.009036         4
        11        16        15        14     9        0.000000        1.362406         1
        11        16        15        14     9      180.000000       -1.305265         2
        11        16        15        14     9        0.000000        0.110347         3
        11        16        15        14     9      180.000000        0.031399         4
        11        16        15        41     9        0.000000       -0.083458         1
        11        16        15        41     9      180.000000        0.074381         2
        11        16        15        41     9        0.000000        0.216997         3
        11        16        15        41     9      180.000000        0.020427         4
        11        16        15        42     9        0.000000       -0.083458         1
        11        16        15        42     9      180.000000        0.074381         2
        11        16        15        42     9        0.000000        0.216997         3
        11        16        15        42     9      180.000000        0.020427         4
        11        16        17        18     9        0.000000       -0.423269         1
        11        16        17        18     9      180.000000       -0.184473         2
        11        16        17        18     9        0.000000        0.336266         3
        11        16        17        18     9      180.000000        0.110922         4
        11        16        17        23     9        0.000000       -0.089601         1
        11        16        17        23     9      180.000000       -1.762213         2
        11        16        17        23     9        0.000000       -0.217132         3
        11        16        17        23     9      180.000000        0.173842         4
        11        16        17        44     9        0.000000       -0.137233         1
        11        16        17        44     9      180.000000       -0.031338         2
        11        16        17        44     9        0.000000        0.118867         3
        11        16        17        44     9      180.000000        0.145844         4
        12        11        16        15     9        0.000000        0.943394         1
        12        11        16        15     9      180.000000       -2.423787         2
        12        11        16        15     9        0.000000        0.295675         3
        12        11        16        15     9      180.000000        0.151420         4
        12        11        16        17     9        0.000000        0.974892         1
        12        11        16        17     9      180.000000       -4.310724         2
        12        11        16        17     9        0.000000        0.070016         3
        12        11        16        17     9      180.000000        0.388106         4
        12        11        16        43     9        0.000000       -0.540306         1
        12        11        16        43     9      180.000000        0.146980         2
        12        11        16        43     9        0.000000        0.049290         3
        12        11        16        43     9      180.000000        0.178572         4
        12        13        14        15     9        0.000000       -0.324162         1
        12        13        14        15     9      180.000000       -0.574952         2
        12        13        14        15     9        0.000000        0.314407         3
        12        13        14        15     9      180.000000        0.010325         4
        12        13        14        39     9        0.000000       -0.056055         1
        12        13        14        39     9      180.000000        0.015841         2
        12        13        14        39     9        0.000000        0.209822         3
        12        13        14        39     9      180.000000        0.034245         4
        12        13        14        40     9        0.000000       -0.056055         1
        12        13        14        40     9      180.000000        0.015841         2
        12        13        14        40     9        0.000000        0.209822         3
        12        13        14        40     9      180.000000        0.034245         4
        13        12        11        16     9        0.000000        6.087751         1
        13        12        11        16     9      180.000000       -3.185388         2
        13        12        11        16     9        0.000000        0.161230         3
        13        12        11        16     9      180.000000        0.161694         4
        13        12        11        36     9        0.000000       -0.297609         1
        13        12        11        36     9      180.000000        0.214578         2
        13        12        11        36     9        0.000000        0.661739         3
        13        12        11        36     9      180.000000        0.009996         4
        13        14        15        16     9        0.000000        0.521328         1
        13        14        15        16     9      180.000000       -1.215801         2
        13        14        15        16     9        0.000000        0.131973         3
        13        14        15        16     9      180.000000        0.068505         4
        13        14        15        41     9        0.000000       -0.000755         1
        13        14        15        41     9      180.000000        0.023841         2
        13        14        15        41     9        0.000000        0.204011         3
        13        14        15        41     9      180.000000        0.003036         4
        13        14        15        42     9        0.000000       -0.000755         1
        13        14        15        42     9      180.000000        0.023841         2
        13        14        15        42     9        0.000000        0.204011         3
        13        14        15        42     9      180.000000        0.003036         4
        14        15        16        17     9        0.000000        0.531405         1
        14        15        16        17     9      180.000000       -0.647769         2
        14        15        16        17     9        0.000000        0.393838         3
        14        15        16        17     9      180.000000       -0.004076         4
        14        15        16        43     9        0.000000       -1.044443         1
        14        15        16        43     9      180.000000       -0.013146         2
        14        15        16        43     9        0.000000        0.220795         3
        14        15        16        43     9      180.000000        0.150902         4
        15        14        13        37     9        0.000000       -0.028106         1
        15        14        13        37     9      180.000000        0.009292         2
        15        14        13        37     9        0.000000        0.303173         3
        15        14        13        37     9      180.000000        0.023292         4
        15        14        13        38     9        0.000000       -0.028106         1
        15        14        13        38     9      180.000000        0.009292         2
        15        14        13        38     9        0.000000        0.303173         3
        15        14        13        38     9      180.000000        0.023292         4
        15        16        11        36     9        0.000000       -0.158695         1
        15        16        11        36     9      180.000000        0.242666         2
        15        16        11        36     9        0.000000        0.291906         3
        15        16        11        36     9      180.000000        0.074579         4
        15        16        17        18     9        0.000000        1.145859         1
        15        16        17        18     9      180.000000       -0.615804         2
        15        16        17        18     9        0.000000        0.882404         3
        15        16        17        18     9      180.000000        0.135419         4
        15        16        17        23     9        0.000000       -1.646370         1
        15        16        17        23     9      180.000000        0.324394         2
        15        16        17        23     9        0.000000        0.382904         3
        15        16        17        23     9      180.000000       -0.087914         4
        15        16        17        44     9        0.000000       -0.291955         1
        15        16        17        44     9      180.000000        0.167323         2
        15        16        17        44     9        0.000000        0.552310         3
        15        16        17        44     9      180.000000       -0.015201         4
        16        15        14        39     9        0.000000       -0.043034         1
        16        15        14        39     9      180.000000       -0.001918         2
        16        15        14        39     9        0.000000        0.159438         3
        16        15        14        39     9      180.000000       -0.010532         4
        16        15        14        40     9        0.000000       -0.043034         1
        16        15        14        40     9      180.000000       -0.001918         2
        16        15        14        40     9        0.000000        0.159438         3
        16        15        14        40     9      180.000000       -0.010532         4
        16        17        18        19     9        0.000000       -0.159433         1
        16        17        18        19     9      180.000000       -0.395655         2
        16        17        18        19     9        0.000000        0.331014         3
        16        17        18        19     9      180.000000        0.017375         4
        16        17        18        22     9        0.000000        0.127119         1
        16        17        18        22     9      180.000000       -0.417115         2
        16        17        18        22     9        0.000000       -0.187693         3
        16        17        18        22     9      180.000000        0.042154         4
        16        17        23        48     9        0.000000        3.832974         1
        16        17        23        48     9      180.000000       -3.450202         2
        16        17        23        48     9        0.000000        0.159017         3
        16        17        23        48     9      180.000000        0.474601         4
        17        16        11        36     9        0.000000       -0.515265         1
        17        16        11        36     9      180.000000        0.156336         2
        17        16        11        36     9        0.000000        0.067699         3
        17        16        11        36     9      180.000000        0.118274         4
        17        16        15        41     9        0.000000       -0.014726         1
        17        16        15        41     9      180.000000        0.037804         2
        17        16        15        41     9        0.000000        0.310539         3
        17        16        15        41     9      180.000000        0.006617         4
        17        16        15        42     9        0.000000       -0.014726         1
        17        16        15        42     9      180.000000        0.037804         2
        17        16        15        42     9        0.000000        0.310539         3
        17        16        15        42     9      180.000000        0.006617         4
        17        18        19        20     9        0.000000        0.279825         1
        17        18        19        20     9      180.000000       12.293567         2
        17        18        19        20     9        0.000000        0.243147         3
        17        18        19        20     9      180.000000       -0.488967         4
        17        18        19        45     9        0.000000        0.076700         1
        17        18        19        45     9      180.000000       10.842275         2
        17        18        19        45     9        0.000000       -0.251955         3
        17        18        19        45     9      180.000000        0.015923         4
        17        18        22        21     9        0.000000        0.381395         1
        17        18        22        21     9      180.000000       17.357653         2
        17        18        22        21     9        0.000000        0.237757         3
        17        18        22        21     9      180.000000       -0.948931         4
        17        18        22        47     9        0.000000        0.054187         1
        17        18        22        47     9      180.000000       13.240639         2
        17        18        22        47     9        0.000000       -0.249038         3
        17        18        22        47     9      180.000000       -0.040802         4
        18        17        16        43     9        0.000000        0.172857         1
        18        17        16        43     9      180.000000       -0.030960         2
        18        17        16        43     9        0.000000        0.445805         3
        18        17        16        43     9      180.000000       -0.030098         4
        18        17        23        48     9        0.000000        4.515431         1
        18        17        23        48     9      180.000000       -1.212584         2
        18        17        23        48     9        0.000000        0.204002         3
        18        17        23        48     9      180.000000       -0.048704         4
        18        19        20        21     9        0.000000       -0.006884         1
        18        19        20        21     9      180.000000       27.142366         2
        18        19        20        21     9        0.000000       -5.157597         3
        18        19        20        21     9      180.000000       -0.685452         4
        18        19        20        46     9        0.000000        0.476521         1
        18        19        20        46     9      180.000000       15.919360         2
        18        19        20        46     9        0.000000       -0.191177         3
        18        19        20        46     9      180.000000       -0.444518         4
        18        22        21        20     9        0.000000       -0.130395         1
        18        22        21        20     9      180.000000       27.835832         2
        18        22        21        20     9        0.000000       -5.031526         3
        18        22        21        20     9      180.000000       -0.238409         4
        19        18        17        23     9        0.000000       -0.199795         1
        19        18        17        23     9      180.000000        0.384161         2
        19        18        17        23     9        0.000000        0.361504         3
        19        18        17        23     9      180.000000        0.118584         4
        19        18        17        44     9        0.000000        0.214715         1
        19        18        17        44     9      180.000000        0.605206         2
        19        18        17        44     9        0.000000        0.460239         3
        19        18        17        44     9      180.000000       -0.072243         4
        19        18        22        21     9        0.000000       -0.209532         1
        19        18        22        21     9      180.000000       27.550637         2
        19        18        22        21     9        0.000000       -5.049326         3
        19        18        22        21     9      180.000000       -0.592184         4
        19        18        22        47     9        0.000000        0.323090         1
        19        18        22        47     9      180.000000       16.670076         2
        19        18        22        47     9        0.000000       -0.312436         3
        19        18        22        47     9      180.000000       -0.507528         4
        19        20        21        22     9        0.000000       -0.565912         1
        19        20        21        22     9      180.000000       28.684644         2
        19        20        21        22     9        0.000000       -5.535603         3
        19        20        21        22     9      180.000000       -0.014820         4
        20        19        18        22     9        0.000000       -0.240976         1
        20        19        18        22     9      180.000000       23.024108         2
        20        19        18        22     9        0.000000       -5.223763         3
        20        19        18        22     9      180.000000       -0.362436         4
        20        21        22        47     9        0.000000        0.541103         1
        20        21        22        47     9      180.000000       10.894521         2
        20        21        22        47     9        0.000000        0.872849         3
        20        21        22        47     9      180.000000       -0.133320         4
        21        20        19        45     9        0.000000        0.261179         1
        21        20        19        45     9      180.000000       16.079618         2
        21        20        19        45     9        0.000000       -0.040557         3
        21        20        19        45     9      180.000000       -0.453161         4
        22        18        17        23     9        0.000000        0.208007         1
        22        18        17        23     9      180.000000        0.495745         2
        22        18        17        23     9        0.000000       -0.352140         3
        22        18        17        23     9      180.000000        0.125679         4
        22        18        17        44     9        0.000000        0.189877         1
        22        18        17        44     9      180.000000        0.513281         2
        22        18        17        44     9        0.000000       -0.194492         3
        22        18        17        44     9      180.000000       -0.038959         4
        22        18        19        45     9        0.000000        0.569549         1
        22        18        19        45     9      180.000000       12.130586         2
        22        18        19        45     9        0.000000       -0.277489         3
        22        18        19        45     9      180.000000       -0.266124         4
        22        21        20        46     9        0.000000        0.587294         1
        22        21        20        46     9      180.000000       11.853064         2
        22        21        20        46     9        0.000000        0.734570         3
        22        21        20        46     9      180.000000       -0.177414         4
        23         8         7        34     9        0.000000       -0.246212         1
        23         8         7        34     9      180.000000       15.521471         2
        23         8         7        34     9        0.000000       -0.158032         3
        23         8         7        34     9      180.000000        0.028790         4
        23        17        16        43     9        0.000000       -0.057903         1
        23        17        16        43     9      180.000000        0.017341         2
        23        17        16        43     9        0.000000        0.101126         3
        23        17        16        43     9      180.000000        0.237087         4
        33         6         7        34     9        0.000000       -0.111848         1
        33         6         7        34     9      180.000000       12.002969         2
        33         6         7        34     9        0.000000       -0.737181         3
        33         6         7        34     9      180.000000        0.369919         4
        36        11        16        43     9        0.000000        0.144684         1
        36        11        16        43     9      180.000000        0.093685         2
        36        11        16        43     9        0.000000        0.248200         3
        36        11        16        43     9      180.000000       -0.131188         4
        37        13        14        39     9        0.000000       -0.008975         1
        37        13        14        39     9      180.000000        0.003906         2
        37        13        14        39     9        0.000000        0.305868         3
        37        13        14        39     9      180.000000       -0.016682         4
        37        13        14        40     9        0.000000       -0.008975         1
        37        13        14        40     9      180.000000        0.003906         2
        37        13        14        40     9        0.000000        0.305868         3
        37        13        14        40     9      180.000000       -0.016682         4
        38        13        14        39     9        0.000000       -0.008975         1
        38        13        14        39     9      180.000000        0.003906         2
        38        13        14        39     9        0.000000        0.305868         3
        38        13        14        39     9      180.000000       -0.016682         4
        38        13        14        40     9        0.000000       -0.008975         1
        38        13        14        40     9      180.000000        0.003906         2
        38        13        14        40     9        0.000000        0.305868         3
        38        13        14        40     9      180.000000       -0.016682         4
        39        14        15        41     9        0.000000        0.024035         1
        39        14        15        41     9      180.000000       -0.027617         2
        39        14        15        41     9        0.000000        0.263992         3
        39        14        15        41     9      180.000000        0.008287         4
        39        14        15        42     9        0.000000        0.024035         1
        39        14        15        42     9      180.000000       -0.027617         2
        39        14        15        42     9        0.000000        0.263992         3
        39        14        15        42     9      180.000000        0.008287         4
        40        14        15        41     9        0.000000        0.024035         1
        40        14        15        41     9      180.000000       -0.027617         2
        40        14        15        41     9        0.000000        0.263992         3
        40        14        15        41     9      180.000000        0.008287         4
        40        14        15        42     9        0.000000        0.024035         1
        40        14        15        42     9      180.000000       -0.027617         2
        40        14        15        42     9        0.000000        0.263992         3
        40        14        15        42     9      180.000000        0.008287         4
        41        15        16        43     9        0.000000        0.332021         1
        41        15        16        43     9      180.000000        0.090694         2
        41        15        16        43     9        0.000000        0.389141         3
        41        15        16        43     9      180.000000       -0.041899         4
        42        15        16        43     9        0.000000        0.332021         1
        42        15        16        43     9      180.000000        0.090694         2
        42        15        16        43     9        0.000000        0.389141         3
        42        15        16        43     9      180.000000       -0.041899         4
        43        16        17        44     9        0.000000        0.758251         1
        43        16        17        44     9      180.000000        0.153190         2
        43        16        17        44     9        0.000000        0.441492         3
        43        16        17        44     9      180.000000       -0.294283         4
        44        17        23        48     9        0.000000       -0.992164         1
        44        17        23        48     9      180.000000       -0.279254         2
        44        17        23        48     9        0.000000        0.432524         3
        44        17        23        48     9      180.000000       -0.244427         4
        45        19        20        46     9        0.000000       -0.062765         1
        45        19        20        46     9      180.000000       12.030310         2
        45        19        20        46     9        0.000000       -0.653291         3
        45        19        20        46     9      180.000000        0.118812         4

[ pairs ]
;       ai        aj funct
         1         6     1
         1        10     1
         1        27     1
         1        28     1
         1        29     1
         1        30     1
         1        31     1
         1        32     1
         2         7     1
         2         9     1
         2        33     1
         2        35     1
         3         6     1
         3        10     1
         3        24     1
         3        25     1
         3        26     1
         3        30     1
         3        31     1
         3        32     1
         4         6     1
         4        10     1
         4        24     1
         4        25     1
         4        26     1
         4        27     1
         4        28     1
         4        29     1
         5         8     1
         5        11     1
         5        24     1
         5        25     1
         5        26     1
         5        27     1
         5        28     1
         5        29     1
         5        30     1
         5        31     1
         5        32     1
         5        34     1
         6         9     1
         6        23     1
         6        35     1
         7        10     1
         7        11     1
         7        17     1
         7        48     1
         8        12     1
         8        16     1
         8        18     1
         8        33     1
         8        35     1
         8        36     1
         8        44     1
         9        13     1
         9        15     1
         9        17     1
         9        34     1
         9        43     1
         9        48     1
        10        12     1
        10        16     1
        10        23     1
        10        33     1
        10        36     1
        11        14     1
        11        18     1
        11        23     1
        11        35     1
        11        37     1
        11        38     1
        11        41     1
        11        42     1
        11        44     1
        12        15     1
        12        17     1
        12        39     1
        12        40     1
        12        43     1
        13        16     1
        13        36     1
        13        41     1
        13        42     1
        14        17     1
        14        43     1
        15        18     1
        15        23     1
        15        36     1
        15        37     1
        15        38     1
        15        44     1
        16        19     1
        16        22     1
        16        39     1
        16        40     1
        16        48     1
        17        20     1
        17        21     1
        17        36     1
        17        41     1
        17        42     1
        17        45     1
        17        47     1
        18        43     1
        18        46     1
        18        48     1
        19        23     1
        19        44     1
        19        47     1
        20        47     1
        21        45     1
        22        23     1
        22        44     1
        22        45     1
        22        46     1
        23        34     1
        23        43     1
        33        34     1
        36        43     1
        37        39     1
        37        40     1
        38        39     1
        38        40     1
        39        41     1
        39        42     1
        40        41     1
        40        42     1
        41        43     1
        42        43     1
        43        44     1
        44        48     1
        45        46     1
