; ITP file created by ByteFF-ML, 2026-02-21 07:38:17.746700

[ atomtypes ]
;name           bonded.type        at.num        mass        charge   ptype           sigma         epsilon
 c0bf                                   6      0.0000       0.00000       A     3.39901e-01     4.49753e-01
 n1bf                                   7      0.0000       0.00000       A     3.50397e-01     2.21973e-01
 c2bf                                   6      0.0000       0.00000       A     3.39755e-01     4.51067e-01
 c3bf                                   6      0.0000       0.00000       A     3.39675e-01     4.52575e-01
 s4bf                                  16      0.0000       0.00000       A     4.05656e-01     2.55387e-01
 o5bf                                   8      0.0000       0.00000       A     3.04835e-01     6.13104e-01
 o6bf                                   8      0.0000       0.00000       A     3.04835e-01     6.13104e-01
 n7bf                                   7      0.0000       0.00000       A     3.50588e-01     2.18488e-01
 c8bf                                   6      0.0000       0.00000       A     3.39825e-01     4.50071e-01
 c9bf                                   6      0.0000       0.00000       A     3.39816e-01     4.51879e-01
 c10bf                                  6      0.0000       0.00000       A     3.39811e-01     4.50473e-01
 c11bf                                  6      0.0000       0.00000       A     3.39938e-01     4.52179e-01
 c12bf                                  6      0.0000       0.00000       A     3.40218e-01     4.51818e-01
 c13bf                                  6      0.0000       0.00000       A     3.39362e-01     4.50344e-01
 c14bf                                  6      0.0000       0.00000       A     3.31416e-01     4.11566e-01
 c15bf                                  6      0.0000       0.00000       A     3.31559e-01     4.13032e-01
 c16bf                                  6      0.0000       0.00000       A     3.31517e-01     4.13352e-01
 c17bf                                  6      0.0000       0.00000       A     3.31506e-01     4.12857e-01
 c18bf                                  6      0.0000       0.00000       A     3.31517e-01     4.13352e-01
 c19bf                                  6      0.0000       0.00000       A     3.31559e-01     4.13032e-01
 n20bf                                  7      0.0000       0.00000       A     3.28286e-01     6.41163e-01
 c21bf                                  6      0.0000       0.00000       A     3.31454e-01     4.11042e-01
 c22bf                                  6      0.0000       0.00000       A     3.31569e-01     4.14507e-01
 c23bf                                  6      0.0000       0.00000       A     3.31508e-01     4.13091e-01
 c24bf                                  6      0.0000       0.00000       A     3.31488e-01     4.14461e-01
 c25bf                                  6      0.0000       0.00000       A     3.39788e-01     4.48602e-01
 f26bf                                  9      0.0000       0.00000       A     3.03460e-01     3.47943e-01
 f27bf                                  9      0.0000       0.00000       A     3.03460e-01     3.47943e-01
 f28bf                                  9      0.0000       0.00000       A     3.03460e-01     3.47943e-01
 c29bf                                  6      0.0000       0.00000       A     3.31217e-01     4.13522e-01
 c30bf                                  6      0.0000       0.00000       A     3.31287e-01     4.10150e-01
 c31bf                                  6      0.0000       0.00000       A     3.39738e-01     4.51731e-01
 o32bf                                  8      0.0000       0.00000       A     3.15772e-01     3.04450e-01
 h33bf                                  1      0.0000       0.00000       A     2.41990e-01     8.68166e-02
 h34bf                                  1      0.0000       0.00000       A     2.41990e-01     8.68166e-02
 h35bf                                  1      0.0000       0.00000       A     2.41990e-01     8.68166e-02
 h36bf                                  1      0.0000       0.00000       A     2.42056e-01     8.73002e-02
 h37bf                                  1      0.0000       0.00000       A     2.42056e-01     8.73002e-02
 h38bf                                  1      0.0000       0.00000       A     2.42256e-01     8.81876e-02
 h39bf                                  1      0.0000       0.00000       A     2.42256e-01     8.81876e-02
 h40bf                                  1      0.0000       0.00000       A     1.10357e-01     3.90510e-02
 h41bf                                  1      0.0000       0.00000       A     2.42311e-01     8.74071e-02
 h42bf                                  1      0.0000       0.00000       A     2.42311e-01     8.74071e-02
 h43bf                                  1      0.0000       0.00000       A     2.42669e-01     8.71182e-02
 h44bf                                  1      0.0000       0.00000       A     2.59821e-01     8.71677e-02
 h45bf                                  1      0.0000       0.00000       A     2.59821e-01     8.71677e-02
 h46bf                                  1      0.0000       0.00000       A     2.60017e-01     8.63234e-02
 h47bf                                  1      0.0000       0.00000       A     2.60017e-01     8.63234e-02
 h48bf                                  1      0.0000       0.00000       A     2.59608e-01     8.66043e-02
 h49bf                                  1      0.0000       0.00000       A     2.42675e-01     8.80520e-02
 h50bf                                  1      0.0000       0.00000       A     2.62512e-01     6.76287e-02
 h51bf                                  1      0.0000       0.00000       A     2.62458e-01     6.72647e-02
 h52bf                                  1      0.0000       0.00000       A     2.62457e-01     6.73477e-02
 h53bf                                  1      0.0000       0.00000       A     2.62458e-01     6.72647e-02
 h54bf                                  1      0.0000       0.00000       A     2.62512e-01     6.76287e-02
 h55bf                                  1      0.0000       0.00000       A     1.10887e-01     4.11451e-02
 h56bf                                  1      0.0000       0.00000       A     2.62406e-01     6.70142e-02
 h57bf                                  1      0.0000       0.00000       A     2.62597e-01     6.75951e-02
 h58bf                                  1      0.0000       0.00000       A     2.62549e-01     6.73222e-02
 h59bf                                  1      0.0000       0.00000       A     2.42774e-01     8.84398e-02
 h60bf                                  1      0.0000       0.00000       A     1.10783e-01     4.13398e-02

[ moleculetype ]
;name             nrexcl
 CHEMBL1084677_1       3

[ atoms ]
;       nr            type      resi   res      atom      cgnr      charge          mass ; qtot
         1            c0bf         1   UNL        c0         1     0.13922       12.0110 ; qtot    0.139
         2            n1bf         1   UNL        n1         2    -0.86736       14.0070 ; qtot   -0.728
         3            c2bf         1   UNL        c2         3     0.18225       12.0110 ; qtot   -0.546
         4            c3bf         1   UNL        c3         4    -0.28762       12.0110 ; qtot   -0.834
         5            s4bf         1   UNL        s4         5     1.10408       32.0670 ; qtot    0.271
         6            o5bf         1   UNL        o5         6    -0.52097       15.9990 ; qtot   -0.250
         7            o6bf         1   UNL        o6         7    -0.52097       15.9990 ; qtot   -0.771
         8            n7bf         1   UNL        n7         8    -0.84404       14.0070 ; qtot   -1.615
         9            c8bf         1   UNL        c8         9     0.19388       12.0110 ; qtot   -1.422
        10            c9bf         1   UNL        c9        10     0.15035       12.0110 ; qtot   -1.271
        11           c10bf         1   UNL       c10        11    -0.10071       12.0110 ; qtot   -1.372
        12           c11bf         1   UNL       c11        12    -0.06676       12.0110 ; qtot   -1.439
        13           c12bf         1   UNL       c12        13    -0.09765       12.0110 ; qtot   -1.536
        14           c13bf         1   UNL       c13        14     0.26107       12.0110 ; qtot   -1.275
        15           c14bf         1   UNL       c14        15    -0.10768       12.0110 ; qtot   -1.383
        16           c15bf         1   UNL       c15        16    -0.09640       12.0110 ; qtot   -1.479
        17           c16bf         1   UNL       c16        17    -0.11334       12.0110 ; qtot   -1.593
        18           c17bf         1   UNL       c17        18    -0.10684       12.0110 ; qtot   -1.699
        19           c18bf         1   UNL       c18        19    -0.11334       12.0110 ; qtot   -1.813
        20           c19bf         1   UNL       c19        20    -0.09640       12.0110 ; qtot   -1.909
        21           n20bf         1   UNL       n20        21    -0.92305       14.0070 ; qtot   -2.832
        22           c21bf         1   UNL       c21        22     0.30845       12.0110 ; qtot   -2.524
        23           c22bf         1   UNL       c22        23    -0.17966       12.0110 ; qtot   -2.703
        24           c23bf         1   UNL       c23        24    -0.01484       12.0110 ; qtot   -2.718
        25           c24bf         1   UNL       c24        25    -0.23480       12.0110 ; qtot   -2.953
        26           c25bf         1   UNL       c25        26     0.34500       12.0110 ; qtot   -2.608
        27           f26bf         1   UNL       f26        27    -0.10402       18.9980 ; qtot   -2.712
        28           f27bf         1   UNL       f27        28    -0.10402       18.9980 ; qtot   -2.816
        29           f28bf         1   UNL       f28        29    -0.10402       18.9980 ; qtot   -2.920
        30           c29bf         1   UNL       c29        30     0.01257       12.0110 ; qtot   -2.908
        31           c30bf         1   UNL       c30        31    -0.16291       12.0110 ; qtot   -3.071
        32           c31bf         1   UNL       c31        32     0.22689       12.0110 ; qtot   -2.844
        33           o32bf         1   UNL       o32        33    -0.45693       15.9990 ; qtot   -3.301
        34           h33bf         1   UNL       h33        34     0.03274        1.0080 ; qtot   -3.268
        35           h34bf         1   UNL       h34        35     0.03274        1.0080 ; qtot   -3.235
        36           h35bf         1   UNL       h35        36     0.03274        1.0080 ; qtot   -3.202
        37           h36bf         1   UNL       h36        37     0.05110        1.0080 ; qtot   -3.151
        38           h37bf         1   UNL       h37        38     0.05110        1.0080 ; qtot   -3.100
        39           h38bf         1   UNL       h38        39     0.10395        1.0080 ; qtot   -2.996
        40           h39bf         1   UNL       h39        40     0.10395        1.0080 ; qtot   -2.892
        41           h40bf         1   UNL       h40        41     0.48291        1.0080 ; qtot   -2.409
        42           h41bf         1   UNL       h41        42     0.06792        1.0080 ; qtot   -2.341
        43           h42bf         1   UNL       h42        43     0.06792        1.0080 ; qtot   -2.274
        44           h43bf         1   UNL       h43        44     0.05937        1.0080 ; qtot   -2.214
        45           h44bf         1   UNL       h44        45     0.05271        1.0080 ; qtot   -2.161
        46           h45bf         1   UNL       h45        46     0.05271        1.0080 ; qtot   -2.109
        47           h46bf         1   UNL       h46        47     0.04867        1.0080 ; qtot   -2.060
        48           h47bf         1   UNL       h47        48     0.04867        1.0080 ; qtot   -2.011
        49           h48bf         1   UNL       h48        49     0.06779        1.0080 ; qtot   -1.944
        50           h49bf         1   UNL       h49        50     0.05590        1.0080 ; qtot   -1.888
        51           h50bf         1   UNL       h50        51     0.11749        1.0080 ; qtot   -1.770
        52           h51bf         1   UNL       h51        52     0.11433        1.0080 ; qtot   -1.656
        53           h52bf         1   UNL       h52        53     0.11376        1.0080 ; qtot   -1.542
        54           h53bf         1   UNL       h53        54     0.11433        1.0080 ; qtot   -1.428
        55           h54bf         1   UNL       h54        55     0.11749        1.0080 ; qtot   -1.310
        56           h55bf         1   UNL       h55        56     0.45777        1.0080 ; qtot   -0.853
        57           h56bf         1   UNL       h56        57     0.11995        1.0080 ; qtot   -0.733
        58           h57bf         1   UNL       h57        58     0.13153        1.0080 ; qtot   -0.601
        59           h58bf         1   UNL       h58        59     0.13526        1.0080 ; qtot   -0.466
        60           h59bf         1   UNL       h59        60     0.05463        1.0080 ; qtot   -0.411
        61           h60bf         1   UNL       h60        61     0.41114        1.0080 ; qtot   -0.000

[ bonds ]
;       ai        aj funct               r               k
         1         2     1        0.146423   212027.136768
         1        34     1        0.109684   290733.580420
         1        35     1        0.109684   290733.580420
         1        36     1        0.109684   290733.580420
         2         3     1        0.146270   204810.988086
         2        61     1        0.101711   399042.871094
         3         4     1        0.153341   175928.287549
         3        37     1        0.109687   289983.683203
         3        38     1        0.109687   289983.683203
         4         5     1        0.181519   134678.143701
         4        39     1        0.109185   312202.475049
         4        40     1        0.109185   312202.475049
         5         6     1        0.146783   514636.647754
         5         7     1        0.146783   514636.647754
         5         8     1        0.169216   153200.924170
         8         9     1        0.147250   192385.754297
         8        41     1        0.101896   402641.305176
         9        10     1        0.153242   177852.151221
         9        42     1        0.109371   299510.812598
         9        43     1        0.109371   299510.812598
        10        11     1        0.153442   176110.482056
        10        33     1        0.143517   180438.651807
        10        44     1        0.109805   287571.396777
        11        12     1        0.153626   183892.928906
        11        45     1        0.109494   296650.962793
        11        46     1        0.109494   296650.962793
        12        13     1        0.153644   177808.316772
        12        47     1        0.109464   296701.219824
        12        48     1        0.109464   296701.219824
        13        14     1        0.154231   162728.372778
        13        32     1        0.153712   167978.406641
        13        49     1        0.109661   296507.444238
        14        15     1        0.152011   180470.777490
        14        21     1        0.146639   193821.578271
        14        50     1        0.109903   282326.712939
        15        16     1        0.140235   288447.626074
        15        20     1        0.140235   288447.626074
        16        17     1        0.139815   313021.067090
        16        51     1        0.108668   316228.298193
        17        18     1        0.139918   306554.075049
        17        52     1        0.108647   318864.672754
        18        19     1        0.139918   306554.075049
        18        53     1        0.108625   319984.475000
        19        20     1        0.139815   313021.067090
        19        54     1        0.108647   318864.672754
        20        55     1        0.108668   316228.298193
        21        22     1        0.140120   267840.276904
        21        56     1        0.101355   410549.739355
        22        23     1        0.140735   277586.438086
        22        31     1        0.141215   263372.840527
        23        24     1        0.139041   333166.398877
        23        57     1        0.108629   317015.479590
        24        25     1        0.140173   293861.288965
        24        58     1        0.108531   322344.538037
        25        26     1        0.150293   195287.382812
        25        30     1        0.139887   297622.803027
        26        27     1        0.135840   221716.758789
        26        28     1        0.135840   221716.758789
        26        29     1        0.135840   221716.758789
        30        31     1        0.139370   310255.806738
        30        59     1        0.108550   319487.752686
        31        32     1        0.151162   190895.587354
        32        33     1        0.143414   181047.277734
        32        60     1        0.110020   279291.065674

[ angles ]
;       ai        aj        ak funct           theta             cth
         1         2         3     1      113.407494      676.331827
         1         2        61     1      109.302124      558.836289
         2         1        34     1      110.928200      492.356394
         2         1        35     1      110.928200      492.356394
         2         1        36     1      110.928200      492.356394
         2         3         4     1      111.335777      597.474447
         2         3        37     1      110.009056      486.583507
         2         3        38     1      110.009056      486.583507
         3         2        61     1      108.951340      555.622061
         3         4         5     1      111.823074      748.465990
         3         4        39     1      111.776413      493.414301
         3         4        40     1      111.776413      493.414301
         4         3        37     1      108.659874      474.910367
         4         3        38     1      108.659874      474.910367
         4         5         6     1      107.876572      639.148966
         4         5         7     1      107.876572      639.148966
         4         5         8     1      103.093521      587.149346
         5         4        39     1      105.625572      591.085509
         5         4        40     1      105.625572      591.085509
         5         8         9     1      118.566299      564.336217
         5         8        41     1      108.606972      610.811330
         6         5         7     1      121.196312      709.854902
         6         5         8     1      107.207619      678.198207
         7         5         8     1      107.207619      678.198207
         8         9        10     1      111.402817      537.496970
         8         9        42     1      109.137878      460.945654
         8         9        43     1      109.137878      460.945654
         9         8        41     1      114.052841      475.027167
         9        10        11     1      113.301392      594.288054
         9        10        33     1      107.026756      619.673281
         9        10        44     1      108.120972      492.156599
        10         9        42     1      109.332291      482.259628
        10         9        43     1      109.332291      482.259628
        10        11        12     1      110.739967      653.777389
        10        11        45     1      109.166283      483.879606
        10        11        46     1      109.166283      483.879606
        10        33        32     1      113.838295      587.969279
        11        10        33     1      111.145370      558.856081
        11        10        44     1      109.297012      472.373032
        11        12        13     1      110.793762      628.491628
        11        12        47     1      109.849625      506.841809
        11        12        48     1      109.849625      506.841809
        12        11        45     1      110.409134      506.167406
        12        11        46     1      110.409134      506.167406
        12        13        14     1      113.390907      594.475624
        12        13        32     1      109.946129      599.778085
        12        13        49     1      108.811119      484.857103
        13        12        47     1      109.615433      494.102016
        13        12        48     1      109.615433      494.102016
        13        14        15     1      112.832138      539.061693
        13        14        21     1      108.654358      596.889008
        13        14        50     1      107.204910      478.962787
        13        32        31     1      112.032791      573.279695
        13        32        33     1      111.157753      583.386709
        13        32        60     1      108.313766      468.104983
        14        13        32     1      109.536171      678.085844
        14        13        49     1      107.115433      495.353525
        14        15        16     1      120.675819      480.145730
        14        15        20     1      120.675819      480.145730
        14        21        22     1      118.392113      536.379083
        14        21        56     1      113.211632      469.750690
        15        14        21     1      111.192749      590.960696
        15        14        50     1      107.631065      485.386711
        15        16        17     1      120.662560      709.918234
        15        16        51     1      119.614578      400.532036
        15        20        19     1      120.662560      709.918234
        15        20        55     1      119.614578      400.532036
        16        15        20     1      118.740906      679.590873
        16        17        18     1      120.153175      705.714506
        16        17        52     1      119.816544      429.696851
        17        16        51     1      119.686012      431.264766
        17        18        19     1      119.511429      689.005895
        17        18        53     1      120.255783      430.416551
        18        17        52     1      120.079079      431.521669
        18        19        20     1      120.153175      705.714506
        18        19        54     1      120.079079      431.521669
        19        18        53     1      120.255783      430.416551
        19        20        55     1      119.686012      431.264766
        20        19        54     1      119.816544      429.696851
        21        14        50     1      109.216263      441.919231
        21        22        23     1      119.853516      544.844699
        21        22        31     1      120.381920      586.866970
        22        21        56     1      113.638138      488.207987
        22        23        24     1      120.859085      770.216712
        22        23        57     1      119.257690      424.611327
        22        31        30     1      119.148849      776.854445
        22        31        32     1      120.031204      561.946773
        23        22        31     1      119.169983      656.365575
        23        24        25     1      119.814743      649.825202
        23        24        58     1      119.982407      418.252204
        24        23        57     1      119.795059      441.763486
        24        25        26     1      119.944275      539.726551
        24        25        30     1      119.428001      627.848668
        25        24        58     1      120.115784      419.580102
        25        26        27     1      112.050613      590.814688
        25        26        28     1      112.050613      590.814688
        25        26        29     1      112.050613      590.814688
        25        30        31     1      121.233292      658.046236
        25        30        59     1      119.835167      412.227872
        26        25        30     1      120.179886      484.271952
        27        26        28     1      106.686356      701.106079
        27        26        29     1      106.686356      701.106079
        28        26        29     1      106.686356      701.106079
        30        31        32     1      120.783203      466.032423
        31        30        59     1      118.870621      400.905548
        31        32        33     1      109.725441      614.382950
        31        32        60     1      108.529274      462.167286
        32        13        49     1      107.249771      504.973163
        33        10        44     1      107.475754      461.676782
        33        32        60     1      107.249924      474.024421
        34         1        35     1      107.966019      352.238138
        34         1        36     1      107.966019      352.238138
        35         1        36     1      107.966019      352.238138
        37         3        38     1      106.963394      349.377886
        39         4        40     1      109.460533      341.065493
        42         9        43     1      107.787491      348.703004
        45        11        46     1      107.037109      358.423353
        47        12        48     1      106.517052      361.462876

[ dihedrals ] ; propers for gromacs 4.5 or higher, use funct 9
;       ai        aj        ak        al funct           phase               k        pn
         1         2         3         4     9        0.000000       -0.898986         1
         1         2         3         4     9      180.000000       -1.380623         2
         1         2         3         4     9        0.000000        1.696936         3
         1         2         3         4     9      180.000000        0.040368         4
         1         2         3        37     9        0.000000       -0.327046         1
         1         2         3        37     9      180.000000        0.540289         2
         1         2         3        37     9        0.000000        2.534721         3
         1         2         3        37     9      180.000000        0.088000         4
         1         2         3        38     9        0.000000       -0.327046         1
         1         2         3        38     9      180.000000        0.540289         2
         1         2         3        38     9        0.000000        2.534721         3
         1         2         3        38     9      180.000000        0.088000         4
         2         3         4         5     9        0.000000       -8.203377         1
         2         3         4         5     9      180.000000       -0.617613         2
         2         3         4         5     9        0.000000        0.119653         3
         2         3         4         5     9      180.000000        0.016415         4
         2         3         4        39     9        0.000000        0.143559         1
         2         3         4        39     9      180.000000        0.088686         2
         2         3         4        39     9        0.000000        0.578775         3
         2         3         4        39     9      180.000000        0.095990         4
         2         3         4        40     9        0.000000        0.143559         1
         2         3         4        40     9      180.000000        0.088686         2
         2         3         4        40     9        0.000000        0.578775         3
         2         3         4        40     9      180.000000        0.095990         4
         3         2         1        34     9        0.000000        0.004959         1
         3         2         1        34     9      180.000000        0.134474         2
         3         2         1        34     9        0.000000        1.506665         3
         3         2         1        34     9      180.000000       -0.029047         4
         3         2         1        35     9        0.000000        0.004959         1
         3         2         1        35     9      180.000000        0.134474         2
         3         2         1        35     9        0.000000        1.506665         3
         3         2         1        35     9      180.000000       -0.029047         4
         3         2         1        36     9        0.000000        0.004959         1
         3         2         1        36     9      180.000000        0.134474         2
         3         2         1        36     9        0.000000        1.506665         3
         3         2         1        36     9      180.000000       -0.029047         4
         3         4         5         6     9        0.000000        0.119346         1
         3         4         5         6     9      180.000000        0.366875         2
         3         4         5         6     9        0.000000        0.393380         3
         3         4         5         6     9      180.000000       -0.021261         4
         3         4         5         7     9        0.000000        0.119346         1
         3         4         5         7     9      180.000000        0.366875         2
         3         4         5         7     9        0.000000        0.393380         3
         3         4         5         7     9      180.000000       -0.021261         4
         3         4         5         8     9        0.000000       -1.350651         1
         3         4         5         8     9      180.000000       -0.251482         2
         3         4         5         8     9        0.000000        0.455833         3
         3         4         5         8     9      180.000000        0.127650         4
         4         3         2        61     9        0.000000       -0.113041         1
         4         3         2        61     9      180.000000       -3.129263         2
         4         3         2        61     9        0.000000       -0.820785         3
         4         3         2        61     9      180.000000       -0.072842         4
         4         5         8         9     9        0.000000       -0.981202         1
         4         5         8         9     9      180.000000       -7.284765         2
         4         5         8         9     9        0.000000        2.627814         3
         4         5         8         9     9      180.000000        0.603821         4
         4         5         8        41     9        0.000000       -7.580150         1
         4         5         8        41     9      180.000000       -5.288367         2
         4         5         8        41     9        0.000000       -0.399039         3
         4         5         8        41     9      180.000000        0.719903         4
         5         4         3        37     9        0.000000        1.483269         1
         5         4         3        37     9      180.000000        0.000414         2
         5         4         3        37     9        0.000000        0.212237         3
         5         4         3        37     9      180.000000        0.084676         4
         5         4         3        38     9        0.000000        1.483269         1
         5         4         3        38     9      180.000000        0.000414         2
         5         4         3        38     9        0.000000        0.212237         3
         5         4         3        38     9      180.000000        0.084676         4
         5         8         9        10     9        0.000000       -1.871843         1
         5         8         9        10     9      180.000000       -1.603884         2
         5         8         9        10     9        0.000000       -0.074423         3
         5         8         9        10     9      180.000000        0.164955         4
         5         8         9        42     9        0.000000        1.064044         1
         5         8         9        42     9      180.000000        0.018302         2
         5         8         9        42     9        0.000000       -0.176251         3
         5         8         9        42     9      180.000000        0.091953         4
         5         8         9        43     9        0.000000        1.064044         1
         5         8         9        43     9      180.000000        0.018302         2
         5         8         9        43     9        0.000000       -0.176251         3
         5         8         9        43     9      180.000000        0.091953         4
         6         5         4        39     9        0.000000       -0.084903         1
         6         5         4        39     9      180.000000        0.010303         2
         6         5         4        39     9        0.000000        0.426200         3
         6         5         4        39     9      180.000000        0.020589         4
         6         5         4        40     9        0.000000       -0.084903         1
         6         5         4        40     9      180.000000        0.010303         2
         6         5         4        40     9        0.000000        0.426200         3
         6         5         4        40     9      180.000000        0.020589         4
         6         5         8         9     9        0.000000        0.588910         1
         6         5         8         9     9      180.000000        0.237972         2
         6         5         8         9     9        0.000000        1.575052         3
         6         5         8         9     9      180.000000        0.000690         4
         6         5         8        41     9        0.000000        0.521884         1
         6         5         8        41     9      180.000000       -0.113806         2
         6         5         8        41     9        0.000000       -1.060202         3
         6         5         8        41     9      180.000000       -0.217344         4
         7         5         4        39     9        0.000000       -0.084903         1
         7         5         4        39     9      180.000000        0.010303         2
         7         5         4        39     9        0.000000        0.426200         3
         7         5         4        39     9      180.000000        0.020589         4
         7         5         4        40     9        0.000000       -0.084903         1
         7         5         4        40     9      180.000000        0.010303         2
         7         5         4        40     9        0.000000        0.426200         3
         7         5         4        40     9      180.000000        0.020589         4
         7         5         8         9     9        0.000000        0.588910         1
         7         5         8         9     9      180.000000        0.237972         2
         7         5         8         9     9        0.000000        1.575052         3
         7         5         8         9     9      180.000000        0.000690         4
         7         5         8        41     9        0.000000        0.521884         1
         7         5         8        41     9      180.000000       -0.113806         2
         7         5         8        41     9        0.000000       -1.060202         3
         7         5         8        41     9      180.000000       -0.217344         4
         8         5         4        39     9        0.000000        0.269721         1
         8         5         4        39     9      180.000000       -0.011379         2
         8         5         4        39     9        0.000000        0.582187         3
         8         5         4        39     9      180.000000       -0.044065         4
         8         5         4        40     9        0.000000        0.269721         1
         8         5         4        40     9      180.000000       -0.011379         2
         8         5         4        40     9        0.000000        0.582187         3
         8         5         4        40     9      180.000000       -0.044065         4
         8         9        10        11     9        0.000000       -0.293803         1
         8         9        10        11     9      180.000000        0.518143         2
         8         9        10        11     9        0.000000        0.741072         3
         8         9        10        11     9      180.000000       -0.031013         4
         8         9        10        33     9        0.000000       -2.354685         1
         8         9        10        33     9      180.000000       -0.974736         2
         8         9        10        33     9        0.000000        0.587268         3
         8         9        10        33     9      180.000000        0.039246         4
         8         9        10        44     9        0.000000        0.156622         1
         8         9        10        44     9      180.000000        0.057299         2
         8         9        10        44     9        0.000000        0.764818         3
         8         9        10        44     9      180.000000        0.048901         4
         9        10        11        12     9        0.000000        0.128538         1
         9        10        11        12     9      180.000000        0.319000         2
         9        10        11        12     9        0.000000        0.255653         3
         9        10        11        12     9      180.000000        0.008505         4
         9        10        11        45     9        0.000000       -0.085441         1
         9        10        11        45     9      180.000000       -0.015981         2
         9        10        11        45     9        0.000000        0.319765         3
         9        10        11        45     9      180.000000        0.002661         4
         9        10        11        46     9        0.000000       -0.085441         1
         9        10        11        46     9      180.000000       -0.015981         2
         9        10        11        46     9        0.000000        0.319765         3
         9        10        11        46     9      180.000000        0.002661         4
         9        10        33        32     9        0.000000        0.042976         1
         9        10        33        32     9      180.000000       -0.168147         2
         9        10        33        32     9        0.000000        0.240909         3
         9        10        33        32     9      180.000000        0.125235         4
        10         9         8        41     9        0.000000        2.200580         1
        10         9         8        41     9      180.000000       -2.632139         2
        10         9         8        41     9        0.000000        0.235590         3
        10         9         8        41     9      180.000000       -0.231875         4
        10        11        12        13     9        0.000000        0.733253         1
        10        11        12        13     9      180.000000       -1.118340         2
        10        11        12        13     9        0.000000        0.117065         3
        10        11        12        13     9      180.000000        0.130713         4
        10        11        12        47     9        0.000000       -0.054033         1
        10        11        12        47     9      180.000000        0.035955         2
        10        11        12        47     9        0.000000        0.191610         3
        10        11        12        47     9      180.000000        0.007758         4
        10        11        12        48     9        0.000000       -0.054033         1
        10        11        12        48     9      180.000000        0.035955         2
        10        11        12        48     9        0.000000        0.191610         3
        10        11        12        48     9      180.000000        0.007758         4
        10        33        32        13     9        0.000000        6.174421         1
        10        33        32        13     9      180.000000       -3.077846         2
        10        33        32        13     9        0.000000        0.051802         3
        10        33        32        13     9      180.000000        0.168560         4
        10        33        32        31     9        0.000000        0.391636         1
        10        33        32        31     9      180.000000       -0.940534         2
        10        33        32        31     9        0.000000        0.755506         3
        10        33        32        31     9      180.000000        0.097295         4
        10        33        32        60     9        0.000000       -0.151648         1
        10        33        32        60     9      180.000000        0.237251         2
        10        33        32        60     9        0.000000        0.646178         3
        10        33        32        60     9      180.000000        0.042209         4
        11        10         9        42     9        0.000000       -0.118895         1
        11        10         9        42     9      180.000000        0.043546         2
        11        10         9        42     9        0.000000        0.622051         3
        11        10         9        42     9      180.000000        0.060551         4
        11        10         9        43     9        0.000000       -0.118895         1
        11        10         9        43     9      180.000000        0.043546         2
        11        10         9        43     9        0.000000        0.622051         3
        11        10         9        43     9      180.000000        0.060551         4
        11        10        33        32     9        0.000000        4.898133         1
        11        10        33        32     9      180.000000       -1.807775         2
        11        10        33        32     9        0.000000        0.056534         3
        11        10        33        32     9      180.000000        0.174268         4
        11        12        13        14     9        0.000000        0.255055         1
        11        12        13        14     9      180.000000       -0.425149         2
        11        12        13        14     9        0.000000        0.344590         3
        11        12        13        14     9      180.000000        0.013659         4
        11        12        13        32     9        0.000000        0.903090         1
        11        12        13        32     9      180.000000       -0.973987         2
        11        12        13        32     9        0.000000        0.111984         3
        11        12        13        32     9      180.000000        0.073388         4
        11        12        13        49     9        0.000000       -0.873614         1
        11        12        13        49     9      180.000000       -0.008973         2
        11        12        13        49     9        0.000000        0.204988         3
        11        12        13        49     9      180.000000        0.140955         4
        12        11        10        33     9        0.000000       -0.391561         1
        12        11        10        33     9      180.000000       -0.434494         2
        12        11        10        33     9        0.000000        0.210043         3
        12        11        10        33     9      180.000000        0.017026         4
        12        11        10        44     9        0.000000       -0.126507         1
        12        11        10        44     9      180.000000       -0.012558         2
        12        11        10        44     9        0.000000        0.424484         3
        12        11        10        44     9      180.000000        0.027114         4
        12        13        14        15     9        0.000000        1.303541         1
        12        13        14        15     9      180.000000       -0.496284         2
        12        13        14        15     9        0.000000        0.900889         3
        12        13        14        15     9      180.000000        0.115170         4
        12        13        14        21     9        0.000000       -1.975381         1
        12        13        14        21     9      180.000000        0.761714         2
        12        13        14        21     9        0.000000        0.324624         3
        12        13        14        21     9      180.000000       -0.110841         4
        12        13        14        50     9        0.000000       -0.246554         1
        12        13        14        50     9      180.000000        0.175431         2
        12        13        14        50     9        0.000000        0.515931         3
        12        13        14        50     9      180.000000       -0.011084         4
        12        13        32        31     9        0.000000        0.503390         1
        12        13        32        31     9      180.000000       -1.292606         2
        12        13        32        31     9        0.000000        0.330058         3
        12        13        32        31     9      180.000000        0.021548         4
        12        13        32        33     9        0.000000       -0.218538         1
        12        13        32        33     9      180.000000       -1.406467         2
        12        13        32        33     9        0.000000        0.277045         3
        12        13        32        33     9      180.000000        0.125049         4
        12        13        32        60     9        0.000000       -0.100620         1
        12        13        32        60     9      180.000000        0.200570         2
        12        13        32        60     9        0.000000        0.270608         3
        12        13        32        60     9      180.000000        0.098303         4
        13        12        11        45     9        0.000000       -0.045646         1
        13        12        11        45     9      180.000000        0.017111         2
        13        12        11        45     9        0.000000        0.182407         3
        13        12        11        45     9      180.000000        0.008350         4
        13        12        11        46     9        0.000000       -0.045646         1
        13        12        11        46     9      180.000000        0.017111         2
        13        12        11        46     9        0.000000        0.182407         3
        13        12        11        46     9      180.000000        0.008350         4
        13        14        15        16     9        0.000000       -0.353839         1
        13        14        15        16     9      180.000000       -0.104567         2
        13        14        15        16     9        0.000000        0.105252         3
        13        14        15        16     9      180.000000        0.005143         4
        13        14        15        20     9        0.000000       -0.353839         1
        13        14        15        20     9      180.000000       -0.104567         2
        13        14        15        20     9        0.000000        0.105252         3
        13        14        15        20     9      180.000000        0.005143         4
        13        14        21        22     9        0.000000        5.940338         1
        13        14        21        22     9      180.000000       -3.136762         2
        13        14        21        22     9        0.000000       -0.048298         3
        13        14        21        22     9      180.000000        0.710952         4
        13        14        21        56     9        0.000000        3.523494         1
        13        14        21        56     9      180.000000       -3.065427         2
        13        14        21        56     9        0.000000        0.126340         3
        13        14        21        56     9      180.000000        0.382838         4
        13        32        31        22     9        0.000000        4.293932         1
        13        32        31        22     9      180.000000       -3.954741         2
        13        32        31        22     9        0.000000       -0.194480         3
        13        32        31        22     9      180.000000        0.800820         4
        13        32        31        30     9        0.000000       -0.542126         1
        13        32        31        30     9      180.000000       -0.814156         2
        13        32        31        30     9        0.000000       -0.584072         3
        13        32        31        30     9      180.000000        0.236434         4
        14        13        12        47     9        0.000000       -0.011596         1
        14        13        12        47     9      180.000000        0.032133         2
        14        13        12        47     9        0.000000        0.284174         3
        14        13        12        47     9      180.000000        0.002953         4
        14        13        12        48     9        0.000000       -0.011596         1
        14        13        12        48     9      180.000000        0.032133         2
        14        13        12        48     9        0.000000        0.284174         3
        14        13        12        48     9      180.000000        0.002953         4
        14        13        32        31     9        0.000000        2.021808         1
        14        13        32        31     9      180.000000       -2.858627         2
        14        13        32        31     9        0.000000        0.020285         3
        14        13        32        31     9      180.000000        0.190166         4
        14        13        32        33     9        0.000000        0.447442         1
        14        13        32        33     9      180.000000       -3.980189         2
        14        13        32        33     9        0.000000        0.112257         3
        14        13        32        33     9      180.000000        0.415606         4
        14        13        32        60     9        0.000000       -0.420340         1
        14        13        32        60     9      180.000000        0.124945         2
        14        13        32        60     9        0.000000        0.063006         3
        14        13        32        60     9      180.000000        0.141844         4
        14        15        16        17     9        0.000000        0.090192         1
        14        15        16        17     9      180.000000       14.679497         2
        14        15        16        17     9        0.000000       -0.138716         3
        14        15        16        17     9      180.000000       -0.078603         4
        14        15        16        51     9        0.000000       -0.040954         1
        14        15        16        51     9      180.000000       12.731300         2
        14        15        16        51     9        0.000000       -0.361223         3
        14        15        16        51     9      180.000000        0.182937         4
        14        15        20        19     9        0.000000        0.090192         1
        14        15        20        19     9      180.000000       14.679497         2
        14        15        20        19     9        0.000000       -0.138716         3
        14        15        20        19     9      180.000000       -0.078603         4
        14        15        20        55     9        0.000000       -0.040954         1
        14        15        20        55     9      180.000000       12.731300         2
        14        15        20        55     9        0.000000       -0.361223         3
        14        15        20        55     9      180.000000        0.182937         4
        14        21        22        23     9        0.000000       -0.720221         1
        14        21        22        23     9      180.000000        3.224797         2
        14        21        22        23     9        0.000000        0.007484         3
        14        21        22        23     9      180.000000        0.386793         4
        14        21        22        31     9        0.000000        3.392995         1
        14        21        22        31     9      180.000000        0.902665         2
        14        21        22        31     9        0.000000       -0.216725         3
        14        21        22        31     9      180.000000        0.933904         4
        15        14        13        32     9        0.000000       -0.390744         1
        15        14        13        32     9      180.000000       -0.204484         2
        15        14        13        32     9        0.000000        0.350290         3
        15        14        13        32     9      180.000000        0.075818         4
        15        14        13        49     9        0.000000        0.044425         1
        15        14        13        49     9      180.000000       -0.036011         2
        15        14        13        49     9        0.000000        0.459679         3
        15        14        13        49     9      180.000000       -0.060270         4
        15        14        21        22     9        0.000000        1.082018         1
        15        14        21        22     9      180.000000       -0.660171         2
        15        14        21        22     9        0.000000        0.773072         3
        15        14        21        22     9      180.000000        0.092282         4
        15        14        21        56     9        0.000000        3.195029         1
        15        14        21        56     9      180.000000       -1.053801         2
        15        14        21        56     9        0.000000        0.110169         3
        15        14        21        56     9      180.000000       -0.141080         4
        15        16        17        18     9        0.000000        0.027332         1
        15        16        17        18     9      180.000000       18.735526         2
        15        16        17        18     9        0.000000       -1.491713         3
        15        16        17        18     9      180.000000       -0.406339         4
        15        16        17        52     9        0.000000        0.060410         1
        15        16        17        52     9      180.000000       14.990249         2
        15        16        17        52     9        0.000000       -0.580982         3
        15        16        17        52     9      180.000000        0.057213         4
        15        20        19        18     9        0.000000        0.027332         1
        15        20        19        18     9      180.000000       18.735526         2
        15        20        19        18     9        0.000000       -1.491713         3
        15        20        19        18     9      180.000000       -0.406339         4
        15        20        19        54     9        0.000000        0.060410         1
        15        20        19        54     9      180.000000       14.990249         2
        15        20        19        54     9        0.000000       -0.580982         3
        15        20        19        54     9      180.000000        0.057213         4
        16        15        14        21     9        0.000000       -0.070386         1
        16        15        14        21     9      180.000000        0.892704         2
        16        15        14        21     9        0.000000       -0.026553         3
        16        15        14        21     9      180.000000        0.262291         4
        16        15        14        50     9        0.000000        0.166578         1
        16        15        14        50     9      180.000000        0.665435         2
        16        15        14        50     9        0.000000        0.050777         3
        16        15        14        50     9      180.000000       -0.152664         4
        16        15        20        19     9        0.000000       -0.144446         1
        16        15        20        19     9      180.000000       19.062213         2
        16        15        20        19     9        0.000000       -1.504557         3
        16        15        20        19     9      180.000000       -0.477342         4
        16        15        20        55     9        0.000000       -0.069577         1
        16        15        20        55     9      180.000000       14.508781         2
        16        15        20        55     9        0.000000       -0.591210         3
        16        15        20        55     9      180.000000       -0.002966         4
        16        17        18        19     9        0.000000       -0.058928         1
        16        17        18        19     9      180.000000       18.660778         2
        16        17        18        19     9        0.000000       -1.621207         3
        16        17        18        19     9      180.000000       -0.382782         4
        16        17        18        53     9        0.000000        0.016777         1
        16        17        18        53     9      180.000000       14.282109         2
        16        17        18        53     9        0.000000       -0.780702         3
        16        17        18        53     9      180.000000        0.125906         4
        17        16        15        20     9        0.000000       -0.144446         1
        17        16        15        20     9      180.000000       19.062213         2
        17        16        15        20     9        0.000000       -1.504557         3
        17        16        15        20     9      180.000000       -0.477342         4
        17        18        19        20     9        0.000000       -0.058928         1
        17        18        19        20     9      180.000000       18.660778         2
        17        18        19        20     9        0.000000       -1.621207         3
        17        18        19        20     9      180.000000       -0.382782         4
        17        18        19        54     9        0.000000        0.010660         1
        17        18        19        54     9      180.000000       14.271862         2
        17        18        19        54     9        0.000000       -0.794146         3
        17        18        19        54     9      180.000000        0.157356         4
        18        17        16        51     9        0.000000        0.060923         1
        18        17        16        51     9      180.000000       14.800027         2
        18        17        16        51     9        0.000000       -0.680405         3
        18        17        16        51     9      180.000000        0.105082         4
        18        19        20        55     9        0.000000        0.060923         1
        18        19        20        55     9      180.000000       14.800027         2
        18        19        20        55     9        0.000000       -0.680405         3
        18        19        20        55     9      180.000000        0.105082         4
        19        18        17        52     9        0.000000        0.010660         1
        19        18        17        52     9      180.000000       14.271862         2
        19        18        17        52     9        0.000000       -0.794146         3
        19        18        17        52     9      180.000000        0.157356         4
        20        15        14        21     9        0.000000       -0.070386         1
        20        15        14        21     9      180.000000        0.892704         2
        20        15        14        21     9        0.000000       -0.026553         3
        20        15        14        21     9      180.000000        0.262291         4
        20        15        14        50     9        0.000000        0.166578         1
        20        15        14        50     9      180.000000        0.665435         2
        20        15        14        50     9        0.000000        0.050777         3
        20        15        14        50     9      180.000000       -0.152664         4
        20        15        16        51     9        0.000000       -0.069577         1
        20        15        16        51     9      180.000000       14.508781         2
        20        15        16        51     9        0.000000       -0.591210         3
        20        15        16        51     9      180.000000       -0.002966         4
        20        19        18        53     9        0.000000        0.016777         1
        20        19        18        53     9      180.000000       14.282109         2
        20        19        18        53     9        0.000000       -0.780702         3
        20        19        18        53     9      180.000000        0.125906         4
        21        14        13        32     9        0.000000       -0.209611         1
        21        14        13        32     9      180.000000       -1.727948         2
        21        14        13        32     9        0.000000       -0.219876         3
        21        14        13        32     9      180.000000        0.203053         4
        21        14        13        49     9        0.000000       -0.081847         1
        21        14        13        49     9      180.000000        0.009201         2
        21        14        13        49     9        0.000000        0.106304         3
        21        14        13        49     9      180.000000        0.240746         4
        21        22        23        24     9        0.000000        0.394468         1
        21        22        23        24     9      180.000000       18.736531         2
        21        22        23        24     9        0.000000        0.460433         3
        21        22        23        24     9      180.000000       -0.281804         4
        21        22        23        57     9        0.000000       -0.277982         1
        21        22        23        57     9      180.000000       15.530411         2
        21        22        23        57     9        0.000000       -0.156391         3
        21        22        23        57     9      180.000000        0.040111         4
        21        22        31        30     9        0.000000        0.175401         1
        21        22        31        30     9      180.000000       17.341016         2
        21        22        31        30     9        0.000000        0.120033         3
        21        22        31        30     9      180.000000       -0.597496         4
        21        22        31        32     9        0.000000       -0.124379         1
        21        22        31        32     9      180.000000       15.923271         2
        21        22        31        32     9        0.000000        0.400657         3
        21        22        31        32     9      180.000000       -0.553014         4
        22        21        14        50     9        0.000000       -0.112048         1
        22        21        14        50     9      180.000000       -0.155155         2
        22        21        14        50     9        0.000000        0.621816         3
        22        21        14        50     9      180.000000       -0.029643         4
        22        23        24        25     9        0.000000        0.055675         1
        22        23        24        25     9      180.000000       18.406921         2
        22        23        24        25     9        0.000000       -1.912952         3
        22        23        24        25     9      180.000000       -0.412704         4
        22        23        24        58     9        0.000000        0.076473         1
        22        23        24        58     9      180.000000       14.070312         2
        22        23        24        58     9        0.000000       -0.680251         3
        22        23        24        58     9      180.000000        0.120126         4
        22        31        30        25     9        0.000000       -0.001933         1
        22        31        30        25     9      180.000000       18.915734         2
        22        31        30        25     9        0.000000       -1.767628         3
        22        31        30        25     9      180.000000       -0.421815         4
        22        31        30        59     9        0.000000        0.151073         1
        22        31        30        59     9      180.000000       14.320046         2
        22        31        30        59     9        0.000000       -0.365312         3
        22        31        30        59     9      180.000000        0.114163         4
        22        31        32        33     9        0.000000       -4.670944         1
        22        31        32        33     9      180.000000       -1.313536         2
        22        31        32        33     9        0.000000        0.675085         3
        22        31        32        33     9      180.000000       -0.209039         4
        22        31        32        60     9        0.000000       -0.042145         1
        22        31        32        60     9      180.000000        0.399596         2
        22        31        32        60     9        0.000000        0.152654         3
        22        31        32        60     9      180.000000        0.034748         4
        23        22        21        56     9        0.000000       -0.833285         1
        23        22        21        56     9      180.000000        4.468193         2
        23        22        21        56     9        0.000000        0.018400         3
        23        22        21        56     9      180.000000        0.261817         4
        23        22        31        30     9        0.000000        0.026765         1
        23        22        31        30     9      180.000000       14.737099         2
        23        22        31        30     9        0.000000       -0.705376         3
        23        22        31        30     9      180.000000       -0.274300         4
        23        22        31        32     9        0.000000        0.000280         1
        23        22        31        32     9      180.000000       12.297920         2
        23        22        31        32     9        0.000000       -0.225538         3
        23        22        31        32     9      180.000000       -0.094193         4
        23        24        25        26     9        0.000000        0.032550         1
        23        24        25        26     9      180.000000       14.438455         2
        23        24        25        26     9        0.000000       -0.070405         3
        23        24        25        26     9      180.000000       -0.263928         4
        23        24        25        30     9        0.000000       -0.087046         1
        23        24        25        30     9      180.000000       18.415396         2
        23        24        25        30     9        0.000000       -1.600674         3
        23        24        25        30     9      180.000000       -0.395144         4
        24        23        22        31     9        0.000000        0.031509         1
        24        23        22        31     9      180.000000       16.807129         2
        24        23        22        31     9        0.000000       -0.691304         3
        24        23        22        31     9      180.000000       -0.383093         4
        24        25        26        27     9        0.000000       -0.000026         1
        24        25        26        27     9      180.000000        0.048574         2
        24        25        26        27     9        0.000000        0.186873         3
        24        25        26        27     9      180.000000        0.032348         4
        24        25        26        28     9        0.000000       -0.000026         1
        24        25        26        28     9      180.000000        0.048574         2
        24        25        26        28     9        0.000000        0.186873         3
        24        25        26        28     9      180.000000        0.032348         4
        24        25        26        29     9        0.000000       -0.000026         1
        24        25        26        29     9      180.000000        0.048574         2
        24        25        26        29     9        0.000000        0.186873         3
        24        25        26        29     9      180.000000        0.032348         4
        24        25        30        31     9        0.000000       -0.011174         1
        24        25        30        31     9      180.000000       17.759799         2
        24        25        30        31     9        0.000000       -1.674413         3
        24        25        30        31     9      180.000000       -0.400159         4
        24        25        30        59     9        0.000000        0.124949         1
        24        25        30        59     9      180.000000       14.034475         2
        24        25        30        59     9        0.000000       -0.702800         3
        24        25        30        59     9      180.000000        0.060916         4
        25        24        23        57     9        0.000000        0.072241         1
        25        24        23        57     9      180.000000       15.427600         2
        25        24        23        57     9        0.000000       -0.713637         3
        25        24        23        57     9      180.000000        0.090772         4
        25        30        31        32     9        0.000000       -0.047648         1
        25        30        31        32     9      180.000000       17.449491         2
        25        30        31        32     9        0.000000       -0.523160         3
        25        30        31        32     9      180.000000       -0.431148         4
        26        25        24        58     9        0.000000        0.122363         1
        26        25        24        58     9      180.000000       11.493078         2
        26        25        24        58     9        0.000000       -0.272450         3
        26        25        24        58     9      180.000000        0.132038         4
        26        25        30        31     9        0.000000        0.031312         1
        26        25        30        31     9      180.000000       14.343546         2
        26        25        30        31     9        0.000000       -0.113217         3
        26        25        30        31     9      180.000000       -0.321206         4
        26        25        30        59     9        0.000000        0.021233         1
        26        25        30        59     9      180.000000       11.255695         2
        26        25        30        59     9        0.000000       -0.353476         3
        26        25        30        59     9      180.000000        0.163687         4
        27        26        25        30     9        0.000000       -0.028912         1
        27        26        25        30     9      180.000000        0.059371         2
        27        26        25        30     9        0.000000        0.082074         3
        27        26        25        30     9      180.000000        0.049959         4
        28        26        25        30     9        0.000000       -0.028912         1
        28        26        25        30     9      180.000000        0.059371         2
        28        26        25        30     9        0.000000        0.082074         3
        28        26        25        30     9      180.000000        0.049959         4
        29        26        25        30     9        0.000000       -0.028912         1
        29        26        25        30     9      180.000000        0.059371         2
        29        26        25        30     9        0.000000        0.082074         3
        29        26        25        30     9      180.000000        0.049959         4
        30        25        24        58     9        0.000000        0.163703         1
        30        25        24        58     9      180.000000       13.957222         2
        30        25        24        58     9        0.000000       -0.633766         3
        30        25        24        58     9      180.000000        0.029795         4
        30        31        32        33     9        0.000000       -0.385269         1
        30        31        32        33     9      180.000000        0.393233         2
        30        31        32        33     9        0.000000       -0.826291         3
        30        31        32        33     9      180.000000        0.172179         4
        30        31        32        60     9        0.000000       -0.085745         1
        30        31        32        60     9      180.000000       -0.041453         2
        30        31        32        60     9        0.000000       -0.645758         3
        30        31        32        60     9      180.000000        0.017658         4
        31        22        21        56     9        0.000000        5.986842         1
        31        22        21        56     9      180.000000        4.005795         2
        31        22        21        56     9        0.000000       -0.592975         3
        31        22        21        56     9      180.000000        0.382814         4
        31        22        23        57     9        0.000000        0.020995         1
        31        22        23        57     9      180.000000       12.789966         2
        31        22        23        57     9        0.000000       -0.209460         3
        31        22        23        57     9      180.000000        0.003016         4
        31        32        13        49     9        0.000000       -0.117974         1
        31        32        13        49     9      180.000000        0.034287         2
        31        32        13        49     9        0.000000        0.112251         3
        31        32        13        49     9      180.000000        0.233113         4
        32        13        12        47     9        0.000000       -0.118216         1
        32        13        12        47     9      180.000000        0.073215         2
        32        13        12        47     9        0.000000        0.150839         3
        32        13        12        47     9      180.000000        0.036023         4
        32        13        12        48     9        0.000000       -0.118216         1
        32        13        12        48     9      180.000000        0.073215         2
        32        13        12        48     9        0.000000        0.150839         3
        32        13        12        48     9      180.000000        0.036023         4
        32        13        14        50     9        0.000000       -0.125299         1
        32        13        14        50     9      180.000000       -0.032753         2
        32        13        14        50     9        0.000000        0.097338         3
        32        13        14        50     9      180.000000        0.143144         4
        32        31        30        59     9        0.000000       -0.033193         1
        32        31        30        59     9      180.000000       12.826043         2
        32        31        30        59     9        0.000000       -0.343923         3
        32        31        30        59     9      180.000000        0.168412         4
        32        33        10        44     9        0.000000       -0.251003         1
        32        33        10        44     9      180.000000        0.030202         2
        32        33        10        44     9        0.000000        0.379246         3
        32        33        10        44     9      180.000000        0.049495         4
        33        10         9        42     9        0.000000        0.003585         1
        33        10         9        42     9      180.000000       -0.000650         2
        33        10         9        42     9        0.000000        0.525366         3
        33        10         9        42     9      180.000000        0.038201         4
        33        10         9        43     9        0.000000        0.003585         1
        33        10         9        43     9      180.000000       -0.000650         2
        33        10         9        43     9        0.000000        0.525366         3
        33        10         9        43     9      180.000000        0.038201         4
        33        10        11        45     9        0.000000       -0.071296         1
        33        10        11        45     9      180.000000        0.007226         2
        33        10        11        45     9        0.000000        0.211338         3
        33        10        11        45     9      180.000000        0.005563         4
        33        10        11        46     9        0.000000       -0.071296         1
        33        10        11        46     9      180.000000        0.007226         2
        33        10        11        46     9        0.000000        0.211338         3
        33        10        11        46     9      180.000000        0.005563         4
        33        32        13        49     9        0.000000       -0.494862         1
        33        32        13        49     9      180.000000        0.189831         2
        33        32        13        49     9        0.000000        0.022155         3
        33        32        13        49     9      180.000000        0.222923         4
        34         1         2        61     9        0.000000        0.066544         1
        34         1         2        61     9      180.000000       -0.123734         2
        34         1         2        61     9        0.000000        0.040883         3
        34         1         2        61     9      180.000000       -0.079503         4
        35         1         2        61     9        0.000000        0.066544         1
        35         1         2        61     9      180.000000       -0.123734         2
        35         1         2        61     9        0.000000        0.040883         3
        35         1         2        61     9      180.000000       -0.079503         4
        36         1         2        61     9        0.000000        0.066544         1
        36         1         2        61     9      180.000000       -0.123734         2
        36         1         2        61     9        0.000000        0.040883         3
        36         1         2        61     9      180.000000       -0.079503         4
        37         3         2        61     9        0.000000        0.080338         1
        37         3         2        61     9      180.000000        0.073921         2
        37         3         2        61     9        0.000000       -0.717843         3
        37         3         2        61     9      180.000000       -0.065609         4
        37         3         4        39     9        0.000000       -0.208226         1
        37         3         4        39     9      180.000000        0.044707         2
        37         3         4        39     9        0.000000        0.663615         3
        37         3         4        39     9      180.000000       -0.005047         4
        37         3         4        40     9        0.000000       -0.208226         1
        37         3         4        40     9      180.000000        0.044707         2
        37         3         4        40     9        0.000000        0.663615         3
        37         3         4        40     9      180.000000       -0.005047         4
        38         3         2        61     9        0.000000        0.080338         1
        38         3         2        61     9      180.000000        0.073921         2
        38         3         2        61     9        0.000000       -0.717843         3
        38         3         2        61     9      180.000000       -0.065609         4
        38         3         4        39     9        0.000000       -0.208226         1
        38         3         4        39     9      180.000000        0.044707         2
        38         3         4        39     9        0.000000        0.663615         3
        38         3         4        39     9      180.000000       -0.005047         4
        38         3         4        40     9        0.000000       -0.208226         1
        38         3         4        40     9      180.000000        0.044707         2
        38         3         4        40     9        0.000000        0.663615         3
        38         3         4        40     9      180.000000       -0.005047         4
        41         8         9        42     9        0.000000       -0.030596         1
        41         8         9        42     9      180.000000       -0.062862         2
        41         8         9        42     9        0.000000        0.269804         3
        41         8         9        42     9      180.000000        0.109937         4
        41         8         9        43     9        0.000000       -0.030596         1
        41         8         9        43     9      180.000000       -0.062862         2
        41         8         9        43     9        0.000000        0.269804         3
        41         8         9        43     9      180.000000        0.109937         4
        42         9        10        44     9        0.000000       -0.070481         1
        42         9        10        44     9      180.000000        0.015541         2
        42         9        10        44     9        0.000000        0.710971         3
        42         9        10        44     9      180.000000       -0.050506         4
        43         9        10        44     9        0.000000       -0.070481         1
        43         9        10        44     9      180.000000        0.015541         2
        43         9        10        44     9        0.000000        0.710971         3
        43         9        10        44     9      180.000000       -0.050506         4
        44        10        11        45     9        0.000000        0.014150         1
        44        10        11        45     9      180.000000       -0.018802         2
        44        10        11        45     9        0.000000        0.460944         3
        44        10        11        45     9      180.000000       -0.049636         4
        44        10        11        46     9        0.000000        0.014150         1
        44        10        11        46     9      180.000000       -0.018802         2
        44        10        11        46     9        0.000000        0.460944         3
        44        10        11        46     9      180.000000       -0.049636         4
        45        11        12        47     9        0.000000        0.002684         1
        45        11        12        47     9      180.000000       -0.017611         2
        45        11        12        47     9        0.000000        0.282926         3
        45        11        12        47     9      180.000000        0.007699         4
        45        11        12        48     9        0.000000        0.002684         1
        45        11        12        48     9      180.000000       -0.017611         2
        45        11        12        48     9        0.000000        0.282926         3
        45        11        12        48     9      180.000000        0.007699         4
        46        11        12        47     9        0.000000        0.002684         1
        46        11        12        47     9      180.000000       -0.017611         2
        46        11        12        47     9        0.000000        0.282926         3
        46        11        12        47     9      180.000000        0.007699         4
        46        11        12        48     9        0.000000        0.002684         1
        46        11        12        48     9      180.000000       -0.017611         2
        46        11        12        48     9        0.000000        0.282926         3
        46        11        12        48     9      180.000000        0.007699         4
        47        12        13        49     9        0.000000        0.307712         1
        47        12        13        49     9      180.000000        0.073108         2
        47        12        13        49     9        0.000000        0.368973         3
        47        12        13        49     9      180.000000       -0.053939         4
        48        12        13        49     9        0.000000        0.307712         1
        48        12        13        49     9      180.000000        0.073108         2
        48        12        13        49     9        0.000000        0.368973         3
        48        12        13        49     9      180.000000       -0.053939         4
        49        13        14        50     9        0.000000        0.589952         1
        49        13        14        50     9      180.000000        0.106993         2
        49        13        14        50     9        0.000000        0.459468         3
        49        13        14        50     9      180.000000       -0.274357         4
        49        13        32        60     9        0.000000        0.101714         1
        49        13        32        60     9      180.000000        0.049917         2
        49        13        32        60     9        0.000000        0.246326         3
        49        13        32        60     9      180.000000       -0.118901         4
        50        14        21        56     9        0.000000       -0.890253         1
        50        14        21        56     9      180.000000       -0.260122         2
        50        14        21        56     9        0.000000        0.459100         3
        50        14        21        56     9      180.000000       -0.171435         4
        51        16        17        52     9        0.000000       -0.180341         1
        51        16        17        52     9      180.000000       11.789161         2
        51        16        17        52     9        0.000000       -0.659630         3
        51        16        17        52     9      180.000000        0.310085         4
        52        17        18        53     9        0.000000       -0.084557         1
        52        17        18        53     9      180.000000       11.520938         2
        52        17        18        53     9        0.000000       -0.587926         3
        52        17        18        53     9      180.000000        0.263272         4
        53        18        19        54     9        0.000000       -0.084557         1
        53        18        19        54     9      180.000000       11.520938         2
        53        18        19        54     9        0.000000       -0.587926         3
        53        18        19        54     9      180.000000        0.263272         4
        54        19        20        55     9        0.000000       -0.180341         1
        54        19        20        55     9      180.000000       11.789161         2
        54        19        20        55     9        0.000000       -0.659630         3
        54        19        20        55     9      180.000000        0.310085         4
        57        23        24        58     9        0.000000       -0.149691         1
        57        23        24        58     9      180.000000       12.317767         2
        57        23        24        58     9        0.000000       -0.778015         3
        57        23        24        58     9      180.000000        0.331038         4

[ dihedrals ] ; impropers
;       ai        aj        ak        al funct           phase               k        pn
        16        15        17        51     4      180.000000        0.182436         2
        16        17        51        15     4      180.000000        0.182436         2
        16        51        15        17     4      180.000000        0.182436         2
        17        16        18        52     4      180.000000        0.258179         2
        17        18        52        16     4      180.000000        0.258179         2
        17        52        16        18     4      180.000000        0.258179         2
        18        17        19        53     4      180.000000        0.333131         2
        18        19        53        17     4      180.000000        0.333131         2
        18        53        17        19     4      180.000000        0.333131         2
        19        18        20        54     4      180.000000        0.258179         2
        19        20        54        18     4      180.000000        0.258179         2
        19        54        18        20     4      180.000000        0.258179         2
        20        15        19        55     4      180.000000        0.182436         2
        20        19        55        15     4      180.000000        0.182436         2
        20        55        15        19     4      180.000000        0.182436         2

[ pairs ]
;       ai        aj funct
         1         4     1
         1        37     1
         1        38     1
         2         5     1
         2        39     1
         2        40     1
         3         6     1
         3         7     1
         3         8     1
         3        34     1
         3        35     1
         3        36     1
         4         9     1
         4        41     1
         4        61     1
         5        10     1
         5        37     1
         5        38     1
         5        42     1
         5        43     1
         6         9     1
         6        39     1
         6        40     1
         6        41     1
         7         9     1
         7        39     1
         7        40     1
         7        41     1
         8        11     1
         8        33     1
         8        39     1
         8        40     1
         8        44     1
         9        12     1
         9        32     1
         9        45     1
         9        46     1
        10        13     1
        10        31     1
        10        41     1
        10        47     1
        10        48     1
        10        60     1
        11        14     1
        11        32     1
        11        42     1
        11        43     1
        11        49     1
        12        15     1
        12        21     1
        12        31     1
        12        33     1
        12        44     1
        12        50     1
        12        60     1
        13        16     1
        13        20     1
        13        22     1
        13        30     1
        13        45     1
        13        46     1
        13        56     1
        14        17     1
        14        19     1
        14        23     1
        14        31     1
        14        33     1
        14        47     1
        14        48     1
        14        51     1
        14        55     1
        14        60     1
        15        18     1
        15        22     1
        15        32     1
        15        49     1
        15        52     1
        15        54     1
        15        56     1
        16        19     1
        16        21     1
        16        50     1
        16        53     1
        16        55     1
        17        20     1
        17        54     1
        18        51     1
        18        55     1
        19        52     1
        20        21     1
        20        50     1
        20        51     1
        20        53     1
        21        24     1
        21        30     1
        21        32     1
        21        49     1
        21        57     1
        22        25     1
        22        33     1
        22        50     1
        22        58     1
        22        59     1
        22        60     1
        23        26     1
        23        30     1
        23        32     1
        23        56     1
        24        27     1
        24        28     1
        24        29     1
        24        31     1
        24        59     1
        25        32     1
        25        57     1
        26        31     1
        26        58     1
        26        59     1
        27        30     1
        28        30     1
        29        30     1
        30        33     1
        30        58     1
        30        60     1
        31        49     1
        31        56     1
        31        57     1
        32        44     1
        32        47     1
        32        48     1
        32        50     1
        32        59     1
        33        42     1
        33        43     1
        33        45     1
        33        46     1
        33        49     1
        34        61     1
        35        61     1
        36        61     1
        37        39     1
        37        40     1
        37        61     1
        38        39     1
        38        40     1
        38        61     1
        41        42     1
        41        43     1
        42        44     1
        43        44     1
        44        45     1
        44        46     1
        45        47     1
        45        48     1
        46        47     1
        46        48     1
        47        49     1
        48        49     1
        49        50     1
        49        60     1
        50        56     1
        51        52     1
        52        53     1
        53        54     1
        54        55     1
        57        58     1
