; ITP file created by ByteFF-ML, 2026-02-21 07:39:00.949646

[ atomtypes ]
;name           bonded.type        at.num        mass        charge   ptype           sigma         epsilon
 c0bf                                   6      0.0000       0.00000       A     3.39772e-01     4.50374e-01
 c1bf                                   6      0.0000       0.00000       A     3.39867e-01     4.54082e-01
 c2bf                                   6      0.0000       0.00000       A     3.39772e-01     4.50374e-01
 c3bf                                   6      0.0000       0.00000       A     3.39772e-01     4.50374e-01
 c4bf                                   6      0.0000       0.00000       A     3.31513e-01     4.12293e-01
 c5bf                                   6      0.0000       0.00000       A     3.31494e-01     4.12775e-01
 c6bf                                   6      0.0000       0.00000       A     3.31495e-01     4.14234e-01
 c7bf                                   6      0.0000       0.00000       A     3.31454e-01     4.11042e-01
 c8bf                                   6      0.0000       0.00000       A     3.31296e-01     4.09623e-01
 c9bf                                   6      0.0000       0.00000       A     3.31271e-01     4.12345e-01
 c10bf                                  6      0.0000       0.00000       A     3.39728e-01     4.52323e-01
 o11bf                                  8      0.0000       0.00000       A     3.15787e-01     3.02296e-01
 c12bf                                  6      0.0000       0.00000       A     3.39725e-01     4.51957e-01
 c13bf                                  6      0.0000       0.00000       A     3.39741e-01     4.51506e-01
 c14bf                                  6      0.0000       0.00000       A     3.39888e-01     4.51445e-01
 c15bf                                  6      0.0000       0.00000       A     3.40224e-01     4.50974e-01
 c16bf                                  6      0.0000       0.00000       A     3.39362e-01     4.50344e-01
 c17bf                                  6      0.0000       0.00000       A     3.31416e-01     4.11566e-01
 c18bf                                  6      0.0000       0.00000       A     3.31559e-01     4.13032e-01
 c19bf                                  6      0.0000       0.00000       A     3.31517e-01     4.13352e-01
 c20bf                                  6      0.0000       0.00000       A     3.31506e-01     4.12857e-01
 c21bf                                  6      0.0000       0.00000       A     3.31517e-01     4.13352e-01
 c22bf                                  6      0.0000       0.00000       A     3.31559e-01     4.13032e-01
 n23bf                                  7      0.0000       0.00000       A     3.28286e-01     6.41163e-01
 h24bf                                  1      0.0000       0.00000       A     2.59968e-01     8.75795e-02
 h25bf                                  1      0.0000       0.00000       A     2.59968e-01     8.75795e-02
 h26bf                                  1      0.0000       0.00000       A     2.59968e-01     8.75795e-02
 h27bf                                  1      0.0000       0.00000       A     2.59968e-01     8.75795e-02
 h28bf                                  1      0.0000       0.00000       A     2.59968e-01     8.75795e-02
 h29bf                                  1      0.0000       0.00000       A     2.59968e-01     8.75795e-02
 h30bf                                  1      0.0000       0.00000       A     2.59968e-01     8.75795e-02
 h31bf                                  1      0.0000       0.00000       A     2.59968e-01     8.75795e-02
 h32bf                                  1      0.0000       0.00000       A     2.59968e-01     8.75795e-02
 h33bf                                  1      0.0000       0.00000       A     2.62486e-01     6.76526e-02
 h34bf                                  1      0.0000       0.00000       A     2.62406e-01     6.70142e-02
 h35bf                                  1      0.0000       0.00000       A     2.62333e-01     6.71626e-02
 h36bf                                  1      0.0000       0.00000       A     2.42784e-01     8.90383e-02
 h37bf                                  1      0.0000       0.00000       A     2.42137e-01     8.75316e-02
 h38bf                                  1      0.0000       0.00000       A     2.42137e-01     8.75316e-02
 h39bf                                  1      0.0000       0.00000       A     2.60214e-01     8.73226e-02
 h40bf                                  1      0.0000       0.00000       A     2.60214e-01     8.73226e-02
 h41bf                                  1      0.0000       0.00000       A     2.60011e-01     8.65931e-02
 h42bf                                  1      0.0000       0.00000       A     2.60011e-01     8.65931e-02
 h43bf                                  1      0.0000       0.00000       A     2.59608e-01     8.66043e-02
 h44bf                                  1      0.0000       0.00000       A     2.42675e-01     8.80520e-02
 h45bf                                  1      0.0000       0.00000       A     2.62512e-01     6.76287e-02
 h46bf                                  1      0.0000       0.00000       A     2.62458e-01     6.72647e-02
 h47bf                                  1      0.0000       0.00000       A     2.62457e-01     6.73477e-02
 h48bf                                  1      0.0000       0.00000       A     2.62458e-01     6.72647e-02
 h49bf                                  1      0.0000       0.00000       A     2.62512e-01     6.76287e-02
 h50bf                                  1      0.0000       0.00000       A     1.10887e-01     4.11451e-02

[ moleculetype ]
;name             nrexcl
 CHEMBL1089056         3

[ atoms ]
;       nr            type      resi   res      atom      cgnr      charge          mass ; qtot
         1            c0bf         1   UNL        c0         1    -0.08750       12.0110 ; qtot   -0.087
         2            c1bf         1   UNL        c1         2     0.00063       12.0110 ; qtot   -0.087
         3            c2bf         1   UNL        c2         3    -0.08750       12.0110 ; qtot   -0.174
         4            c3bf         1   UNL        c3         4    -0.08750       12.0110 ; qtot   -0.262
         5            c4bf         1   UNL        c4         5    -0.10900       12.0110 ; qtot   -0.371
         6            c5bf         1   UNL        c5         6    -0.07284       12.0110 ; qtot   -0.444
         7            c6bf         1   UNL        c6         7    -0.17114       12.0110 ; qtot   -0.615
         8            c7bf         1   UNL        c7         8     0.28943       12.0110 ; qtot   -0.325
         9            c8bf         1   UNL        c8         9    -0.15575       12.0110 ; qtot   -0.481
        10            c9bf         1   UNL        c9        10    -0.05255       12.0110 ; qtot   -0.534
        11           c10bf         1   UNL       c10        11     0.22487       12.0110 ; qtot   -0.309
        12           o11bf         1   UNL       o11        12    -0.45639       15.9990 ; qtot   -0.765
        13           c12bf         1   UNL       c12        13     0.15360       12.0110 ; qtot   -0.612
        14           c13bf         1   UNL       c13        14    -0.11007       12.0110 ; qtot   -0.722
        15           c14bf         1   UNL       c14        15    -0.06818       12.0110 ; qtot   -0.790
        16           c15bf         1   UNL       c15        16    -0.09823       12.0110 ; qtot   -0.888
        17           c16bf         1   UNL       c16        17     0.26126       12.0110 ; qtot   -0.627
        18           c17bf         1   UNL       c17        18    -0.10768       12.0110 ; qtot   -0.735
        19           c18bf         1   UNL       c18        19    -0.09640       12.0110 ; qtot   -0.831
        20           c19bf         1   UNL       c19        20    -0.11334       12.0110 ; qtot   -0.944
        21           c20bf         1   UNL       c20        21    -0.10684       12.0110 ; qtot   -1.051
        22           c21bf         1   UNL       c21        22    -0.11334       12.0110 ; qtot   -1.164
        23           c22bf         1   UNL       c22        23    -0.09640       12.0110 ; qtot   -1.261
        24           n23bf         1   UNL       n23        24    -0.92305       14.0070 ; qtot   -2.184
        25           h24bf         1   UNL       h24        25     0.03657        1.0080 ; qtot   -2.147
        26           h25bf         1   UNL       h25        26     0.03657        1.0080 ; qtot   -2.111
        27           h26bf         1   UNL       h26        27     0.03657        1.0080 ; qtot   -2.074
        28           h27bf         1   UNL       h27        28     0.03657        1.0080 ; qtot   -2.038
        29           h28bf         1   UNL       h28        29     0.03657        1.0080 ; qtot   -2.001
        30           h29bf         1   UNL       h29        30     0.03657        1.0080 ; qtot   -1.964
        31           h30bf         1   UNL       h30        31     0.03657        1.0080 ; qtot   -1.928
        32           h31bf         1   UNL       h31        32     0.03657        1.0080 ; qtot   -1.891
        33           h32bf         1   UNL       h32        33     0.03657        1.0080 ; qtot   -1.855
        34           h33bf         1   UNL       h33        34     0.11563        1.0080 ; qtot   -1.739
        35           h34bf         1   UNL       h34        35     0.11606        1.0080 ; qtot   -1.623
        36           h35bf         1   UNL       h35        36     0.11995        1.0080 ; qtot   -1.503
        37           h36bf         1   UNL       h36        37     0.05487        1.0080 ; qtot   -1.448
        38           h37bf         1   UNL       h37        38     0.04701        1.0080 ; qtot   -1.401
        39           h38bf         1   UNL       h38        39     0.04701        1.0080 ; qtot   -1.354
        40           h39bf         1   UNL       h39        40     0.04954        1.0080 ; qtot   -1.305
        41           h40bf         1   UNL       h40        41     0.04954        1.0080 ; qtot   -1.255
        42           h41bf         1   UNL       h41        42     0.04810        1.0080 ; qtot   -1.207
        43           h42bf         1   UNL       h42        43     0.04810        1.0080 ; qtot   -1.159
        44           h43bf         1   UNL       h43        44     0.06789        1.0080 ; qtot   -1.091
        45           h44bf         1   UNL       h44        45     0.05590        1.0080 ; qtot   -1.035
        46           h45bf         1   UNL       h45        46     0.11749        1.0080 ; qtot   -0.918
        47           h46bf         1   UNL       h46        47     0.11433        1.0080 ; qtot   -0.803
        48           h47bf         1   UNL       h47        48     0.11376        1.0080 ; qtot   -0.690
        49           h48bf         1   UNL       h48        49     0.11433        1.0080 ; qtot   -0.575
        50           h49bf         1   UNL       h49        50     0.11749        1.0080 ; qtot   -0.458
        51           h50bf         1   UNL       h50        51     0.45778        1.0080 ; qtot    0.000

[ bonds ]
;       ai        aj funct               r               k
         1         2     1        0.154414   170954.552441
         1        25     1        0.109415   298687.904785
         1        26     1        0.109415   298687.904785
         1        27     1        0.109415   298687.904785
         2         3     1        0.154414   170954.552441
         2         4     1        0.154414   170954.552441
         2         5     1        0.153459   164414.179517
         3        28     1        0.109415   298687.904785
         3        29     1        0.109415   298687.904785
         3        30     1        0.109415   298687.904785
         4        31     1        0.109415   298687.904785
         4        32     1        0.109415   298687.904785
         4        33     1        0.109415   298687.904785
         5         6     1        0.140490   282236.796777
         5        10     1        0.140242   281430.079492
         6         7     1        0.139232   329254.803223
         6        34     1        0.108572   318246.879004
         7         8     1        0.140519   280318.270361
         7        35     1        0.108692   314821.944043
         8         9     1        0.140983   267526.298145
         8        24     1        0.140120   267840.302441
         9        10     1        0.139690   302459.020801
         9        11     1        0.151176   191189.736548
        10        36     1        0.108557   317207.952783
        11        12     1        0.143550   180918.136572
        11        16     1        0.153825   166667.969873
        11        37     1        0.110060   278479.266504
        12        13     1        0.143239   192866.183936
        13        14     1        0.153236   183760.135938
        13        38     1        0.109612   292242.721436
        13        39     1        0.109612   292242.721436
        14        15     1        0.153739   183841.892993
        14        40     1        0.109516   296518.655029
        14        41     1        0.109516   296518.655029
        15        16     1        0.153769   176136.695898
        15        42     1        0.109484   296390.177832
        15        43     1        0.109484   296390.177832
        16        17     1        0.154249   162484.684912
        16        44     1        0.109656   296483.005225
        17        18     1        0.152011   180470.777490
        17        24     1        0.146639   193821.578271
        17        45     1        0.109903   282326.764014
        18        19     1        0.140235   288447.626074
        18        23     1        0.140235   288447.626074
        19        20     1        0.139815   313021.067090
        19        46     1        0.108668   316228.272656
        20        21     1        0.139918   306554.100586
        20        47     1        0.108647   318864.672754
        21        22     1        0.139918   306554.100586
        21        48     1        0.108625   319984.423926
        22        23     1        0.139815   313021.067090
        22        49     1        0.108647   318864.672754
        23        50     1        0.108668   316228.272656
        24        51     1        0.101355   410549.688281

[ angles ]
;       ai        aj        ak funct           theta             cth
         1         2         3     1      108.597389      558.465108
         1         2         4     1      108.597389      558.465108
         1         2         5     1      110.375267      651.238681
         2         1        25     1      111.037216      474.616371
         2         1        26     1      111.037216      474.616371
         2         1        27     1      111.037216      474.616435
         2         3        28     1      111.037216      474.616435
         2         3        29     1      111.037216      474.616435
         2         3        30     1      111.037216      474.616435
         2         4        31     1      111.037216      474.616435
         2         4        32     1      111.037216      474.616435
         2         4        33     1      111.037216      474.616435
         2         5         6     1      121.634232      520.072937
         2         5        10     1      121.651917      457.842736
         3         2         4     1      108.597389      558.465108
         3         2         5     1      110.375267      651.238681
         4         2         5     1      110.375267      651.238681
         5         6         7     1      121.554367      682.328132
         5         6        34     1      119.969864      408.296530
         5        10         9     1      122.767883      676.762702
         5        10        36     1      119.777512      396.482106
         6         5        10     1      116.841629      645.210391
         6         7         8     1      120.841492      766.110728
         6         7        35     1      119.752075      440.364053
         7         6        34     1      118.573975      426.395765
         7         8         9     1      118.739220      649.581195
         7         8        24     1      120.154091      539.485098
         8         7        35     1      119.252686      422.216681
         8         9        10     1      119.146629      766.119474
         8         9        11     1      120.117088      556.339782
         8        24        17     1      118.392113      536.379083
         8        24        51     1      113.638138      488.208051
         9         8        24     1      120.459511      574.804580
         9        10        36     1      117.888382      404.471550
         9        11        12     1      109.823265      642.923542
         9        11        16     1      112.012329      576.810392
         9        11        37     1      108.654198      462.147207
        10         9        11     1      120.650597      471.952340
        11        12        13     1      112.658241      607.273674
        11        16        15     1      110.105003      606.743970
        11        16        17     1      109.540939      676.731739
        11        16        44     1      107.208214      503.533891
        12        11        16     1      111.133713      584.398170
        12        11        37     1      107.123779      472.293611
        12        13        14     1      111.778992      604.880655
        12        13        38     1      107.407181      487.184396
        12        13        39     1      107.407181      487.184396
        13        14        15     1      110.190475      650.990205
        13        14        40     1      109.426193      501.313982
        13        14        41     1      109.426193      501.313982
        14        13        38     1      110.939331      481.591130
        14        13        39     1      110.939331      481.591162
        14        15        16     1      110.515076      629.788658
        14        15        42     1      110.010902      497.900661
        14        15        43     1      110.010902      497.900661
        15        14        40     1      110.377014      506.891032
        15        14        41     1      110.377014      506.891032
        15        16        17     1      113.380211      594.274966
        15        16        44     1      108.744408      484.153396
        16        11        37     1      108.280960      469.625143
        16        15        42     1      109.587547      497.756408
        16        15        43     1      109.587547      497.756408
        16        17        18     1      112.838112      537.582392
        16        17        24     1      108.700279      594.829441
        16        17        45     1      107.215530      478.678368
        17        16        44     1      107.083603      494.931461
        17        18        19     1      120.675819      480.145730
        17        18        23     1      120.675819      480.145730
        17        24        51     1      113.211632      469.750690
        18        17        24     1      111.192749      590.960760
        18        17        45     1      107.631065      485.386711
        18        19        20     1      120.662560      709.918234
        18        19        46     1      119.614578      400.532004
        18        23        22     1      120.662560      709.918234
        18        23        50     1      119.614578      400.532004
        19        18        23     1      118.740906      679.590873
        19        20        21     1      120.153175      705.714570
        19        20        47     1      119.816528      429.696915
        20        19        46     1      119.686012      431.264766
        20        21        22     1      119.511429      689.005895
        20        21        48     1      120.255783      430.416551
        21        20        47     1      120.079079      431.521669
        21        22        23     1      120.153175      705.714570
        21        22        49     1      120.079079      431.521669
        22        21        48     1      120.255783      430.416551
        22        23        50     1      119.686012      431.264766
        23        22        49     1      119.816528      429.696915
        24        17        45     1      109.216263      441.919263
        25         1        26     1      107.883362      362.487840
        25         1        27     1      107.883362      362.487776
        26         1        27     1      107.883362      362.487776
        28         3        29     1      107.883362      362.487840
        28         3        30     1      107.883362      362.487840
        29         3        30     1      107.883362      362.487840
        31         4        32     1      107.883362      362.487840
        31         4        33     1      107.883362      362.487840
        32         4        33     1      107.883377      362.487840
        38        13        39     1      107.938248      342.346339
        40        14        41     1      107.040810      361.114550
        42        15        43     1      106.573685      361.821577

[ dihedrals ] ; propers for gromacs 4.5 or higher, use funct 9
;       ai        aj        ak        al funct           phase               k        pn
         1         2         3        28     9        0.000000       -0.087544         1
         1         2         3        28     9      180.000000        0.034291         2
         1         2         3        28     9        0.000000        0.537560         3
         1         2         3        28     9      180.000000        0.036946         4
         1         2         3        29     9        0.000000       -0.087544         1
         1         2         3        29     9      180.000000        0.034291         2
         1         2         3        29     9        0.000000        0.537560         3
         1         2         3        29     9      180.000000        0.036946         4
         1         2         3        30     9        0.000000       -0.087544         1
         1         2         3        30     9      180.000000        0.034291         2
         1         2         3        30     9        0.000000        0.537560         3
         1         2         3        30     9      180.000000        0.036946         4
         1         2         4        31     9        0.000000       -0.087544         1
         1         2         4        31     9      180.000000        0.034291         2
         1         2         4        31     9        0.000000        0.537560         3
         1         2         4        31     9      180.000000        0.036946         4
         1         2         4        32     9        0.000000       -0.087544         1
         1         2         4        32     9      180.000000        0.034291         2
         1         2         4        32     9        0.000000        0.537560         3
         1         2         4        32     9      180.000000        0.036946         4
         1         2         4        33     9        0.000000       -0.087544         1
         1         2         4        33     9      180.000000        0.034291         2
         1         2         4        33     9        0.000000        0.537560         3
         1         2         4        33     9      180.000000        0.036946         4
         1         2         5         6     9        0.000000        0.066118         1
         1         2         5         6     9      180.000000        0.256919         2
         1         2         5         6     9        0.000000        0.081785         3
         1         2         5         6     9      180.000000        0.232755         4
         1         2         5        10     9        0.000000       -0.084442         1
         1         2         5        10     9      180.000000        0.316333         2
         1         2         5        10     9        0.000000       -0.069832         3
         1         2         5        10     9      180.000000        0.262308         4
         2         5         6         7     9        0.000000       -0.015529         1
         2         5         6         7     9      180.000000       14.441998         2
         2         5         6         7     9        0.000000       -0.038910         3
         2         5         6         7     9      180.000000       -0.170463         4
         2         5         6        34     9        0.000000       -0.003084         1
         2         5         6        34     9      180.000000       12.620195         2
         2         5         6        34     9        0.000000       -0.269328         3
         2         5         6        34     9      180.000000        0.172534         4
         2         5        10         9     9        0.000000        0.003069         1
         2         5        10         9     9      180.000000       14.254698         2
         2         5        10         9     9        0.000000       -0.042586         3
         2         5        10         9     9      180.000000       -0.261407         4
         2         5        10        36     9        0.000000       -0.016810         1
         2         5        10        36     9      180.000000       12.814783         2
         2         5        10        36     9        0.000000       -0.264071         3
         2         5        10        36     9      180.000000        0.141286         4
         3         2         1        25     9        0.000000       -0.087543         1
         3         2         1        25     9      180.000000        0.034291         2
         3         2         1        25     9        0.000000        0.537560         3
         3         2         1        25     9      180.000000        0.036946         4
         3         2         1        26     9        0.000000       -0.087543         1
         3         2         1        26     9      180.000000        0.034291         2
         3         2         1        26     9        0.000000        0.537560         3
         3         2         1        26     9      180.000000        0.036946         4
         3         2         1        27     9        0.000000       -0.087544         1
         3         2         1        27     9      180.000000        0.034291         2
         3         2         1        27     9        0.000000        0.537560         3
         3         2         1        27     9      180.000000        0.036946         4
         3         2         4        31     9        0.000000       -0.087544         1
         3         2         4        31     9      180.000000        0.034291         2
         3         2         4        31     9        0.000000        0.537560         3
         3         2         4        31     9      180.000000        0.036946         4
         3         2         4        32     9        0.000000       -0.087544         1
         3         2         4        32     9      180.000000        0.034291         2
         3         2         4        32     9        0.000000        0.537560         3
         3         2         4        32     9      180.000000        0.036946         4
         3         2         4        33     9        0.000000       -0.087544         1
         3         2         4        33     9      180.000000        0.034291         2
         3         2         4        33     9        0.000000        0.537560         3
         3         2         4        33     9      180.000000        0.036946         4
         3         2         5         6     9        0.000000        0.066118         1
         3         2         5         6     9      180.000000        0.256919         2
         3         2         5         6     9        0.000000        0.081785         3
         3         2         5         6     9      180.000000        0.232755         4
         3         2         5        10     9        0.000000       -0.084442         1
         3         2         5        10     9      180.000000        0.316333         2
         3         2         5        10     9        0.000000       -0.069832         3
         3         2         5        10     9      180.000000        0.262308         4
         4         2         1        25     9        0.000000       -0.087543         1
         4         2         1        25     9      180.000000        0.034291         2
         4         2         1        25     9        0.000000        0.537560         3
         4         2         1        25     9      180.000000        0.036946         4
         4         2         1        26     9        0.000000       -0.087543         1
         4         2         1        26     9      180.000000        0.034291         2
         4         2         1        26     9        0.000000        0.537560         3
         4         2         1        26     9      180.000000        0.036946         4
         4         2         1        27     9        0.000000       -0.087544         1
         4         2         1        27     9      180.000000        0.034291         2
         4         2         1        27     9        0.000000        0.537560         3
         4         2         1        27     9      180.000000        0.036946         4
         4         2         3        28     9        0.000000       -0.087544         1
         4         2         3        28     9      180.000000        0.034291         2
         4         2         3        28     9        0.000000        0.537560         3
         4         2         3        28     9      180.000000        0.036946         4
         4         2         3        29     9        0.000000       -0.087544         1
         4         2         3        29     9      180.000000        0.034291         2
         4         2         3        29     9        0.000000        0.537560         3
         4         2         3        29     9      180.000000        0.036946         4
         4         2         3        30     9        0.000000       -0.087544         1
         4         2         3        30     9      180.000000        0.034291         2
         4         2         3        30     9        0.000000        0.537560         3
         4         2         3        30     9      180.000000        0.036946         4
         4         2         5         6     9        0.000000        0.066118         1
         4         2         5         6     9      180.000000        0.256919         2
         4         2         5         6     9        0.000000        0.081785         3
         4         2         5         6     9      180.000000        0.232755         4
         4         2         5        10     9        0.000000       -0.084442         1
         4         2         5        10     9      180.000000        0.316333         2
         4         2         5        10     9        0.000000       -0.069832         3
         4         2         5        10     9      180.000000        0.262308         4
         5         2         1        25     9        0.000000       -0.010428         1
         5         2         1        25     9      180.000000        0.022822         2
         5         2         1        25     9        0.000000        0.616609         3
         5         2         1        25     9      180.000000       -0.012817         4
         5         2         1        26     9        0.000000       -0.010428         1
         5         2         1        26     9      180.000000        0.022822         2
         5         2         1        26     9        0.000000        0.616609         3
         5         2         1        26     9      180.000000       -0.012817         4
         5         2         1        27     9        0.000000       -0.010429         1
         5         2         1        27     9      180.000000        0.022823         2
         5         2         1        27     9        0.000000        0.616609         3
         5         2         1        27     9      180.000000       -0.012818         4
         5         2         3        28     9        0.000000       -0.010429         1
         5         2         3        28     9      180.000000        0.022823         2
         5         2         3        28     9        0.000000        0.616609         3
         5         2         3        28     9      180.000000       -0.012818         4
         5         2         3        29     9        0.000000       -0.010429         1
         5         2         3        29     9      180.000000        0.022823         2
         5         2         3        29     9        0.000000        0.616609         3
         5         2         3        29     9      180.000000       -0.012818         4
         5         2         3        30     9        0.000000       -0.010429         1
         5         2         3        30     9      180.000000        0.022823         2
         5         2         3        30     9        0.000000        0.616609         3
         5         2         3        30     9      180.000000       -0.012818         4
         5         2         4        31     9        0.000000       -0.010429         1
         5         2         4        31     9      180.000000        0.022823         2
         5         2         4        31     9        0.000000        0.616609         3
         5         2         4        31     9      180.000000       -0.012818         4
         5         2         4        32     9        0.000000       -0.010429         1
         5         2         4        32     9      180.000000        0.022823         2
         5         2         4        32     9        0.000000        0.616609         3
         5         2         4        32     9      180.000000       -0.012818         4
         5         2         4        33     9        0.000000       -0.010429         1
         5         2         4        33     9      180.000000        0.022823         2
         5         2         4        33     9        0.000000        0.616609         3
         5         2         4        33     9      180.000000       -0.012818         4
         5         6         7         8     9        0.000000        0.042972         1
         5         6         7         8     9      180.000000       17.877930         2
         5         6         7         8     9        0.000000       -1.815754         3
         5         6         7         8     9      180.000000       -0.374703         4
         5         6         7        35     9        0.000000        0.017015         1
         5         6         7        35     9      180.000000       14.679926         2
         5         6         7        35     9        0.000000       -0.662311         3
         5         6         7        35     9      180.000000        0.174306         4
         5        10         9         8     9        0.000000        0.088558         1
         5        10         9         8     9      180.000000       18.698307         2
         5        10         9         8     9        0.000000       -1.677828         3
         5        10         9         8     9      180.000000       -0.416696         4
         5        10         9        11     9        0.000000        0.017762         1
         5        10         9        11     9      180.000000       16.569428         2
         5        10         9        11     9        0.000000       -0.177744         3
         5        10         9        11     9      180.000000       -0.306536         4
         6         5        10         9     9        0.000000       -0.064636         1
         6         5        10         9     9      180.000000       18.766140         2
         6         5        10         9     9        0.000000       -1.621197         3
         6         5        10         9     9      180.000000       -0.487309         4
         6         5        10        36     9        0.000000       -0.055040         1
         6         5        10        36     9      180.000000       14.417531         2
         6         5        10        36     9        0.000000       -0.625288         3
         6         5        10        36     9      180.000000        0.064387         4
         6         7         8         9     9        0.000000        0.002214         1
         6         7         8         9     9      180.000000       17.282279         2
         6         7         8         9     9        0.000000       -0.814436         3
         6         7         8         9     9      180.000000       -0.345060         4
         6         7         8        24     9        0.000000        0.311214         1
         6         7         8        24     9      180.000000       18.888934         2
         6         7         8        24     9        0.000000        0.279434         3
         6         7         8        24     9      180.000000       -0.274413         4
         7         6         5        10     9        0.000000       -0.093126         1
         7         6         5        10     9      180.000000       18.828223         2
         7         6         5        10     9        0.000000       -1.489035         3
         7         6         5        10     9      180.000000       -0.423210         4
         7         8         9        10     9        0.000000       -0.006452         1
         7         8         9        10     9      180.000000       14.903731         2
         7         8         9        10     9        0.000000       -0.773351         3
         7         8         9        10     9      180.000000       -0.244739         4
         7         8         9        11     9        0.000000        0.095453         1
         7         8         9        11     9      180.000000       12.180329         2
         7         8         9        11     9        0.000000       -0.202406         3
         7         8         9        11     9      180.000000       -0.086784         4
         7         8        24        17     9        0.000000       -0.663772         1
         7         8        24        17     9      180.000000        2.766190         2
         7         8        24        17     9        0.000000       -0.095313         3
         7         8        24        17     9      180.000000        0.422620         4
         7         8        24        51     9        0.000000       -0.432814         1
         7         8        24        51     9      180.000000        4.115105         2
         7         8        24        51     9        0.000000       -0.041865         3
         7         8        24        51     9      180.000000        0.279660         4
         8         7         6        34     9        0.000000        0.109939         1
         8         7         6        34     9      180.000000       13.899801         2
         8         7         6        34     9        0.000000       -0.667814         3
         8         7         6        34     9      180.000000        0.187733         4
         8         9        10        36     9        0.000000        0.161713         1
         8         9        10        36     9      180.000000       13.981557         2
         8         9        10        36     9        0.000000       -0.251784         3
         8         9        10        36     9      180.000000        0.187181         4
         8         9        11        12     9        0.000000       -3.474185         1
         8         9        11        12     9      180.000000       -1.539894         2
         8         9        11        12     9        0.000000        0.645078         3
         8         9        11        12     9      180.000000       -0.093480         4
         8         9        11        16     9        0.000000        4.088928         1
         8         9        11        16     9      180.000000       -4.011127         2
         8         9        11        16     9        0.000000       -0.197836         3
         8         9        11        16     9      180.000000        0.841800         4
         8         9        11        37     9        0.000000        0.127554         1
         8         9        11        37     9      180.000000        0.322314         2
         8         9        11        37     9        0.000000        0.157800         3
         8         9        11        37     9      180.000000        0.001625         4
         8        24        17        16     9        0.000000        5.999209         1
         8        24        17        16     9      180.000000       -3.152434         2
         8        24        17        16     9        0.000000       -0.086241         3
         8        24        17        16     9      180.000000        0.733362         4
         8        24        17        18     9        0.000000        1.082017         1
         8        24        17        18     9      180.000000       -0.660170         2
         8        24        17        18     9        0.000000        0.773072         3
         8        24        17        18     9      180.000000        0.092282         4
         8        24        17        45     9        0.000000       -0.112047         1
         8        24        17        45     9      180.000000       -0.155155         2
         8        24        17        45     9        0.000000        0.621816         3
         8        24        17        45     9      180.000000       -0.029642         4
         9         8         7        35     9        0.000000        0.015863         1
         9         8         7        35     9      180.000000       12.765982         2
         9         8         7        35     9        0.000000       -0.231500         3
         9         8         7        35     9      180.000000        0.015488         4
         9         8        24        17     9        0.000000        3.358202         1
         9         8        24        17     9      180.000000        0.503561         2
         9         8        24        17     9        0.000000       -0.190607         3
         9         8        24        17     9      180.000000        1.010682         4
         9         8        24        51     9        0.000000        6.748374         1
         9         8        24        51     9      180.000000        3.723048         2
         9         8        24        51     9        0.000000       -0.647499         3
         9         8        24        51     9      180.000000        0.444599         4
         9        11        12        13     9        0.000000       -0.078955         1
         9        11        12        13     9      180.000000       -0.773544         2
         9        11        12        13     9        0.000000        0.805396         3
         9        11        12        13     9      180.000000        0.072715         4
         9        11        16        15     9        0.000000        0.697917         1
         9        11        16        15     9      180.000000       -1.665062         2
         9        11        16        15     9        0.000000        0.346908         3
         9        11        16        15     9      180.000000        0.028014         4
         9        11        16        17     9        0.000000        2.033228         1
         9        11        16        17     9      180.000000       -2.850184         2
         9        11        16        17     9        0.000000        0.068609         3
         9        11        16        17     9      180.000000        0.170492         4
         9        11        16        44     9        0.000000       -0.107843         1
         9        11        16        44     9      180.000000        0.030855         2
         9        11        16        44     9        0.000000        0.092468         3
         9        11        16        44     9      180.000000        0.215405         4
        10         5         6        34     9        0.000000       -0.000999         1
        10         5         6        34     9      180.000000       14.590484         2
        10         5         6        34     9        0.000000       -0.653741         3
        10         5         6        34     9      180.000000        0.015674         4
        10         9         8        24     9        0.000000        0.145666         1
        10         9         8        24     9      180.000000       17.292555         2
        10         9         8        24     9        0.000000        0.125965         3
        10         9         8        24     9      180.000000       -0.551365         4
        10         9        11        12     9        0.000000       -0.237390         1
        10         9        11        12     9      180.000000        0.298520         2
        10         9        11        12     9        0.000000       -0.795898         3
        10         9        11        12     9      180.000000        0.152098         4
        10         9        11        16     9        0.000000       -0.957675         1
        10         9        11        16     9      180.000000       -1.028028         2
        10         9        11        16     9        0.000000       -0.585690         3
        10         9        11        16     9      180.000000        0.266293         4
        10         9        11        37     9        0.000000        0.214246         1
        10         9        11        37     9      180.000000       -0.024224         2
        10         9        11        37     9        0.000000       -0.681040         3
        10         9        11        37     9      180.000000       -0.043991         4
        11         9         8        24     9        0.000000       -0.041169         1
        11         9         8        24     9      180.000000       16.023257         2
        11         9         8        24     9        0.000000        0.487061         3
        11         9         8        24     9      180.000000       -0.528903         4
        11         9        10        36     9        0.000000        0.014040         1
        11         9        10        36     9      180.000000       12.649502         2
        11         9        10        36     9        0.000000       -0.295641         3
        11         9        10        36     9      180.000000        0.192238         4
        11        12        13        14     9        0.000000        2.342349         1
        11        12        13        14     9      180.000000       -2.030184         2
        11        12        13        14     9        0.000000        0.309095         3
        11        12        13        14     9      180.000000        0.219840         4
        11        12        13        38     9        0.000000       -0.050130         1
        11        12        13        38     9      180.000000        0.095789         2
        11        12        13        38     9        0.000000        0.342725         3
        11        12        13        38     9      180.000000        0.009062         4
        11        12        13        39     9        0.000000       -0.050130         1
        11        12        13        39     9      180.000000        0.095789         2
        11        12        13        39     9        0.000000        0.342725         3
        11        12        13        39     9      180.000000        0.009062         4
        11        16        15        14     9        0.000000        1.257284         1
        11        16        15        14     9      180.000000       -1.224480         2
        11        16        15        14     9        0.000000        0.110615         3
        11        16        15        14     9      180.000000        0.034641         4
        11        16        15        42     9        0.000000       -0.085116         1
        11        16        15        42     9      180.000000        0.077526         2
        11        16        15        42     9        0.000000        0.204936         3
        11        16        15        42     9      180.000000        0.020587         4
        11        16        15        43     9        0.000000       -0.085116         1
        11        16        15        43     9      180.000000        0.077526         2
        11        16        15        43     9        0.000000        0.204936         3
        11        16        15        43     9      180.000000        0.020587         4
        11        16        17        18     9        0.000000       -0.298744         1
        11        16        17        18     9      180.000000       -0.245141         2
        11        16        17        18     9        0.000000        0.360899         3
        11        16        17        18     9      180.000000        0.088283         4
        11        16        17        24     9        0.000000       -0.503153         1
        11        16        17        24     9      180.000000       -1.657998         2
        11        16        17        24     9        0.000000       -0.227201         3
        11        16        17        24     9      180.000000        0.176879         4
        11        16        17        45     9        0.000000       -0.049843         1
        11        16        17        45     9      180.000000       -0.031416         2
        11        16        17        45     9        0.000000        0.090218         3
        11        16        17        45     9      180.000000        0.151139         4
        12        11        16        15     9        0.000000        0.907159         1
        12        11        16        15     9      180.000000       -2.406662         2
        12        11        16        15     9        0.000000        0.294737         3
        12        11        16        15     9      180.000000        0.164536         4
        12        11        16        17     9        0.000000        1.013047         1
        12        11        16        17     9      180.000000       -4.184724         2
        12        11        16        17     9        0.000000        0.099113         3
        12        11        16        17     9      180.000000        0.368040         4
        12        11        16        44     9        0.000000       -0.534800         1
        12        11        16        44     9      180.000000        0.134636         2
        12        11        16        44     9        0.000000        0.046242         3
        12        11        16        44     9      180.000000        0.186899         4
        12        13        14        15     9        0.000000       -0.305792         1
        12        13        14        15     9      180.000000       -0.588740         2
        12        13        14        15     9        0.000000        0.317413         3
        12        13        14        15     9      180.000000        0.009756         4
        12        13        14        40     9        0.000000       -0.053885         1
        12        13        14        40     9      180.000000        0.015264         2
        12        13        14        40     9        0.000000        0.210759         3
        12        13        14        40     9      180.000000        0.034689         4
        12        13        14        41     9        0.000000       -0.053885         1
        12        13        14        41     9      180.000000        0.015264         2
        12        13        14        41     9        0.000000        0.210759         3
        12        13        14        41     9      180.000000        0.034689         4
        13        12        11        16     9        0.000000        5.876847         1
        13        12        11        16     9      180.000000       -3.249924         2
        13        12        11        16     9        0.000000        0.156603         3
        13        12        11        16     9      180.000000        0.181953         4
        13        12        11        37     9        0.000000       -0.309577         1
        13        12        11        37     9      180.000000        0.205164         2
        13        12        11        37     9        0.000000        0.660790         3
        13        12        11        37     9      180.000000        0.012320         4
        13        14        15        16     9        0.000000        0.507916         1
        13        14        15        16     9      180.000000       -1.208090         2
        13        14        15        16     9        0.000000        0.130090         3
        13        14        15        16     9      180.000000        0.073228         4
        13        14        15        42     9        0.000000        0.000102         1
        13        14        15        42     9      180.000000        0.023990         2
        13        14        15        42     9        0.000000        0.203618         3
        13        14        15        42     9      180.000000        0.001388         4
        13        14        15        43     9        0.000000        0.000102         1
        13        14        15        43     9      180.000000        0.023990         2
        13        14        15        43     9        0.000000        0.203618         3
        13        14        15        43     9      180.000000        0.001388         4
        14        15        16        17     9        0.000000        0.395446         1
        14        15        16        17     9      180.000000       -0.551868         2
        14        15        16        17     9        0.000000        0.392249         3
        14        15        16        17     9      180.000000       -0.016185         4
        14        15        16        44     9        0.000000       -1.031950         1
        14        15        16        44     9      180.000000       -0.011603         2
        14        15        16        44     9        0.000000        0.217445         3
        14        15        16        44     9      180.000000        0.148437         4
        15        14        13        38     9        0.000000       -0.029572         1
        15        14        13        38     9      180.000000        0.011586         2
        15        14        13        38     9        0.000000        0.305781         3
        15        14        13        38     9      180.000000        0.022366         4
        15        14        13        39     9        0.000000       -0.029572         1
        15        14        13        39     9      180.000000        0.011586         2
        15        14        13        39     9        0.000000        0.305781         3
        15        14        13        39     9      180.000000        0.022366         4
        15        16        11        37     9        0.000000       -0.169591         1
        15        16        11        37     9      180.000000        0.243035         2
        15        16        11        37     9        0.000000        0.281612         3
        15        16        11        37     9      180.000000        0.071303         4
        15        16        17        18     9        0.000000        1.473021         1
        15        16        17        18     9      180.000000       -0.623478         2
        15        16        17        18     9        0.000000        0.920725         3
        15        16        17        18     9      180.000000        0.134221         4
        15        16        17        24     9        0.000000       -1.866019         1
        15        16        17        24     9      180.000000        0.385648         2
        15        16        17        24     9        0.000000        0.375824         3
        15        16        17        24     9      180.000000       -0.085813         4
        15        16        17        45     9        0.000000       -0.277117         1
        15        16        17        45     9      180.000000        0.172515         2
        15        16        17        45     9        0.000000        0.525563         3
        15        16        17        45     9      180.000000       -0.009842         4
        16        15        14        40     9        0.000000       -0.038497         1
        16        15        14        40     9      180.000000       -0.006856         2
        16        15        14        40     9        0.000000        0.153147         3
        16        15        14        40     9      180.000000       -0.007532         4
        16        15        14        41     9        0.000000       -0.038497         1
        16        15        14        41     9      180.000000       -0.006856         2
        16        15        14        41     9        0.000000        0.153147         3
        16        15        14        41     9      180.000000       -0.007532         4
        16        17        18        19     9        0.000000       -0.365202         1
        16        17        18        19     9      180.000000       -0.145741         2
        16        17        18        19     9        0.000000        0.088497         3
        16        17        18        19     9      180.000000        0.014233         4
        16        17        18        23     9        0.000000       -0.365202         1
        16        17        18        23     9      180.000000       -0.145741         2
        16        17        18        23     9        0.000000        0.088497         3
        16        17        18        23     9      180.000000        0.014233         4
        16        17        24        51     9        0.000000        3.511266         1
        16        17        24        51     9      180.000000       -3.172566         2
        16        17        24        51     9        0.000000        0.142631         3
        16        17        24        51     9      180.000000        0.388193         4
        17        16        11        37     9        0.000000       -0.482058         1
        17        16        11        37     9      180.000000        0.191394         2
        17        16        11        37     9        0.000000        0.047579         3
        17        16        11        37     9      180.000000        0.139064         4
        17        16        15        42     9        0.000000       -0.008818         1
        17        16        15        42     9      180.000000        0.034190         2
        17        16        15        42     9        0.000000        0.321909         3
        17        16        15        42     9      180.000000        0.000590         4
        17        16        15        43     9        0.000000       -0.008818         1
        17        16        15        43     9      180.000000        0.034190         2
        17        16        15        43     9        0.000000        0.321909         3
        17        16        15        43     9      180.000000        0.000590         4
        17        18        19        20     9        0.000000        0.090191         1
        17        18        19        20     9      180.000000       14.679499         2
        17        18        19        20     9        0.000000       -0.138716         3
        17        18        19        20     9      180.000000       -0.078603         4
        17        18        19        46     9        0.000000       -0.040954         1
        17        18        19        46     9      180.000000       12.731300         2
        17        18        19        46     9        0.000000       -0.361222         3
        17        18        19        46     9      180.000000        0.182937         4
        17        18        23        22     9        0.000000        0.090191         1
        17        18        23        22     9      180.000000       14.679499         2
        17        18        23        22     9        0.000000       -0.138716         3
        17        18        23        22     9      180.000000       -0.078603         4
        17        18        23        50     9        0.000000       -0.040954         1
        17        18        23        50     9      180.000000       12.731300         2
        17        18        23        50     9        0.000000       -0.361222         3
        17        18        23        50     9      180.000000        0.182937         4
        18        17        16        44     9        0.000000        0.066084         1
        18        17        16        44     9      180.000000       -0.040404         2
        18        17        16        44     9        0.000000        0.454037         3
        18        17        16        44     9      180.000000       -0.066673         4
        18        17        24        51     9        0.000000        3.195031         1
        18        17        24        51     9      180.000000       -1.053801         2
        18        17        24        51     9        0.000000        0.110169         3
        18        17        24        51     9      180.000000       -0.141080         4
        18        19        20        21     9        0.000000        0.027332         1
        18        19        20        21     9      180.000000       18.735528         2
        18        19        20        21     9        0.000000       -1.491714         3
        18        19        20        21     9      180.000000       -0.406338         4
        18        19        20        47     9        0.000000        0.060410         1
        18        19        20        47     9      180.000000       14.990248         2
        18        19        20        47     9        0.000000       -0.580983         3
        18        19        20        47     9      180.000000        0.057213         4
        18        23        22        21     9        0.000000        0.027332         1
        18        23        22        21     9      180.000000       18.735528         2
        18        23        22        21     9        0.000000       -1.491714         3
        18        23        22        21     9      180.000000       -0.406338         4
        18        23        22        49     9        0.000000        0.060410         1
        18        23        22        49     9      180.000000       14.990248         2
        18        23        22        49     9        0.000000       -0.580983         3
        18        23        22        49     9      180.000000        0.057213         4
        19        18        17        24     9        0.000000       -0.070386         1
        19        18        17        24     9      180.000000        0.892703         2
        19        18        17        24     9        0.000000       -0.026553         3
        19        18        17        24     9      180.000000        0.262290         4
        19        18        17        45     9        0.000000        0.166578         1
        19        18        17        45     9      180.000000        0.665435         2
        19        18        17        45     9        0.000000        0.050777         3
        19        18        17        45     9      180.000000       -0.152664         4
        19        18        23        22     9        0.000000       -0.144447         1
        19        18        23        22     9      180.000000       19.062217         2
        19        18        23        22     9        0.000000       -1.504557         3
        19        18        23        22     9      180.000000       -0.477343         4
        19        18        23        50     9        0.000000       -0.069578         1
        19        18        23        50     9      180.000000       14.508781         2
        19        18        23        50     9        0.000000       -0.591210         3
        19        18        23        50     9      180.000000       -0.002965         4
        19        20        21        22     9        0.000000       -0.058929         1
        19        20        21        22     9      180.000000       18.660780         2
        19        20        21        22     9        0.000000       -1.621207         3
        19        20        21        22     9      180.000000       -0.382782         4
        19        20        21        48     9        0.000000        0.016777         1
        19        20        21        48     9      180.000000       14.282109         2
        19        20        21        48     9        0.000000       -0.780703         3
        19        20        21        48     9      180.000000        0.125907         4
        20        19        18        23     9        0.000000       -0.144447         1
        20        19        18        23     9      180.000000       19.062217         2
        20        19        18        23     9        0.000000       -1.504557         3
        20        19        18        23     9      180.000000       -0.477343         4
        20        21        22        23     9        0.000000       -0.058929         1
        20        21        22        23     9      180.000000       18.660780         2
        20        21        22        23     9        0.000000       -1.621207         3
        20        21        22        23     9      180.000000       -0.382782         4
        20        21        22        49     9        0.000000        0.010660         1
        20        21        22        49     9      180.000000       14.271862         2
        20        21        22        49     9        0.000000       -0.794146         3
        20        21        22        49     9      180.000000        0.157356         4
        21        20        19        46     9        0.000000        0.060923         1
        21        20        19        46     9      180.000000       14.800026         2
        21        20        19        46     9        0.000000       -0.680406         3
        21        20        19        46     9      180.000000        0.105082         4
        21        22        23        50     9        0.000000        0.060923         1
        21        22        23        50     9      180.000000       14.800026         2
        21        22        23        50     9        0.000000       -0.680406         3
        21        22        23        50     9      180.000000        0.105082         4
        22        21        20        47     9        0.000000        0.010660         1
        22        21        20        47     9      180.000000       14.271862         2
        22        21        20        47     9        0.000000       -0.794146         3
        22        21        20        47     9      180.000000        0.157356         4
        23        18        17        24     9        0.000000       -0.070386         1
        23        18        17        24     9      180.000000        0.892703         2
        23        18        17        24     9        0.000000       -0.026553         3
        23        18        17        24     9      180.000000        0.262290         4
        23        18        17        45     9        0.000000        0.166578         1
        23        18        17        45     9      180.000000        0.665435         2
        23        18        17        45     9        0.000000        0.050777         3
        23        18        17        45     9      180.000000       -0.152664         4
        23        18        19        46     9        0.000000       -0.069578         1
        23        18        19        46     9      180.000000       14.508781         2
        23        18        19        46     9        0.000000       -0.591210         3
        23        18        19        46     9      180.000000       -0.002965         4
        23        22        21        48     9        0.000000        0.016777         1
        23        22        21        48     9      180.000000       14.282109         2
        23        22        21        48     9        0.000000       -0.780703         3
        23        22        21        48     9      180.000000        0.125907         4
        24         8         7        35     9        0.000000       -0.251168         1
        24         8         7        35     9      180.000000       15.379822         2
        24         8         7        35     9        0.000000       -0.154475         3
        24         8         7        35     9      180.000000        0.061062         4
        24        17        16        44     9        0.000000        0.031559         1
        24        17        16        44     9      180.000000       -0.020166         2
        24        17        16        44     9        0.000000        0.109362         3
        24        17        16        44     9      180.000000        0.240143         4
        34         6         7        35     9        0.000000       -0.108113         1
        34         6         7        35     9      180.000000       12.008828         2
        34         6         7        35     9        0.000000       -0.736421         3
        34         6         7        35     9      180.000000        0.369129         4
        37        11        16        44     9        0.000000        0.132091         1
        37        11        16        44     9      180.000000        0.094594         2
        37        11        16        44     9        0.000000        0.246920         3
        37        11        16        44     9      180.000000       -0.118212         4
        38        13        14        40     9        0.000000       -0.009178         1
        38        13        14        40     9      180.000000        0.003074         2
        38        13        14        40     9        0.000000        0.306791         3
        38        13        14        40     9      180.000000       -0.016783         4
        38        13        14        41     9        0.000000       -0.009178         1
        38        13        14        41     9      180.000000        0.003074         2
        38        13        14        41     9        0.000000        0.306791         3
        38        13        14        41     9      180.000000       -0.016783         4
        39        13        14        40     9        0.000000       -0.009178         1
        39        13        14        40     9      180.000000        0.003074         2
        39        13        14        40     9        0.000000        0.306791         3
        39        13        14        40     9      180.000000       -0.016783         4
        39        13        14        41     9        0.000000       -0.009178         1
        39        13        14        41     9      180.000000        0.003074         2
        39        13        14        41     9        0.000000        0.306791         3
        39        13        14        41     9      180.000000       -0.016783         4
        40        14        15        42     9        0.000000        0.025058         1
        40        14        15        42     9      180.000000       -0.027755         2
        40        14        15        42     9        0.000000        0.264036         3
        40        14        15        42     9      180.000000        0.007692         4
        40        14        15        43     9        0.000000        0.025058         1
        40        14        15        43     9      180.000000       -0.027755         2
        40        14        15        43     9        0.000000        0.264036         3
        40        14        15        43     9      180.000000        0.007692         4
        41        14        15        42     9        0.000000        0.025058         1
        41        14        15        42     9      180.000000       -0.027755         2
        41        14        15        42     9        0.000000        0.264036         3
        41        14        15        42     9      180.000000        0.007692         4
        41        14        15        43     9        0.000000        0.025058         1
        41        14        15        43     9      180.000000       -0.027755         2
        41        14        15        43     9        0.000000        0.264036         3
        41        14        15        43     9      180.000000        0.007692         4
        42        15        16        44     9        0.000000        0.338045         1
        42        15        16        44     9      180.000000        0.087981         2
        42        15        16        44     9        0.000000        0.382743         3
        42        15        16        44     9      180.000000       -0.048736         4
        43        15        16        44     9        0.000000        0.338045         1
        43        15        16        44     9      180.000000        0.087981         2
        43        15        16        44     9        0.000000        0.382743         3
        43        15        16        44     9      180.000000       -0.048736         4
        44        16        17        45     9        0.000000        0.619192         1
        44        16        17        45     9      180.000000        0.112960         2
        44        16        17        45     9        0.000000        0.465795         3
        44        16        17        45     9      180.000000       -0.276482         4
        45        17        24        51     9        0.000000       -0.890253         1
        45        17        24        51     9      180.000000       -0.260122         2
        45        17        24        51     9        0.000000        0.459100         3
        45        17        24        51     9      180.000000       -0.171435         4
        46        19        20        47     9        0.000000       -0.180341         1
        46        19        20        47     9      180.000000       11.789159         2
        46        19        20        47     9        0.000000       -0.659630         3
        46        19        20        47     9      180.000000        0.310084         4
        47        20        21        48     9        0.000000       -0.084557         1
        47        20        21        48     9      180.000000       11.520938         2
        47        20        21        48     9        0.000000       -0.587926         3
        47        20        21        48     9      180.000000        0.263272         4
        48        21        22        49     9        0.000000       -0.084557         1
        48        21        22        49     9      180.000000       11.520938         2
        48        21        22        49     9        0.000000       -0.587926         3
        48        21        22        49     9      180.000000        0.263272         4
        49        22        23        50     9        0.000000       -0.180341         1
        49        22        23        50     9      180.000000       11.789159         2
        49        22        23        50     9        0.000000       -0.659630         3
        49        22        23        50     9      180.000000        0.310084         4

[ dihedrals ] ; impropers
;       ai        aj        ak        al funct           phase               k        pn
        19        18        20        46     4      180.000000        0.182435         2
        19        20        46        18     4      180.000000        0.182435         2
        19        46        18        20     4      180.000000        0.182435         2
        20        19        21        47     4      180.000000        0.258178         2
        20        21        47        19     4      180.000000        0.258178         2
        20        47        19        21     4      180.000000        0.258178         2
        21        20        22        48     4      180.000000        0.333131         2
        21        22        48        20     4      180.000000        0.333131         2
        21        48        20        22     4      180.000000        0.333131         2
        22        21        23        49     4      180.000000        0.258178         2
        22        23        49        21     4      180.000000        0.258178         2
        22        49        21        23     4      180.000000        0.258178         2
        23        18        22        50     4      180.000000        0.182435         2
        23        22        50        18     4      180.000000        0.182435         2
        23        50        18        22     4      180.000000        0.182435         2

[ pairs ]
;       ai        aj funct
         1         6     1
         1        10     1
         1        28     1
         1        29     1
         1        30     1
         1        31     1
         1        32     1
         1        33     1
         2         7     1
         2         9     1
         2        34     1
         2        36     1
         3         6     1
         3        10     1
         3        25     1
         3        26     1
         3        27     1
         3        31     1
         3        32     1
         3        33     1
         4         6     1
         4        10     1
         4        25     1
         4        26     1
         4        27     1
         4        28     1
         4        29     1
         4        30     1
         5         8     1
         5        11     1
         5        25     1
         5        26     1
         5        27     1
         5        28     1
         5        29     1
         5        30     1
         5        31     1
         5        32     1
         5        33     1
         5        35     1
         6         9     1
         6        24     1
         6        36     1
         7        10     1
         7        11     1
         7        17     1
         7        51     1
         8        12     1
         8        16     1
         8        18     1
         8        34     1
         8        36     1
         8        37     1
         8        45     1
         9        13     1
         9        15     1
         9        17     1
         9        35     1
         9        44     1
         9        51     1
        10        12     1
        10        16     1
        10        24     1
        10        34     1
        10        37     1
        11        14     1
        11        18     1
        11        24     1
        11        36     1
        11        38     1
        11        39     1
        11        42     1
        11        43     1
        11        45     1
        12        15     1
        12        17     1
        12        40     1
        12        41     1
        12        44     1
        13        16     1
        13        37     1
        13        42     1
        13        43     1
        14        17     1
        14        44     1
        15        18     1
        15        24     1
        15        37     1
        15        38     1
        15        39     1
        15        45     1
        16        19     1
        16        23     1
        16        40     1
        16        41     1
        16        51     1
        17        20     1
        17        22     1
        17        37     1
        17        42     1
        17        43     1
        17        46     1
        17        50     1
        18        21     1
        18        44     1
        18        47     1
        18        49     1
        18        51     1
        19        22     1
        19        24     1
        19        45     1
        19        48     1
        19        50     1
        20        23     1
        20        49     1
        21        46     1
        21        50     1
        22        47     1
        23        24     1
        23        45     1
        23        46     1
        23        48     1
        24        35     1
        24        44     1
        34        35     1
        37        44     1
        38        40     1
        38        41     1
        39        40     1
        39        41     1
        40        42     1
        40        43     1
        41        42     1
        41        43     1
        42        44     1
        43        44     1
        44        45     1
        45        51     1
        46        47     1
        47        48     1
        48        49     1
        49        50     1
