; ITP file created by ByteFF-ML, 2026-02-21 07:37:56.150168

[ atomtypes ]
;name           bonded.type        at.num        mass        charge   ptype           sigma         epsilon
 o0bf                                   8      0.0000       0.00000       A     3.04783e-01     6.09220e-01
 c1bf                                   6      0.0000       0.00000       A     3.31457e-01     4.13498e-01
 n2bf                                   7      0.0000       0.00000       A     3.27090e-01     4.88903e-01
 c3bf                                   6      0.0000       0.00000       A     3.39900e-01     4.50183e-01
 c4bf                                   6      0.0000       0.00000       A     3.39820e-01     4.51001e-01
 c5bf                                   6      0.0000       0.00000       A     3.39798e-01     4.51921e-01
 o6bf                                   8      0.0000       0.00000       A     3.24497e-01     3.87393e-01
 n7bf                                   7      0.0000       0.00000       A     3.26973e-01     4.90646e-01
 c8bf                                   6      0.0000       0.00000       A     3.39827e-01     4.48765e-01
 c9bf                                   6      0.0000       0.00000       A     3.39805e-01     4.51416e-01
 c10bf                                  6      0.0000       0.00000       A     3.39840e-01     4.50605e-01
 c11bf                                  6      0.0000       0.00000       A     3.39938e-01     4.52179e-01
 c12bf                                  6      0.0000       0.00000       A     3.40218e-01     4.51818e-01
 c13bf                                  6      0.0000       0.00000       A     3.39362e-01     4.50344e-01
 c14bf                                  6      0.0000       0.00000       A     3.31416e-01     4.11566e-01
 c15bf                                  6      0.0000       0.00000       A     3.31559e-01     4.13032e-01
 c16bf                                  6      0.0000       0.00000       A     3.31517e-01     4.13352e-01
 c17bf                                  6      0.0000       0.00000       A     3.31506e-01     4.12857e-01
 c18bf                                  6      0.0000       0.00000       A     3.31517e-01     4.13352e-01
 c19bf                                  6      0.0000       0.00000       A     3.31559e-01     4.13032e-01
 n20bf                                  7      0.0000       0.00000       A     3.28286e-01     6.41163e-01
 c21bf                                  6      0.0000       0.00000       A     3.31454e-01     4.11042e-01
 c22bf                                  6      0.0000       0.00000       A     3.31569e-01     4.14507e-01
 c23bf                                  6      0.0000       0.00000       A     3.31508e-01     4.13091e-01
 c24bf                                  6      0.0000       0.00000       A     3.31488e-01     4.14461e-01
 c25bf                                  6      0.0000       0.00000       A     3.39788e-01     4.48602e-01
 f26bf                                  9      0.0000       0.00000       A     3.03460e-01     3.47943e-01
 f27bf                                  9      0.0000       0.00000       A     3.03460e-01     3.47943e-01
 f28bf                                  9      0.0000       0.00000       A     3.03460e-01     3.47943e-01
 c29bf                                  6      0.0000       0.00000       A     3.31217e-01     4.13522e-01
 c30bf                                  6      0.0000       0.00000       A     3.31287e-01     4.10150e-01
 c31bf                                  6      0.0000       0.00000       A     3.39738e-01     4.51731e-01
 o32bf                                  8      0.0000       0.00000       A     3.15742e-01     3.04824e-01
 h33bf                                  1      0.0000       0.00000       A     1.10585e-01     4.15313e-02
 h34bf                                  1      0.0000       0.00000       A     2.42442e-01     8.74774e-02
 h35bf                                  1      0.0000       0.00000       A     2.42442e-01     8.74774e-02
 h36bf                                  1      0.0000       0.00000       A     2.59979e-01     8.59084e-02
 h37bf                                  1      0.0000       0.00000       A     2.59979e-01     8.59084e-02
 h38bf                                  1      0.0000       0.00000       A     2.42203e-01     8.66953e-02
 h39bf                                  1      0.0000       0.00000       A     2.42203e-01     8.66953e-02
 h40bf                                  1      0.0000       0.00000       A     5.36084e-02     2.01009e-02
 h41bf                                  1      0.0000       0.00000       A     1.10569e-01     4.10477e-02
 h42bf                                  1      0.0000       0.00000       A     2.41824e-01     8.80599e-02
 h43bf                                  1      0.0000       0.00000       A     2.41824e-01     8.80599e-02
 h44bf                                  1      0.0000       0.00000       A     2.42565e-01     8.73098e-02
 h45bf                                  1      0.0000       0.00000       A     2.59821e-01     8.71677e-02
 h46bf                                  1      0.0000       0.00000       A     2.59821e-01     8.71677e-02
 h47bf                                  1      0.0000       0.00000       A     2.60017e-01     8.63234e-02
 h48bf                                  1      0.0000       0.00000       A     2.60017e-01     8.63234e-02
 h49bf                                  1      0.0000       0.00000       A     2.59608e-01     8.66043e-02
 h50bf                                  1      0.0000       0.00000       A     2.42675e-01     8.80520e-02
 h51bf                                  1      0.0000       0.00000       A     2.62512e-01     6.76287e-02
 h52bf                                  1      0.0000       0.00000       A     2.62458e-01     6.72647e-02
 h53bf                                  1      0.0000       0.00000       A     2.62457e-01     6.73477e-02
 h54bf                                  1      0.0000       0.00000       A     2.62458e-01     6.72647e-02
 h55bf                                  1      0.0000       0.00000       A     2.62512e-01     6.76287e-02
 h56bf                                  1      0.0000       0.00000       A     1.10887e-01     4.11451e-02
 h57bf                                  1      0.0000       0.00000       A     2.62406e-01     6.70142e-02
 h58bf                                  1      0.0000       0.00000       A     2.62597e-01     6.75951e-02
 h59bf                                  1      0.0000       0.00000       A     2.62549e-01     6.73222e-02
 h60bf                                  1      0.0000       0.00000       A     2.42774e-01     8.84398e-02

[ moleculetype ]
;name             nrexcl
 CHEMBL1085895         3

[ atoms ]
;       nr            type      resi   res      atom      cgnr      charge          mass ; qtot
         1            o0bf         1   UNL        o0         1    -0.62707       15.9990 ; qtot   -0.627
         2            c1bf         1   UNL        c1         2     0.61278       12.0110 ; qtot   -0.014
         3            n2bf         1   UNL        n2         3    -0.49728       14.0070 ; qtot   -0.512
         4            c3bf         1   UNL        c3         4     0.09998       12.0110 ; qtot   -0.412
         5            c4bf         1   UNL        c4         5    -0.12601       12.0110 ; qtot   -0.538
         6            c5bf         1   UNL        c5         6     0.15528       12.0110 ; qtot   -0.382
         7            o6bf         1   UNL        o6         7    -0.66366       15.9990 ; qtot   -1.046
         8            n7bf         1   UNL        n7         8    -0.49864       14.0070 ; qtot   -1.545
         9            c8bf         1   UNL        c8         9     0.08821       12.0110 ; qtot   -1.456
        10            c9bf         1   UNL        c9        10     0.14328       12.0110 ; qtot   -1.313
        11           c10bf         1   UNL       c10        11    -0.10111       12.0110 ; qtot   -1.414
        12           c11bf         1   UNL       c11        12    -0.06653       12.0110 ; qtot   -1.481
        13           c12bf         1   UNL       c12        13    -0.09765       12.0110 ; qtot   -1.578
        14           c13bf         1   UNL       c13        14     0.26107       12.0110 ; qtot   -1.317
        15           c14bf         1   UNL       c14        15    -0.10768       12.0110 ; qtot   -1.425
        16           c15bf         1   UNL       c15        16    -0.09640       12.0110 ; qtot   -1.521
        17           c16bf         1   UNL       c16        17    -0.11334       12.0110 ; qtot   -1.635
        18           c17bf         1   UNL       c17        18    -0.10684       12.0110 ; qtot   -1.742
        19           c18bf         1   UNL       c18        19    -0.11334       12.0110 ; qtot   -1.855
        20           c19bf         1   UNL       c19        20    -0.09640       12.0110 ; qtot   -1.951
        21           n20bf         1   UNL       n20        21    -0.92305       14.0070 ; qtot   -2.874
        22           c21bf         1   UNL       c21        22     0.30845       12.0110 ; qtot   -2.566
        23           c22bf         1   UNL       c22        23    -0.17966       12.0110 ; qtot   -2.746
        24           c23bf         1   UNL       c23        24    -0.01484       12.0110 ; qtot   -2.760
        25           c24bf         1   UNL       c24        25    -0.23480       12.0110 ; qtot   -2.995
        26           c25bf         1   UNL       c25        26     0.34500       12.0110 ; qtot   -2.650
        27           f26bf         1   UNL       f26        27    -0.10402       18.9980 ; qtot   -2.754
        28           f27bf         1   UNL       f27        28    -0.10402       18.9980 ; qtot   -2.858
        29           f28bf         1   UNL       f28        29    -0.10402       18.9980 ; qtot   -2.962
        30           c29bf         1   UNL       c29        30     0.01257       12.0110 ; qtot   -2.950
        31           c30bf         1   UNL       c30        31    -0.16291       12.0110 ; qtot   -3.113
        32           c31bf         1   UNL       c31        32     0.22672       12.0110 ; qtot   -2.886
        33           o32bf         1   UNL       o32        33    -0.45735       15.9990 ; qtot   -3.343
        34           h33bf         1   UNL       h33        34     0.29895        1.0080 ; qtot   -3.044
        35           h34bf         1   UNL       h34        35     0.05620        1.0080 ; qtot   -2.988
        36           h35bf         1   UNL       h35        36     0.05620        1.0080 ; qtot   -2.932
        37           h36bf         1   UNL       h36        37     0.05749        1.0080 ; qtot   -2.874
        38           h37bf         1   UNL       h37        38     0.05749        1.0080 ; qtot   -2.817
        39           h38bf         1   UNL       h38        39     0.03751        1.0080 ; qtot   -2.779
        40           h39bf         1   UNL       h39        40     0.03751        1.0080 ; qtot   -2.742
        41           h40bf         1   UNL       h40        41     0.43936        1.0080 ; qtot   -2.303
        42           h41bf         1   UNL       h41        42     0.30596        1.0080 ; qtot   -1.997
        43           h42bf         1   UNL       h42        43     0.06693        1.0080 ; qtot   -1.930
        44           h43bf         1   UNL       h43        44     0.06693        1.0080 ; qtot   -1.863
        45           h44bf         1   UNL       h44        45     0.06015        1.0080 ; qtot   -1.803
        46           h45bf         1   UNL       h45        46     0.05251        1.0080 ; qtot   -1.750
        47           h46bf         1   UNL       h46        47     0.05251        1.0080 ; qtot   -1.698
        48           h47bf         1   UNL       h47        48     0.04867        1.0080 ; qtot   -1.649
        49           h48bf         1   UNL       h48        49     0.04867        1.0080 ; qtot   -1.600
        50           h49bf         1   UNL       h49        50     0.06779        1.0080 ; qtot   -1.532
        51           h50bf         1   UNL       h50        51     0.05590        1.0080 ; qtot   -1.477
        52           h51bf         1   UNL       h51        52     0.11749        1.0080 ; qtot   -1.359
        53           h52bf         1   UNL       h52        53     0.11433        1.0080 ; qtot   -1.245
        54           h53bf         1   UNL       h53        54     0.11376        1.0080 ; qtot   -1.131
        55           h54bf         1   UNL       h54        55     0.11433        1.0080 ; qtot   -1.017
        56           h55bf         1   UNL       h55        56     0.11749        1.0080 ; qtot   -0.899
        57           h56bf         1   UNL       h56        57     0.45777        1.0080 ; qtot   -0.441
        58           h57bf         1   UNL       h57        58     0.11995        1.0080 ; qtot   -0.321
        59           h58bf         1   UNL       h58        59     0.13153        1.0080 ; qtot   -0.190
        60           h59bf         1   UNL       h59        60     0.13526        1.0080 ; qtot   -0.055
        61           h60bf         1   UNL       h60        61     0.05464        1.0080 ; qtot   -0.000

[ bonds ]
;       ai        aj funct               r               k
         1         2     1        0.123211   582838.452539
         2         3     1        0.138547   265149.967969
         2         8     1        0.138688   260735.138037
         3         4     1        0.146369   204076.974951
         3        34     1        0.101199   418183.189941
         4         5     1        0.153368   184322.667383
         4        35     1        0.109334   299944.356104
         4        36     1        0.109334   299944.356104
         5         6     1        0.152879   187892.819116
         5        37     1        0.109541   296488.036035
         5        38     1        0.109541   296488.036035
         6         7     1        0.143297   207525.991406
         6        39     1        0.109696   289169.279248
         6        40     1        0.109696   289169.279248
         7        41     1        0.097005   470864.663281
         8         9     1        0.145846   210081.911304
         8        42     1        0.101211   417973.760107
         9        10     1        0.153270   178188.794165
         9        43     1        0.109319   300438.652393
         9        44     1        0.109319   300438.652393
        10        11     1        0.153409   176281.644531
        10        33     1        0.143572   179928.164990
        10        45     1        0.109800   287665.066895
        11        12     1        0.153620   184015.915625
        11        46     1        0.109499   296516.203467
        11        47     1        0.109499   296516.203467
        12        13     1        0.153644   177808.316772
        12        48     1        0.109464   296701.219824
        12        49     1        0.109464   296701.219824
        13        14     1        0.154231   162728.372778
        13        32     1        0.153712   167978.406641
        13        50     1        0.109661   296507.444238
        14        15     1        0.152011   180470.777490
        14        21     1        0.146639   193821.578271
        14        51     1        0.109903   282326.712939
        15        16     1        0.140235   288447.626074
        15        20     1        0.140235   288447.626074
        16        17     1        0.139815   313021.067090
        16        52     1        0.108668   316228.298193
        17        18     1        0.139918   306554.075049
        17        53     1        0.108647   318864.672754
        18        19     1        0.139918   306554.075049
        18        54     1        0.108625   319984.475000
        19        20     1        0.139815   313021.067090
        19        55     1        0.108647   318864.672754
        20        56     1        0.108668   316228.298193
        21        22     1        0.140120   267840.276904
        21        57     1        0.101355   410549.739355
        22        23     1        0.140735   277586.438086
        22        31     1        0.141215   263372.840527
        23        24     1        0.139041   333166.398877
        23        58     1        0.108629   317015.479590
        24        25     1        0.140173   293861.288965
        24        59     1        0.108531   322344.538037
        25        26     1        0.150293   195287.382812
        25        30     1        0.139887   297622.803027
        26        27     1        0.135840   221716.758789
        26        28     1        0.135840   221716.758789
        26        29     1        0.135840   221716.758789
        30        31     1        0.139370   310255.806738
        30        60     1        0.108550   319487.752686
        31        32     1        0.151162   190895.587354
        32        33     1        0.143394   181167.749048
        32        61     1        0.110020   279291.065674

[ angles ]
;       ai        aj        ak funct           theta             cth
         1         2         3     1      123.191391      547.097583
         1         2         8     1      122.980003      552.508577
         2         3         4     1      119.333450      564.531512
         2         3        34     1      116.364037      488.870356
         2         8         9     1      119.427444      556.458593
         2         8        42     1      116.627701      483.231730
         3         2         8     1      113.926758      607.618233
         3         4         5     1      112.805580      575.048587
         3         4        35     1      107.776024      527.149940
         3         4        36     1      107.776024      527.149940
         4         3        34     1      115.556801      460.804721
         4         5         6     1      112.982864      616.740600
         4         5        37     1      109.261391      504.280788
         4         5        38     1      109.261391      504.280724
         5         4        35     1      110.000832      484.734780
         5         4        36     1      110.000832      484.734780
         5         6         7     1      111.411781      666.607552
         5         6        39     1      110.022888      494.401247
         5         6        40     1      110.022888      494.401247
         6         5        37     1      109.080811      506.812282
         6         5        38     1      109.080811      506.812282
         6         7        41     1      108.066429      592.655658
         7         6        39     1      108.762985      484.769000
         7         6        40     1      108.762985      484.769000
         8         9        10     1      112.372726      520.536116
         8         9        43     1      108.564598      523.806270
         8         9        44     1      108.564598      523.806270
         9         8        42     1      115.034805      464.947670
         9        10        11     1      113.399170      589.740916
         9        10        33     1      107.241501      611.724984
         9        10        45     1      108.188492      489.338355
        10         9        43     1      109.375198      477.820704
        10         9        44     1      109.375198      477.820704
        10        11        12     1      110.768921      657.328834
        10        11        46     1      109.166946      484.001674
        10        11        47     1      109.166946      484.001674
        10        33        32     1      113.833191      589.539556
        11        10        33     1      111.135841      560.458790
        11        10        45     1      109.262344      472.280811
        11        12        13     1      110.789017      628.541170
        11        12        48     1      109.847366      507.215353
        11        12        49     1      109.847366      507.215353
        12        11        46     1      110.407860      506.069216
        12        11        47     1      110.407860      506.069216
        12        13        14     1      113.390907      594.475624
        12        13        32     1      109.946129      599.778085
        12        13        50     1      108.811119      484.857103
        13        12        48     1      109.615433      494.102016
        13        12        49     1      109.615433      494.102016
        13        14        15     1      112.832138      539.061693
        13        14        21     1      108.654358      596.889008
        13        14        51     1      107.204910      478.962787
        13        32        31     1      112.032791      573.279695
        13        32        33     1      111.157120      582.465138
        13        32        61     1      108.313766      468.104983
        14        13        32     1      109.536171      678.085844
        14        13        50     1      107.115433      495.353525
        14        15        16     1      120.675819      480.145730
        14        15        20     1      120.675819      480.145730
        14        21        22     1      118.392113      536.379083
        14        21        57     1      113.211632      469.750690
        15        14        21     1      111.192749      590.960696
        15        14        51     1      107.631065      485.386711
        15        16        17     1      120.662560      709.918234
        15        16        52     1      119.614578      400.532004
        15        20        19     1      120.662560      709.918234
        15        20        56     1      119.614578      400.532036
        16        15        20     1      118.740906      679.590873
        16        17        18     1      120.153175      705.714506
        16        17        53     1      119.816544      429.696851
        17        16        52     1      119.686012      431.264766
        17        18        19     1      119.511429      689.005895
        17        18        54     1      120.255783      430.416551
        18        17        53     1      120.079079      431.521669
        18        19        20     1      120.153175      705.714506
        18        19        55     1      120.079079      431.521669
        19        18        54     1      120.255783      430.416551
        19        20        56     1      119.686012      431.264766
        20        19        55     1      119.816544      429.696851
        21        14        51     1      109.216263      441.919231
        21        22        23     1      119.853516      544.844699
        21        22        31     1      120.381920      586.866970
        22        21        57     1      113.638138      488.207987
        22        23        24     1      120.859085      770.216712
        22        23        58     1      119.257690      424.611327
        22        31        30     1      119.148849      776.854445
        22        31        32     1      120.031204      561.946773
        23        22        31     1      119.169983      656.365575
        23        24        25     1      119.814743      649.825202
        23        24        59     1      119.982407      418.252204
        24        23        58     1      119.795059      441.763486
        24        25        26     1      119.944275      539.726551
        24        25        30     1      119.428001      627.848668
        25        24        59     1      120.115784      419.580102
        25        26        27     1      112.050613      590.814688
        25        26        28     1      112.050613      590.814688
        25        26        29     1      112.050613      590.814688
        25        30        31     1      121.233292      658.046236
        25        30        60     1      119.835167      412.227872
        26        25        30     1      120.179886      484.271952
        27        26        28     1      106.686356      701.106079
        27        26        29     1      106.686356      701.106079
        28        26        29     1      106.686356      701.106079
        30        31        32     1      120.783203      466.032423
        31        30        60     1      118.870621      400.905516
        31        32        33     1      109.718704      615.516734
        31        32        61     1      108.529274      462.167286
        32        13        50     1      107.249771      504.973163
        33        10        45     1      107.407921      460.825215
        33        32        61     1      107.237808      474.082071
        35         4        36     1      107.443581      351.133115
        37         5        38     1      107.187393      359.855474
        39         6        40     1      107.542152      341.085859
        43         9        44     1      108.071022      348.166629
        46        11        47     1      107.051476      358.357723
        48        12        49     1      106.517052      361.462844

[ dihedrals ] ; propers for gromacs 4.5 or higher, use funct 9
;       ai        aj        ak        al funct           phase               k        pn
         1         2         3         4     9        0.000000       -0.328734         1
         1         2         3         4     9      180.000000        4.306028         2
         1         2         3         4     9        0.000000        0.819157         3
         1         2         3         4     9      180.000000       -0.274404         4
         1         2         3        34     9        0.000000       -0.070630         1
         1         2         3        34     9      180.000000        6.455974         2
         1         2         3        34     9        0.000000       -0.234714         3
         1         2         3        34     9      180.000000        0.403471         4
         1         2         8         9     9        0.000000        1.834022         1
         1         2         8         9     9      180.000000        3.682396         2
         1         2         8         9     9        0.000000        1.288376         3
         1         2         8         9     9      180.000000       -0.549406         4
         1         2         8        42     9        0.000000        0.064158         1
         1         2         8        42     9      180.000000        6.489130         2
         1         2         8        42     9        0.000000       -0.425848         3
         1         2         8        42     9      180.000000        0.418078         4
         2         3         4         5     9        0.000000       -0.320977         1
         2         3         4         5     9      180.000000       -0.895641         2
         2         3         4         5     9        0.000000        0.572188         3
         2         3         4         5     9      180.000000       -0.101598         4
         2         3         4        35     9        0.000000        0.207541         1
         2         3         4        35     9      180.000000        0.138586         2
         2         3         4        35     9        0.000000        0.398478         3
         2         3         4        35     9      180.000000        0.060368         4
         2         3         4        36     9        0.000000        0.207541         1
         2         3         4        36     9      180.000000        0.138586         2
         2         3         4        36     9        0.000000        0.398478         3
         2         3         4        36     9      180.000000        0.060368         4
         2         8         9        10     9        0.000000        0.779513         1
         2         8         9        10     9      180.000000       -0.731304         2
         2         8         9        10     9        0.000000        0.089976         3
         2         8         9        10     9      180.000000        0.083245         4
         2         8         9        43     9        0.000000        0.006733         1
         2         8         9        43     9      180.000000        0.133026         2
         2         8         9        43     9        0.000000        0.143597         3
         2         8         9        43     9      180.000000        0.044101         4
         2         8         9        44     9        0.000000        0.006733         1
         2         8         9        44     9      180.000000        0.133026         2
         2         8         9        44     9        0.000000        0.143597         3
         2         8         9        44     9      180.000000        0.044101         4
         3         2         8         9     9        0.000000        5.216001         1
         3         2         8         9     9      180.000000       11.213458         2
         3         2         8         9     9        0.000000        0.061213         3
         3         2         8         9     9      180.000000       -0.338991         4
         3         2         8        42     9        0.000000        1.193598         1
         3         2         8        42     9      180.000000       10.099381         2
         3         2         8        42     9        0.000000       -0.227883         3
         3         2         8        42     9      180.000000        0.653230         4
         3         4         5         6     9        0.000000       -0.727307         1
         3         4         5         6     9      180.000000       -0.043381         2
         3         4         5         6     9        0.000000        0.399458         3
         3         4         5         6     9      180.000000        0.016356         4
         3         4         5        37     9        0.000000        0.095028         1
         3         4         5        37     9      180.000000        0.030859         2
         3         4         5        37     9        0.000000        0.564788         3
         3         4         5        37     9      180.000000        0.012755         4
         3         4         5        38     9        0.000000        0.095028         1
         3         4         5        38     9      180.000000        0.030859         2
         3         4         5        38     9        0.000000        0.564788         3
         3         4         5        38     9      180.000000        0.012755         4
         4         3         2         8     9        0.000000        3.950057         1
         4         3         2         8     9      180.000000       11.078012         2
         4         3         2         8     9        0.000000       -0.265705         3
         4         3         2         8     9      180.000000        0.344948         4
         4         5         6         7     9        0.000000       -0.270153         1
         4         5         6         7     9      180.000000       -0.349309         2
         4         5         6         7     9        0.000000        0.536352         3
         4         5         6         7     9      180.000000        0.000556         4
         4         5         6        39     9        0.000000       -0.048782         1
         4         5         6        39     9      180.000000        0.044164         2
         4         5         6        39     9        0.000000        0.651829         3
         4         5         6        39     9      180.000000        0.074024         4
         4         5         6        40     9        0.000000       -0.048782         1
         4         5         6        40     9      180.000000        0.044164         2
         4         5         6        40     9        0.000000        0.651829         3
         4         5         6        40     9      180.000000        0.074024         4
         5         4         3        34     9        0.000000        0.404348         1
         5         4         3        34     9      180.000000       -1.033707         2
         5         4         3        34     9        0.000000        0.381861         3
         5         4         3        34     9      180.000000       -0.073442         4
         5         6         7        41     9        0.000000        1.532993         1
         5         6         7        41     9      180.000000       -1.504449         2
         5         6         7        41     9        0.000000        1.048518         3
         5         6         7        41     9      180.000000        0.068731         4
         6         5         4        35     9        0.000000        0.088949         1
         6         5         4        35     9      180.000000        0.068936         2
         6         5         4        35     9        0.000000        0.508420         3
         6         5         4        35     9      180.000000        0.049062         4
         6         5         4        36     9        0.000000        0.088949         1
         6         5         4        36     9      180.000000        0.068936         2
         6         5         4        36     9        0.000000        0.508420         3
         6         5         4        36     9      180.000000        0.049062         4
         7         6         5        37     9        0.000000        0.137310         1
         7         6         5        37     9      180.000000        0.060112         2
         7         6         5        37     9        0.000000        0.580102         3
         7         6         5        37     9      180.000000        0.076975         4
         7         6         5        38     9        0.000000        0.137310         1
         7         6         5        38     9      180.000000        0.060112         2
         7         6         5        38     9        0.000000        0.580102         3
         7         6         5        38     9      180.000000        0.076975         4
         8         2         3        34     9        0.000000        1.324397         1
         8         2         3        34     9      180.000000       10.542380         2
         8         2         3        34     9        0.000000       -0.683160         3
         8         2         3        34     9      180.000000        0.817049         4
         8         9        10        11     9        0.000000        0.162675         1
         8         9        10        11     9      180.000000        1.221406         2
         8         9        10        11     9        0.000000        0.412484         3
         8         9        10        11     9      180.000000       -0.038523         4
         8         9        10        33     9        0.000000       -0.031237         1
         8         9        10        33     9      180.000000       -0.391434         2
         8         9        10        33     9        0.000000        0.369456         3
         8         9        10        33     9      180.000000        0.003774         4
         8         9        10        45     9        0.000000        0.087509         1
         8         9        10        45     9      180.000000        0.042203         2
         8         9        10        45     9        0.000000        0.672687         3
         8         9        10        45     9      180.000000       -0.014429         4
         9        10        11        12     9        0.000000       -0.043941         1
         9        10        11        12     9      180.000000        0.426261         2
         9        10        11        12     9        0.000000        0.246382         3
         9        10        11        12     9      180.000000       -0.001400         4
         9        10        11        46     9        0.000000       -0.063980         1
         9        10        11        46     9      180.000000       -0.044299         2
         9        10        11        46     9        0.000000        0.303944         3
         9        10        11        46     9      180.000000        0.007737         4
         9        10        11        47     9        0.000000       -0.063979         1
         9        10        11        47     9      180.000000       -0.044298         2
         9        10        11        47     9        0.000000        0.303944         3
         9        10        11        47     9      180.000000        0.007737         4
         9        10        33        32     9        0.000000       -0.168504         1
         9        10        33        32     9      180.000000        0.069074         2
         9        10        33        32     9        0.000000        0.289739         3
         9        10        33        32     9      180.000000        0.091851         4
        10         9         8        42     9        0.000000        0.958007         1
        10         9         8        42     9      180.000000       -1.812098         2
        10         9         8        42     9        0.000000        0.542841         3
        10         9         8        42     9      180.000000        0.017095         4
        10        11        12        13     9        0.000000        0.748413         1
        10        11        12        13     9      180.000000       -1.143378         2
        10        11        12        13     9        0.000000        0.099120         3
        10        11        12        13     9      180.000000        0.146729         4
        10        11        12        48     9        0.000000       -0.055106         1
        10        11        12        48     9      180.000000        0.033152         2
        10        11        12        48     9        0.000000        0.186532         3
        10        11        12        48     9      180.000000        0.009348         4
        10        11        12        49     9        0.000000       -0.055106         1
        10        11        12        49     9      180.000000        0.033152         2
        10        11        12        49     9        0.000000        0.186532         3
        10        11        12        49     9      180.000000        0.009348         4
        10        33        32        13     9        0.000000        6.111974         1
        10        33        32        13     9      180.000000       -3.202733         2
        10        33        32        13     9        0.000000        0.039914         3
        10        33        32        13     9      180.000000        0.201008         4
        10        33        32        31     9        0.000000        0.283507         1
        10        33        32        31     9      180.000000       -0.980544         2
        10        33        32        31     9        0.000000        0.751012         3
        10        33        32        31     9      180.000000        0.104450         4
        10        33        32        61     9        0.000000       -0.160978         1
        10        33        32        61     9      180.000000        0.214749         2
        10        33        32        61     9        0.000000        0.641338         3
        10        33        32        61     9      180.000000        0.045644         4
        11        10         9        43     9        0.000000       -0.081747         1
        11        10         9        43     9      180.000000       -0.025568         2
        11        10         9        43     9        0.000000        0.572155         3
        11        10         9        43     9      180.000000        0.053859         4
        11        10         9        44     9        0.000000       -0.081747         1
        11        10         9        44     9      180.000000       -0.025568         2
        11        10         9        44     9        0.000000        0.572155         3
        11        10         9        44     9      180.000000        0.053859         4
        11        10        33        32     9        0.000000        4.851618         1
        11        10        33        32     9      180.000000       -1.749421         2
        11        10        33        32     9        0.000000        0.052000         3
        11        10        33        32     9      180.000000        0.165947         4
        11        12        13        14     9        0.000000        0.251673         1
        11        12        13        14     9      180.000000       -0.419055         2
        11        12        13        14     9        0.000000        0.342978         3
        11        12        13        14     9      180.000000        0.015736         4
        11        12        13        32     9        0.000000        0.894275         1
        11        12        13        32     9      180.000000       -0.959033         2
        11        12        13        32     9        0.000000        0.110473         3
        11        12        13        32     9      180.000000        0.075098         4
        11        12        13        50     9        0.000000       -0.857169         1
        11        12        13        50     9      180.000000       -0.013729         2
        11        12        13        50     9        0.000000        0.208833         3
        11        12        13        50     9      180.000000        0.137834         4
        12        11        10        33     9        0.000000       -0.267367         1
        12        11        10        33     9      180.000000       -0.455000         2
        12        11        10        33     9        0.000000        0.208639         3
        12        11        10        33     9      180.000000        0.020858         4
        12        11        10        45     9        0.000000       -0.134265         1
        12        11        10        45     9      180.000000       -0.014114         2
        12        11        10        45     9        0.000000        0.414094         3
        12        11        10        45     9      180.000000        0.016132         4
        12        13        14        15     9        0.000000        1.303541         1
        12        13        14        15     9      180.000000       -0.496284         2
        12        13        14        15     9        0.000000        0.900889         3
        12        13        14        15     9      180.000000        0.115170         4
        12        13        14        21     9        0.000000       -1.975381         1
        12        13        14        21     9      180.000000        0.761714         2
        12        13        14        21     9        0.000000        0.324624         3
        12        13        14        21     9      180.000000       -0.110841         4
        12        13        14        51     9        0.000000       -0.246554         1
        12        13        14        51     9      180.000000        0.175431         2
        12        13        14        51     9        0.000000        0.515931         3
        12        13        14        51     9      180.000000       -0.011084         4
        12        13        32        31     9        0.000000        0.503390         1
        12        13        32        31     9      180.000000       -1.292606         2
        12        13        32        31     9        0.000000        0.330058         3
        12        13        32        31     9      180.000000        0.021548         4
        12        13        32        33     9        0.000000       -0.228573         1
        12        13        32        33     9      180.000000       -1.401570         2
        12        13        32        33     9        0.000000        0.282140         3
        12        13        32        33     9      180.000000        0.116406         4
        12        13        32        61     9        0.000000       -0.100620         1
        12        13        32        61     9      180.000000        0.200570         2
        12        13        32        61     9        0.000000        0.270608         3
        12        13        32        61     9      180.000000        0.098303         4
        13        12        11        46     9        0.000000       -0.046888         1
        13        12        11        46     9      180.000000        0.013585         2
        13        12        11        46     9        0.000000        0.178988         3
        13        12        11        46     9      180.000000        0.009060         4
        13        12        11        47     9        0.000000       -0.046888         1
        13        12        11        47     9      180.000000        0.013585         2
        13        12        11        47     9        0.000000        0.178988         3
        13        12        11        47     9      180.000000        0.009060         4
        13        14        15        16     9        0.000000       -0.353839         1
        13        14        15        16     9      180.000000       -0.104567         2
        13        14        15        16     9        0.000000        0.105252         3
        13        14        15        16     9      180.000000        0.005143         4
        13        14        15        20     9        0.000000       -0.353839         1
        13        14        15        20     9      180.000000       -0.104567         2
        13        14        15        20     9        0.000000        0.105252         3
        13        14        15        20     9      180.000000        0.005143         4
        13        14        21        22     9        0.000000        5.940338         1
        13        14        21        22     9      180.000000       -3.136762         2
        13        14        21        22     9        0.000000       -0.048298         3
        13        14        21        22     9      180.000000        0.710952         4
        13        14        21        57     9        0.000000        3.523494         1
        13        14        21        57     9      180.000000       -3.065427         2
        13        14        21        57     9        0.000000        0.126340         3
        13        14        21        57     9      180.000000        0.382838         4
        13        32        31        22     9        0.000000        4.293932         1
        13        32        31        22     9      180.000000       -3.954741         2
        13        32        31        22     9        0.000000       -0.194480         3
        13        32        31        22     9      180.000000        0.800820         4
        13        32        31        30     9        0.000000       -0.542126         1
        13        32        31        30     9      180.000000       -0.814156         2
        13        32        31        30     9        0.000000       -0.584072         3
        13        32        31        30     9      180.000000        0.236434         4
        14        13        12        48     9        0.000000       -0.011596         1
        14        13        12        48     9      180.000000        0.032133         2
        14        13        12        48     9        0.000000        0.284174         3
        14        13        12        48     9      180.000000        0.002953         4
        14        13        12        49     9        0.000000       -0.011596         1
        14        13        12        49     9      180.000000        0.032133         2
        14        13        12        49     9        0.000000        0.284174         3
        14        13        12        49     9      180.000000        0.002953         4
        14        13        32        31     9        0.000000        2.021808         1
        14        13        32        31     9      180.000000       -2.858627         2
        14        13        32        31     9        0.000000        0.020285         3
        14        13        32        31     9      180.000000        0.190166         4
        14        13        32        33     9        0.000000        0.398962         1
        14        13        32        33     9      180.000000       -3.939458         2
        14        13        32        33     9        0.000000        0.116553         3
        14        13        32        33     9      180.000000        0.400885         4
        14        13        32        61     9        0.000000       -0.420340         1
        14        13        32        61     9      180.000000        0.124945         2
        14        13        32        61     9        0.000000        0.063006         3
        14        13        32        61     9      180.000000        0.141844         4
        14        15        16        17     9        0.000000        0.090192         1
        14        15        16        17     9      180.000000       14.679497         2
        14        15        16        17     9        0.000000       -0.138716         3
        14        15        16        17     9      180.000000       -0.078603         4
        14        15        16        52     9        0.000000       -0.040954         1
        14        15        16        52     9      180.000000       12.731300         2
        14        15        16        52     9        0.000000       -0.361223         3
        14        15        16        52     9      180.000000        0.182937         4
        14        15        20        19     9        0.000000        0.090192         1
        14        15        20        19     9      180.000000       14.679497         2
        14        15        20        19     9        0.000000       -0.138716         3
        14        15        20        19     9      180.000000       -0.078603         4
        14        15        20        56     9        0.000000       -0.040954         1
        14        15        20        56     9      180.000000       12.731300         2
        14        15        20        56     9        0.000000       -0.361223         3
        14        15        20        56     9      180.000000        0.182937         4
        14        21        22        23     9        0.000000       -0.720221         1
        14        21        22        23     9      180.000000        3.224797         2
        14        21        22        23     9        0.000000        0.007484         3
        14        21        22        23     9      180.000000        0.386793         4
        14        21        22        31     9        0.000000        3.392995         1
        14        21        22        31     9      180.000000        0.902665         2
        14        21        22        31     9        0.000000       -0.216725         3
        14        21        22        31     9      180.000000        0.933904         4
        15        14        13        32     9        0.000000       -0.390744         1
        15        14        13        32     9      180.000000       -0.204484         2
        15        14        13        32     9        0.000000        0.350290         3
        15        14        13        32     9      180.000000        0.075818         4
        15        14        13        50     9        0.000000        0.044425         1
        15        14        13        50     9      180.000000       -0.036011         2
        15        14        13        50     9        0.000000        0.459679         3
        15        14        13        50     9      180.000000       -0.060270         4
        15        14        21        22     9        0.000000        1.082018         1
        15        14        21        22     9      180.000000       -0.660171         2
        15        14        21        22     9        0.000000        0.773072         3
        15        14        21        22     9      180.000000        0.092282         4
        15        14        21        57     9        0.000000        3.195029         1
        15        14        21        57     9      180.000000       -1.053801         2
        15        14        21        57     9        0.000000        0.110169         3
        15        14        21        57     9      180.000000       -0.141080         4
        15        16        17        18     9        0.000000        0.027332         1
        15        16        17        18     9      180.000000       18.735526         2
        15        16        17        18     9        0.000000       -1.491713         3
        15        16        17        18     9      180.000000       -0.406339         4
        15        16        17        53     9        0.000000        0.060410         1
        15        16        17        53     9      180.000000       14.990249         2
        15        16        17        53     9        0.000000       -0.580982         3
        15        16        17        53     9      180.000000        0.057213         4
        15        20        19        18     9        0.000000        0.027332         1
        15        20        19        18     9      180.000000       18.735526         2
        15        20        19        18     9        0.000000       -1.491713         3
        15        20        19        18     9      180.000000       -0.406339         4
        15        20        19        55     9        0.000000        0.060410         1
        15        20        19        55     9      180.000000       14.990249         2
        15        20        19        55     9        0.000000       -0.580982         3
        15        20        19        55     9      180.000000        0.057213         4
        16        15        14        21     9        0.000000       -0.070386         1
        16        15        14        21     9      180.000000        0.892704         2
        16        15        14        21     9        0.000000       -0.026553         3
        16        15        14        21     9      180.000000        0.262291         4
        16        15        14        51     9        0.000000        0.166578         1
        16        15        14        51     9      180.000000        0.665435         2
        16        15        14        51     9        0.000000        0.050777         3
        16        15        14        51     9      180.000000       -0.152664         4
        16        15        20        19     9        0.000000       -0.144446         1
        16        15        20        19     9      180.000000       19.062213         2
        16        15        20        19     9        0.000000       -1.504557         3
        16        15        20        19     9      180.000000       -0.477342         4
        16        15        20        56     9        0.000000       -0.069577         1
        16        15        20        56     9      180.000000       14.508781         2
        16        15        20        56     9        0.000000       -0.591210         3
        16        15        20        56     9      180.000000       -0.002966         4
        16        17        18        19     9        0.000000       -0.058928         1
        16        17        18        19     9      180.000000       18.660778         2
        16        17        18        19     9        0.000000       -1.621207         3
        16        17        18        19     9      180.000000       -0.382782         4
        16        17        18        54     9        0.000000        0.016777         1
        16        17        18        54     9      180.000000       14.282109         2
        16        17        18        54     9        0.000000       -0.780702         3
        16        17        18        54     9      180.000000        0.125906         4
        17        16        15        20     9        0.000000       -0.144446         1
        17        16        15        20     9      180.000000       19.062213         2
        17        16        15        20     9        0.000000       -1.504557         3
        17        16        15        20     9      180.000000       -0.477342         4
        17        18        19        20     9        0.000000       -0.058928         1
        17        18        19        20     9      180.000000       18.660778         2
        17        18        19        20     9        0.000000       -1.621207         3
        17        18        19        20     9      180.000000       -0.382782         4
        17        18        19        55     9        0.000000        0.010660         1
        17        18        19        55     9      180.000000       14.271862         2
        17        18        19        55     9        0.000000       -0.794146         3
        17        18        19        55     9      180.000000        0.157356         4
        18        17        16        52     9        0.000000        0.060923         1
        18        17        16        52     9      180.000000       14.800027         2
        18        17        16        52     9        0.000000       -0.680405         3
        18        17        16        52     9      180.000000        0.105082         4
        18        19        20        56     9        0.000000        0.060923         1
        18        19        20        56     9      180.000000       14.800027         2
        18        19        20        56     9        0.000000       -0.680405         3
        18        19        20        56     9      180.000000        0.105082         4
        19        18        17        53     9        0.000000        0.010660         1
        19        18        17        53     9      180.000000       14.271862         2
        19        18        17        53     9        0.000000       -0.794146         3
        19        18        17        53     9      180.000000        0.157356         4
        20        15        14        21     9        0.000000       -0.070386         1
        20        15        14        21     9      180.000000        0.892704         2
        20        15        14        21     9        0.000000       -0.026553         3
        20        15        14        21     9      180.000000        0.262291         4
        20        15        14        51     9        0.000000        0.166578         1
        20        15        14        51     9      180.000000        0.665435         2
        20        15        14        51     9        0.000000        0.050777         3
        20        15        14        51     9      180.000000       -0.152664         4
        20        15        16        52     9        0.000000       -0.069577         1
        20        15        16        52     9      180.000000       14.508781         2
        20        15        16        52     9        0.000000       -0.591210         3
        20        15        16        52     9      180.000000       -0.002966         4
        20        19        18        54     9        0.000000        0.016777         1
        20        19        18        54     9      180.000000       14.282109         2
        20        19        18        54     9        0.000000       -0.780702         3
        20        19        18        54     9      180.000000        0.125906         4
        21        14        13        32     9        0.000000       -0.209611         1
        21        14        13        32     9      180.000000       -1.727948         2
        21        14        13        32     9        0.000000       -0.219876         3
        21        14        13        32     9      180.000000        0.203053         4
        21        14        13        50     9        0.000000       -0.081847         1
        21        14        13        50     9      180.000000        0.009201         2
        21        14        13        50     9        0.000000        0.106304         3
        21        14        13        50     9      180.000000        0.240746         4
        21        22        23        24     9        0.000000        0.394468         1
        21        22        23        24     9      180.000000       18.736531         2
        21        22        23        24     9        0.000000        0.460433         3
        21        22        23        24     9      180.000000       -0.281804         4
        21        22        23        58     9        0.000000       -0.277982         1
        21        22        23        58     9      180.000000       15.530411         2
        21        22        23        58     9        0.000000       -0.156391         3
        21        22        23        58     9      180.000000        0.040111         4
        21        22        31        30     9        0.000000        0.175401         1
        21        22        31        30     9      180.000000       17.341016         2
        21        22        31        30     9        0.000000        0.120033         3
        21        22        31        30     9      180.000000       -0.597496         4
        21        22        31        32     9        0.000000       -0.124379         1
        21        22        31        32     9      180.000000       15.923271         2
        21        22        31        32     9        0.000000        0.400657         3
        21        22        31        32     9      180.000000       -0.553014         4
        22        21        14        51     9        0.000000       -0.112048         1
        22        21        14        51     9      180.000000       -0.155155         2
        22        21        14        51     9        0.000000        0.621816         3
        22        21        14        51     9      180.000000       -0.029643         4
        22        23        24        25     9        0.000000        0.055675         1
        22        23        24        25     9      180.000000       18.406921         2
        22        23        24        25     9        0.000000       -1.912952         3
        22        23        24        25     9      180.000000       -0.412704         4
        22        23        24        59     9        0.000000        0.076473         1
        22        23        24        59     9      180.000000       14.070312         2
        22        23        24        59     9        0.000000       -0.680251         3
        22        23        24        59     9      180.000000        0.120126         4
        22        31        30        25     9        0.000000       -0.001933         1
        22        31        30        25     9      180.000000       18.915734         2
        22        31        30        25     9        0.000000       -1.767628         3
        22        31        30        25     9      180.000000       -0.421815         4
        22        31        30        60     9        0.000000        0.151073         1
        22        31        30        60     9      180.000000       14.320046         2
        22        31        30        60     9        0.000000       -0.365312         3
        22        31        30        60     9      180.000000        0.114163         4
        22        31        32        33     9        0.000000       -4.601020         1
        22        31        32        33     9      180.000000       -1.314570         2
        22        31        32        33     9        0.000000        0.668626         3
        22        31        32        33     9      180.000000       -0.196890         4
        22        31        32        61     9        0.000000       -0.042145         1
        22        31        32        61     9      180.000000        0.399596         2
        22        31        32        61     9        0.000000        0.152654         3
        22        31        32        61     9      180.000000        0.034748         4
        23        22        21        57     9        0.000000       -0.833285         1
        23        22        21        57     9      180.000000        4.468193         2
        23        22        21        57     9        0.000000        0.018400         3
        23        22        21        57     9      180.000000        0.261817         4
        23        22        31        30     9        0.000000        0.026765         1
        23        22        31        30     9      180.000000       14.737099         2
        23        22        31        30     9        0.000000       -0.705376         3
        23        22        31        30     9      180.000000       -0.274300         4
        23        22        31        32     9        0.000000        0.000280         1
        23        22        31        32     9      180.000000       12.297920         2
        23        22        31        32     9        0.000000       -0.225538         3
        23        22        31        32     9      180.000000       -0.094193         4
        23        24        25        26     9        0.000000        0.032550         1
        23        24        25        26     9      180.000000       14.438455         2
        23        24        25        26     9        0.000000       -0.070405         3
        23        24        25        26     9      180.000000       -0.263928         4
        23        24        25        30     9        0.000000       -0.087046         1
        23        24        25        30     9      180.000000       18.415396         2
        23        24        25        30     9        0.000000       -1.600674         3
        23        24        25        30     9      180.000000       -0.395144         4
        24        23        22        31     9        0.000000        0.031509         1
        24        23        22        31     9      180.000000       16.807129         2
        24        23        22        31     9        0.000000       -0.691304         3
        24        23        22        31     9      180.000000       -0.383093         4
        24        25        26        27     9        0.000000       -0.000026         1
        24        25        26        27     9      180.000000        0.048574         2
        24        25        26        27     9        0.000000        0.186873         3
        24        25        26        27     9      180.000000        0.032348         4
        24        25        26        28     9        0.000000       -0.000026         1
        24        25        26        28     9      180.000000        0.048574         2
        24        25        26        28     9        0.000000        0.186873         3
        24        25        26        28     9      180.000000        0.032348         4
        24        25        26        29     9        0.000000       -0.000026         1
        24        25        26        29     9      180.000000        0.048574         2
        24        25        26        29     9        0.000000        0.186873         3
        24        25        26        29     9      180.000000        0.032348         4
        24        25        30        31     9        0.000000       -0.011174         1
        24        25        30        31     9      180.000000       17.759799         2
        24        25        30        31     9        0.000000       -1.674413         3
        24        25        30        31     9      180.000000       -0.400159         4
        24        25        30        60     9        0.000000        0.124949         1
        24        25        30        60     9      180.000000       14.034475         2
        24        25        30        60     9        0.000000       -0.702800         3
        24        25        30        60     9      180.000000        0.060916         4
        25        24        23        58     9        0.000000        0.072241         1
        25        24        23        58     9      180.000000       15.427600         2
        25        24        23        58     9        0.000000       -0.713637         3
        25        24        23        58     9      180.000000        0.090772         4
        25        30        31        32     9        0.000000       -0.047648         1
        25        30        31        32     9      180.000000       17.449491         2
        25        30        31        32     9        0.000000       -0.523160         3
        25        30        31        32     9      180.000000       -0.431148         4
        26        25        24        59     9        0.000000        0.122363         1
        26        25        24        59     9      180.000000       11.493078         2
        26        25        24        59     9        0.000000       -0.272450         3
        26        25        24        59     9      180.000000        0.132038         4
        26        25        30        31     9        0.000000        0.031312         1
        26        25        30        31     9      180.000000       14.343546         2
        26        25        30        31     9        0.000000       -0.113217         3
        26        25        30        31     9      180.000000       -0.321206         4
        26        25        30        60     9        0.000000        0.021233         1
        26        25        30        60     9      180.000000       11.255695         2
        26        25        30        60     9        0.000000       -0.353476         3
        26        25        30        60     9      180.000000        0.163687         4
        27        26        25        30     9        0.000000       -0.028912         1
        27        26        25        30     9      180.000000        0.059371         2
        27        26        25        30     9        0.000000        0.082074         3
        27        26        25        30     9      180.000000        0.049959         4
        28        26        25        30     9        0.000000       -0.028912         1
        28        26        25        30     9      180.000000        0.059371         2
        28        26        25        30     9        0.000000        0.082074         3
        28        26        25        30     9      180.000000        0.049959         4
        29        26        25        30     9        0.000000       -0.028912         1
        29        26        25        30     9      180.000000        0.059371         2
        29        26        25        30     9        0.000000        0.082074         3
        29        26        25        30     9      180.000000        0.049959         4
        30        25        24        59     9        0.000000        0.163703         1
        30        25        24        59     9      180.000000       13.957222         2
        30        25        24        59     9        0.000000       -0.633766         3
        30        25        24        59     9      180.000000        0.029795         4
        30        31        32        33     9        0.000000       -0.427464         1
        30        31        32        33     9      180.000000        0.376565         2
        30        31        32        33     9        0.000000       -0.831731         3
        30        31        32        33     9      180.000000        0.172316         4
        30        31        32        61     9        0.000000       -0.085745         1
        30        31        32        61     9      180.000000       -0.041453         2
        30        31        32        61     9        0.000000       -0.645758         3
        30        31        32        61     9      180.000000        0.017658         4
        31        22        21        57     9        0.000000        5.986842         1
        31        22        21        57     9      180.000000        4.005795         2
        31        22        21        57     9        0.000000       -0.592975         3
        31        22        21        57     9      180.000000        0.382814         4
        31        22        23        58     9        0.000000        0.020995         1
        31        22        23        58     9      180.000000       12.789966         2
        31        22        23        58     9        0.000000       -0.209460         3
        31        22        23        58     9      180.000000        0.003016         4
        31        32        13        50     9        0.000000       -0.117974         1
        31        32        13        50     9      180.000000        0.034287         2
        31        32        13        50     9        0.000000        0.112251         3
        31        32        13        50     9      180.000000        0.233113         4
        32        13        12        48     9        0.000000       -0.118216         1
        32        13        12        48     9      180.000000        0.073215         2
        32        13        12        48     9        0.000000        0.150839         3
        32        13        12        48     9      180.000000        0.036023         4
        32        13        12        49     9        0.000000       -0.118216         1
        32        13        12        49     9      180.000000        0.073215         2
        32        13        12        49     9        0.000000        0.150839         3
        32        13        12        49     9      180.000000        0.036023         4
        32        13        14        51     9        0.000000       -0.125299         1
        32        13        14        51     9      180.000000       -0.032753         2
        32        13        14        51     9        0.000000        0.097338         3
        32        13        14        51     9      180.000000        0.143144         4
        32        31        30        60     9        0.000000       -0.033193         1
        32        31        30        60     9      180.000000       12.826043         2
        32        31        30        60     9        0.000000       -0.343923         3
        32        31        30        60     9      180.000000        0.168412         4
        32        33        10        45     9        0.000000       -0.315976         1
        32        33        10        45     9      180.000000        0.048048         2
        32        33        10        45     9        0.000000        0.404400         3
        32        33        10        45     9      180.000000        0.038400         4
        33        10         9        43     9        0.000000       -0.108709         1
        33        10         9        43     9      180.000000       -0.031336         2
        33        10         9        43     9        0.000000        0.449853         3
        33        10         9        43     9      180.000000        0.046536         4
        33        10         9        44     9        0.000000       -0.108709         1
        33        10         9        44     9      180.000000       -0.031336         2
        33        10         9        44     9        0.000000        0.449853         3
        33        10         9        44     9      180.000000        0.046536         4
        33        10        11        46     9        0.000000       -0.084066         1
        33        10        11        46     9      180.000000        0.005796         2
        33        10        11        46     9        0.000000        0.204111         3
        33        10        11        46     9      180.000000        0.007491         4
        33        10        11        47     9        0.000000       -0.084065         1
        33        10        11        47     9      180.000000        0.005797         2
        33        10        11        47     9        0.000000        0.204111         3
        33        10        11        47     9      180.000000        0.007491         4
        33        32        13        50     9        0.000000       -0.474842         1
        33        32        13        50     9      180.000000        0.172027         2
        33        32        13        50     9        0.000000        0.029214         3
        33        32        13        50     9      180.000000        0.217218         4
        34         3         4        35     9        0.000000       -0.039792         1
        34         3         4        35     9      180.000000        0.185473         2
        34         3         4        35     9        0.000000        0.498519         3
        34         3         4        35     9      180.000000        0.111912         4
        34         3         4        36     9        0.000000       -0.039792         1
        34         3         4        36     9      180.000000        0.185473         2
        34         3         4        36     9        0.000000        0.498519         3
        34         3         4        36     9      180.000000        0.111912         4
        35         4         5        37     9        0.000000       -0.032151         1
        35         4         5        37     9      180.000000        0.030846         2
        35         4         5        37     9        0.000000        0.632423         3
        35         4         5        37     9      180.000000       -0.026228         4
        35         4         5        38     9        0.000000       -0.032151         1
        35         4         5        38     9      180.000000        0.030846         2
        35         4         5        38     9        0.000000        0.632423         3
        35         4         5        38     9      180.000000       -0.026228         4
        36         4         5        37     9        0.000000       -0.032151         1
        36         4         5        37     9      180.000000        0.030846         2
        36         4         5        37     9        0.000000        0.632423         3
        36         4         5        37     9      180.000000       -0.026228         4
        36         4         5        38     9        0.000000       -0.032151         1
        36         4         5        38     9      180.000000        0.030846         2
        36         4         5        38     9        0.000000        0.632423         3
        36         4         5        38     9      180.000000       -0.026228         4
        37         5         6        39     9        0.000000        0.004570         1
        37         5         6        39     9      180.000000       -0.020920         2
        37         5         6        39     9        0.000000        0.670032         3
        37         5         6        39     9      180.000000       -0.028094         4
        37         5         6        40     9        0.000000        0.004570         1
        37         5         6        40     9      180.000000       -0.020920         2
        37         5         6        40     9        0.000000        0.670032         3
        37         5         6        40     9      180.000000       -0.028094         4
        38         5         6        39     9        0.000000        0.004570         1
        38         5         6        39     9      180.000000       -0.020920         2
        38         5         6        39     9        0.000000        0.670032         3
        38         5         6        39     9      180.000000       -0.028094         4
        38         5         6        40     9        0.000000        0.004570         1
        38         5         6        40     9      180.000000       -0.020920         2
        38         5         6        40     9        0.000000        0.670032         3
        38         5         6        40     9      180.000000       -0.028094         4
        39         6         7        41     9        0.000000       -0.077170         1
        39         6         7        41     9      180.000000       -0.292855         2
        39         6         7        41     9        0.000000        0.912684         3
        39         6         7        41     9      180.000000        0.117293         4
        40         6         7        41     9        0.000000       -0.077170         1
        40         6         7        41     9      180.000000       -0.292855         2
        40         6         7        41     9        0.000000        0.912684         3
        40         6         7        41     9      180.000000        0.117293         4
        42         8         9        43     9        0.000000       -0.201303         1
        42         8         9        43     9      180.000000        0.134827         2
        42         8         9        43     9        0.000000        0.587548         3
        42         8         9        43     9      180.000000        0.051824         4
        42         8         9        44     9        0.000000       -0.201303         1
        42         8         9        44     9      180.000000        0.134827         2
        42         8         9        44     9        0.000000        0.587548         3
        42         8         9        44     9      180.000000        0.051824         4
        43         9        10        45     9        0.000000       -0.054328         1
        43         9        10        45     9      180.000000        0.038651         2
        43         9        10        45     9        0.000000        0.708354         3
        43         9        10        45     9      180.000000       -0.067039         4
        44         9        10        45     9        0.000000       -0.054328         1
        44         9        10        45     9      180.000000        0.038651         2
        44         9        10        45     9        0.000000        0.708354         3
        44         9        10        45     9      180.000000       -0.067039         4
        45        10        11        46     9        0.000000        0.008991         1
        45        10        11        46     9      180.000000       -0.016002         2
        45        10        11        46     9        0.000000        0.463287         3
        45        10        11        46     9      180.000000       -0.049198         4
        45        10        11        47     9        0.000000        0.008991         1
        45        10        11        47     9      180.000000       -0.016002         2
        45        10        11        47     9        0.000000        0.463287         3
        45        10        11        47     9      180.000000       -0.049198         4
        46        11        12        48     9        0.000000        0.002608         1
        46        11        12        48     9      180.000000       -0.019703         2
        46        11        12        48     9        0.000000        0.279086         3
        46        11        12        48     9      180.000000        0.006997         4
        46        11        12        49     9        0.000000        0.002608         1
        46        11        12        49     9      180.000000       -0.019703         2
        46        11        12        49     9        0.000000        0.279086         3
        46        11        12        49     9      180.000000        0.006997         4
        47        11        12        48     9        0.000000        0.002608         1
        47        11        12        48     9      180.000000       -0.019702         2
        47        11        12        48     9        0.000000        0.279086         3
        47        11        12        48     9      180.000000        0.006997         4
        47        11        12        49     9        0.000000        0.002608         1
        47        11        12        49     9      180.000000       -0.019702         2
        47        11        12        49     9        0.000000        0.279086         3
        47        11        12        49     9      180.000000        0.006997         4
        48        12        13        50     9        0.000000        0.307712         1
        48        12        13        50     9      180.000000        0.073108         2
        48        12        13        50     9        0.000000        0.368973         3
        48        12        13        50     9      180.000000       -0.053939         4
        49        12        13        50     9        0.000000        0.307712         1
        49        12        13        50     9      180.000000        0.073108         2
        49        12        13        50     9        0.000000        0.368973         3
        49        12        13        50     9      180.000000       -0.053939         4
        50        13        14        51     9        0.000000        0.589952         1
        50        13        14        51     9      180.000000        0.106993         2
        50        13        14        51     9        0.000000        0.459468         3
        50        13        14        51     9      180.000000       -0.274357         4
        50        13        32        61     9        0.000000        0.101714         1
        50        13        32        61     9      180.000000        0.049917         2
        50        13        32        61     9        0.000000        0.246326         3
        50        13        32        61     9      180.000000       -0.118901         4
        51        14        21        57     9        0.000000       -0.890253         1
        51        14        21        57     9      180.000000       -0.260122         2
        51        14        21        57     9        0.000000        0.459100         3
        51        14        21        57     9      180.000000       -0.171435         4
        52        16        17        53     9        0.000000       -0.180341         1
        52        16        17        53     9      180.000000       11.789161         2
        52        16        17        53     9        0.000000       -0.659630         3
        52        16        17        53     9      180.000000        0.310085         4
        53        17        18        54     9        0.000000       -0.084557         1
        53        17        18        54     9      180.000000       11.520938         2
        53        17        18        54     9        0.000000       -0.587926         3
        53        17        18        54     9      180.000000        0.263272         4
        54        18        19        55     9        0.000000       -0.084557         1
        54        18        19        55     9      180.000000       11.520938         2
        54        18        19        55     9        0.000000       -0.587926         3
        54        18        19        55     9      180.000000        0.263272         4
        55        19        20        56     9        0.000000       -0.180341         1
        55        19        20        56     9      180.000000       11.789161         2
        55        19        20        56     9        0.000000       -0.659630         3
        55        19        20        56     9      180.000000        0.310085         4
        58        23        24        59     9        0.000000       -0.149691         1
        58        23        24        59     9      180.000000       12.317767         2
        58        23        24        59     9        0.000000       -0.778015         3
        58        23        24        59     9      180.000000        0.331038         4

[ dihedrals ] ; impropers
;       ai        aj        ak        al funct           phase               k        pn
         2         1         3         8     4      180.000000        8.268391         2
         2         3         8         1     4      180.000000        8.268391         2
         2         8         1         3     4      180.000000        8.268391         2
        16        15        17        52     4      180.000000        0.182436         2
        16        17        52        15     4      180.000000        0.182436         2
        16        52        15        17     4      180.000000        0.182436         2
        17        16        18        53     4      180.000000        0.258179         2
        17        18        53        16     4      180.000000        0.258179         2
        17        53        16        18     4      180.000000        0.258179         2
        18        17        19        54     4      180.000000        0.333132         2
        18        19        54        17     4      180.000000        0.333132         2
        18        54        17        19     4      180.000000        0.333132         2
        19        18        20        55     4      180.000000        0.258179         2
        19        20        55        18     4      180.000000        0.258179         2
        19        55        18        20     4      180.000000        0.258179         2
        20        15        19        56     4      180.000000        0.182436         2
        20        19        56        15     4      180.000000        0.182436         2
        20        56        15        19     4      180.000000        0.182436         2

[ pairs ]
;       ai        aj funct
         1         4     1
         1         9     1
         1        34     1
         1        42     1
         2         5     1
         2        10     1
         2        35     1
         2        36     1
         2        43     1
         2        44     1
         3         6     1
         3         9     1
         3        37     1
         3        38     1
         3        42     1
         4         7     1
         4         8     1
         4        39     1
         4        40     1
         5        34     1
         5        41     1
         6        35     1
         6        36     1
         7        37     1
         7        38     1
         8        11     1
         8        33     1
         8        34     1
         8        45     1
         9        12     1
         9        32     1
         9        46     1
         9        47     1
        10        13     1
        10        31     1
        10        42     1
        10        48     1
        10        49     1
        10        61     1
        11        14     1
        11        32     1
        11        43     1
        11        44     1
        11        50     1
        12        15     1
        12        21     1
        12        31     1
        12        33     1
        12        45     1
        12        51     1
        12        61     1
        13        16     1
        13        20     1
        13        22     1
        13        30     1
        13        46     1
        13        47     1
        13        57     1
        14        17     1
        14        19     1
        14        23     1
        14        31     1
        14        33     1
        14        48     1
        14        49     1
        14        52     1
        14        56     1
        14        61     1
        15        18     1
        15        22     1
        15        32     1
        15        50     1
        15        53     1
        15        55     1
        15        57     1
        16        19     1
        16        21     1
        16        51     1
        16        54     1
        16        56     1
        17        20     1
        17        55     1
        18        52     1
        18        56     1
        19        53     1
        20        21     1
        20        51     1
        20        52     1
        20        54     1
        21        24     1
        21        30     1
        21        32     1
        21        50     1
        21        58     1
        22        25     1
        22        33     1
        22        51     1
        22        59     1
        22        60     1
        22        61     1
        23        26     1
        23        30     1
        23        32     1
        23        57     1
        24        27     1
        24        28     1
        24        29     1
        24        31     1
        24        60     1
        25        32     1
        25        58     1
        26        31     1
        26        59     1
        26        60     1
        27        30     1
        28        30     1
        29        30     1
        30        33     1
        30        59     1
        30        61     1
        31        50     1
        31        57     1
        31        58     1
        32        45     1
        32        48     1
        32        49     1
        32        51     1
        32        60     1
        33        43     1
        33        44     1
        33        46     1
        33        47     1
        33        50     1
        34        35     1
        34        36     1
        35        37     1
        35        38     1
        36        37     1
        36        38     1
        37        39     1
        37        40     1
        38        39     1
        38        40     1
        39        41     1
        40        41     1
        42        43     1
        42        44     1
        43        45     1
        44        45     1
        45        46     1
        45        47     1
        46        48     1
        46        49     1
        47        48     1
        47        49     1
        48        50     1
        49        50     1
        50        51     1
        50        61     1
        51        57     1
        52        53     1
        53        54     1
        54        55     1
        55        56     1
        58        59     1
