; ITP file created by ByteFF-ML, 2026-02-21 07:39:17.650568

[ atomtypes ]
;name           bonded.type        at.num        mass        charge   ptype           sigma         epsilon
 c0bf                                   6      0.0000       0.00000       A     3.39725e-01     4.51957e-01
 c1bf                                   6      0.0000       0.00000       A     3.39741e-01     4.51504e-01
 c2bf                                   6      0.0000       0.00000       A     3.39888e-01     4.51445e-01
 c3bf                                   6      0.0000       0.00000       A     3.40224e-01     4.50974e-01
 c4bf                                   6      0.0000       0.00000       A     3.39362e-01     4.50344e-01
 c5bf                                   6      0.0000       0.00000       A     3.31416e-01     4.11566e-01
 c6bf                                   6      0.0000       0.00000       A     3.31559e-01     4.13032e-01
 c7bf                                   6      0.0000       0.00000       A     3.31517e-01     4.13352e-01
 c8bf                                   6      0.0000       0.00000       A     3.31506e-01     4.12857e-01
 c9bf                                   6      0.0000       0.00000       A     3.31517e-01     4.13352e-01
 c10bf                                  6      0.0000       0.00000       A     3.31559e-01     4.13032e-01
 n11bf                                  7      0.0000       0.00000       A     3.28286e-01     6.41163e-01
 c12bf                                  6      0.0000       0.00000       A     3.31513e-01     4.11572e-01
 c13bf                                  6      0.0000       0.00000       A     3.31472e-01     4.13830e-01
 c14bf                                  6      0.0000       0.00000       A     3.31489e-01     4.12724e-01
 c15bf                                  6      0.0000       0.00000       A     3.31526e-01     4.13444e-01
 cl16bf                                17      0.0000       0.00000       A     3.46633e-01     1.10399e+00
 c17bf                                  6      0.0000       0.00000       A     3.31452e-01     4.12075e-01
 c18bf                                  6      0.0000       0.00000       A     3.31360e-01     4.10108e-01
 c19bf                                  6      0.0000       0.00000       A     3.39786e-01     4.52443e-01
 o20bf                                  8      0.0000       0.00000       A     3.15787e-01     3.02296e-01
 h21bf                                  1      0.0000       0.00000       A     2.42137e-01     8.75316e-02
 h22bf                                  1      0.0000       0.00000       A     2.60214e-01     8.73226e-02
 h23bf                                  1      0.0000       0.00000       A     2.60214e-01     8.73226e-02
 h24bf                                  1      0.0000       0.00000       A     2.60011e-01     8.65931e-02
 h25bf                                  1      0.0000       0.00000       A     2.60011e-01     8.65931e-02
 h26bf                                  1      0.0000       0.00000       A     2.59608e-01     8.66043e-02
 h27bf                                  1      0.0000       0.00000       A     2.42675e-01     8.80520e-02
 h28bf                                  1      0.0000       0.00000       A     2.62512e-01     6.76287e-02
 h29bf                                  1      0.0000       0.00000       A     2.62458e-01     6.72647e-02
 h30bf                                  1      0.0000       0.00000       A     2.62457e-01     6.73477e-02
 h31bf                                  1      0.0000       0.00000       A     2.62458e-01     6.72647e-02
 h32bf                                  1      0.0000       0.00000       A     2.62512e-01     6.76287e-02
 h33bf                                  1      0.0000       0.00000       A     1.10887e-01     4.11451e-02
 h34bf                                  1      0.0000       0.00000       A     2.62472e-01     6.67987e-02
 h35bf                                  1      0.0000       0.00000       A     2.62486e-01     6.72871e-02
 h36bf                                  1      0.0000       0.00000       A     2.62423e-01     6.71514e-02
 h37bf                                  1      0.0000       0.00000       A     2.42784e-01     8.90399e-02
 h38bf                                  1      0.0000       0.00000       A     2.42137e-01     8.75316e-02

[ moleculetype ]
;name             nrexcl
 CHEMBL1089393         3

[ atoms ]
;       nr            type      resi   res      atom      cgnr      charge          mass ; qtot
         1            c0bf         1   UNL        c0         1     0.15360       12.0110 ; qtot    0.154
         2            c1bf         1   UNL        c1         2    -0.11007       12.0110 ; qtot    0.044
         3            c2bf         1   UNL        c2         3    -0.06818       12.0110 ; qtot   -0.025
         4            c3bf         1   UNL        c3         4    -0.09829       12.0110 ; qtot   -0.123
         5            c4bf         1   UNL        c4         5     0.26126       12.0110 ; qtot    0.138
         6            c5bf         1   UNL        c5         6    -0.10768       12.0110 ; qtot    0.031
         7            c6bf         1   UNL        c6         7    -0.09640       12.0110 ; qtot   -0.066
         8            c7bf         1   UNL        c7         8    -0.11334       12.0110 ; qtot   -0.179
         9            c8bf         1   UNL        c8         9    -0.10684       12.0110 ; qtot   -0.286
        10            c9bf         1   UNL        c9        10    -0.11334       12.0110 ; qtot   -0.399
        11           c10bf         1   UNL       c10        11    -0.09640       12.0110 ; qtot   -0.496
        12           n11bf         1   UNL       n11        12    -0.92440       14.0070 ; qtot   -1.420
        13           c12bf         1   UNL       c12        13     0.29844       12.0110 ; qtot   -1.122
        14           c13bf         1   UNL       c13        14    -0.16573       12.0110 ; qtot   -1.287
        15           c14bf         1   UNL       c14        15    -0.05684       12.0110 ; qtot   -1.344
        16           c15bf         1   UNL       c15        16     0.07218       12.0110 ; qtot   -1.272
        17          cl16bf         1   UNL      cl16        17    -0.20563       35.4530 ; qtot   -1.478
        18           c17bf         1   UNL       c17        18    -0.04039       12.0110 ; qtot   -1.518
        19           c18bf         1   UNL       c18        19    -0.14893       12.0110 ; qtot   -1.667
        20           c19bf         1   UNL       c19        20     0.22484       12.0110 ; qtot   -1.442
        21           o20bf         1   UNL       o20        21    -0.45558       15.9990 ; qtot   -1.898
        22           h21bf         1   UNL       h21        22     0.04701        1.0080 ; qtot   -1.851
        23           h22bf         1   UNL       h22        23     0.04954        1.0080 ; qtot   -1.801
        24           h23bf         1   UNL       h23        24     0.04954        1.0080 ; qtot   -1.752
        25           h24bf         1   UNL       h24        25     0.04810        1.0080 ; qtot   -1.704
        26           h25bf         1   UNL       h25        26     0.04810        1.0080 ; qtot   -1.655
        27           h26bf         1   UNL       h26        27     0.06789        1.0080 ; qtot   -1.588
        28           h27bf         1   UNL       h27        28     0.05590        1.0080 ; qtot   -1.532
        29           h28bf         1   UNL       h28        29     0.11749        1.0080 ; qtot   -1.414
        30           h29bf         1   UNL       h29        30     0.11433        1.0080 ; qtot   -1.300
        31           h30bf         1   UNL       h30        31     0.11376        1.0080 ; qtot   -1.186
        32           h31bf         1   UNL       h31        32     0.11433        1.0080 ; qtot   -1.072
        33           h32bf         1   UNL       h32        33     0.11749        1.0080 ; qtot   -0.954
        34           h33bf         1   UNL       h33        34     0.45777        1.0080 ; qtot   -0.496
        35           h34bf         1   UNL       h34        35     0.12197        1.0080 ; qtot   -0.374
        36           h35bf         1   UNL       h35        36     0.13208        1.0080 ; qtot   -0.242
        37           h36bf         1   UNL       h36        37     0.13763        1.0080 ; qtot   -0.105
        38           h37bf         1   UNL       h37        38     0.05778        1.0080 ; qtot   -0.047
        39           h38bf         1   UNL       h38        39     0.04701        1.0080 ; qtot    0.000

[ bonds ]
;       ai        aj funct               r               k
         1         2     1        0.153236   183760.135938
         1        21     1        0.143239   192866.183936
         1        22     1        0.109612   292242.746973
         1        39     1        0.109612   292242.746973
         2         3     1        0.153739   183841.892993
         2        23     1        0.109516   296518.655029
         2        24     1        0.109516   296518.655029
         3         4     1        0.153769   176136.670361
         3        25     1        0.109484   296390.177832
         3        26     1        0.109484   296390.177832
         4         5     1        0.154249   162484.672144
         4        20     1        0.153796   166837.510742
         4        27     1        0.109656   296483.005225
         5         6     1        0.152011   180470.777490
         5        12     1        0.146639   193821.578271
         5        28     1        0.109903   282326.764014
         6         7     1        0.140235   288447.651611
         6        11     1        0.140235   288447.651611
         7         8     1        0.139815   313021.067090
         7        29     1        0.108668   316228.298193
         8         9     1        0.139918   306554.075049
         8        30     1        0.108647   318864.647217
         9        10     1        0.139918   306554.075049
         9        31     1        0.108625   319984.475000
        10        11     1        0.139815   313021.067090
        10        32     1        0.108647   318864.672754
        11        33     1        0.108668   316228.298193
        12        13     1        0.139737   273244.542139
        12        34     1        0.101355   410549.739355
        13        14     1        0.140658   279028.058984
        13        19     1        0.141145   263949.877051
        14        15     1        0.139248   324814.461719
        14        35     1        0.108631   317457.067285
        15        16     1        0.139651   299657.880811
        15        36     1        0.108473   324690.657813
        16        17     1        0.175847   148922.360254
        16        18     1        0.139385   305392.238721
        18        19     1        0.139697   302542.169629
        18        37     1        0.108490   321907.444873
        19        20     1        0.151197   190564.958398
        20        21     1        0.143395   182797.514600
        20        38     1        0.110041   279256.539502

[ angles ]
;       ai        aj        ak funct           theta             cth
         1         2         3     1      110.190475      650.990141
         1         2        23     1      109.426193      501.313982
         1         2        24     1      109.426193      501.313982
         1        21        20     1      112.682434      606.989063
         2         1        21     1      111.778992      604.880655
         2         1        22     1      110.939331      481.591162
         2         1        39     1      110.939331      481.591162
         2         3         4     1      110.515076      629.788658
         2         3        25     1      110.010902      497.900661
         2         3        26     1      110.010902      497.900661
         3         2        23     1      110.377014      506.891000
         3         2        24     1      110.377014      506.891000
         3         4         5     1      113.380211      594.274902
         3         4        20     1      110.082275      607.752686
         3         4        27     1      108.744408      484.153396
         4         3        25     1      109.587547      497.756408
         4         3        26     1      109.587547      497.756408
         4         5         6     1      112.838112      537.582456
         4         5        12     1      108.700279      594.829441
         4         5        28     1      107.215530      478.678304
         4        20        19     1      112.037086      583.476344
         4        20        21     1      111.195923      584.176763
         4        20        38     1      108.327271      469.077053
         5         4        20     1      109.537025      677.137587
         5         4        27     1      107.083603      494.931461
         5         6         7     1      120.675819      480.145730
         5         6        11     1      120.675819      480.145730
         5        12        13     1      118.831604      529.031035
         5        12        34     1      113.211632      469.750690
         6         5        12     1      111.192749      590.960696
         6         5        28     1      107.631065      485.386711
         6         7         8     1      120.662560      709.918234
         6         7        29     1      119.614586      400.532036
         6        11        10     1      120.662560      709.918234
         6        11        33     1      119.614578      400.532036
         7         6        11     1      118.740906      679.590873
         7         8         9     1      120.153175      705.714506
         7         8        30     1      119.816544      429.696915
         8         7        29     1      119.686012      431.264766
         8         9        10     1      119.511429      689.005895
         8         9        31     1      120.255783      430.416551
         9         8        30     1      120.079079      431.521669
         9        10        11     1      120.153175      705.714506
         9        10        32     1      120.079079      431.521669
        10         9        31     1      120.255783      430.416551
        10        11        33     1      119.686012      431.264766
        11        10        32     1      119.816544      429.696851
        12         5        28     1      109.216263      441.919231
        12        13        14     1      119.988602      541.264651
        12        13        19     1      120.443832      568.064252
        13        12        34     1      114.065567      484.301416
        13        14        15     1      121.142700      770.613941
        13        14        35     1      119.457840      415.827615
        13        19        18     1      119.326393      760.561003
        13        19        20     1      120.169884      554.948265
        14        13        19     1      119.022446      665.576491
        14        15        16     1      119.307541      612.876005
        14        15        36     1      120.559364      415.680713
        15        14        35     1      119.434731      439.726615
        15        16        17     1      119.694801      373.818559
        15        16        18     1      120.428284      629.597002
        16        15        36     1      120.239830      418.917573
        16        18        19     1      120.563904      630.465966
        16        18        37     1      120.080956      414.275182
        17        16        18     1      119.724960      363.573678
        18        19        20     1      120.505005      487.009786
        19        18        37     1      119.583603      394.757808
        19        20        21     1      109.657593      643.726940
        19        20        38     1      108.490501      464.316840
        20         4        27     1      107.217575      504.140494
        21         1        22     1      107.407181      487.184396
        21         1        39     1      107.407181      487.184396
        21        20        38     1      107.218704      471.796468
        22         1        39     1      107.938248      342.346339
        23         2        24     1      107.040810      361.114582
        25         3        26     1      106.573685      361.821577

[ dihedrals ] ; propers for gromacs 4.5 or higher, use funct 9
;       ai        aj        ak        al funct           phase               k        pn
         1         2         3         4     9        0.000000        0.507917         1
         1         2         3         4     9      180.000000       -1.208090         2
         1         2         3         4     9        0.000000        0.130090         3
         1         2         3         4     9      180.000000        0.073228         4
         1         2         3        25     9        0.000000        0.000102         1
         1         2         3        25     9      180.000000        0.023990         2
         1         2         3        25     9        0.000000        0.203619         3
         1         2         3        25     9      180.000000        0.001387         4
         1         2         3        26     9        0.000000        0.000102         1
         1         2         3        26     9      180.000000        0.023990         2
         1         2         3        26     9        0.000000        0.203619         3
         1         2         3        26     9      180.000000        0.001387         4
         1        21        20         4     9        0.000000        5.981918         1
         1        21        20         4     9      180.000000       -3.203701         2
         1        21        20         4     9        0.000000        0.153517         3
         1        21        20         4     9      180.000000        0.192818         4
         1        21        20        19     9        0.000000       -0.182428         1
         1        21        20        19     9      180.000000       -0.834454         2
         1        21        20        19     9        0.000000        0.773623         3
         1        21        20        19     9      180.000000        0.090317         4
         1        21        20        38     9        0.000000       -0.299248         1
         1        21        20        38     9      180.000000        0.236929         2
         1        21        20        38     9        0.000000        0.655435         3
         1        21        20        38     9      180.000000        0.009921         4
         2         1        21        20     9        0.000000        2.351047         1
         2         1        21        20     9      180.000000       -2.045006         2
         2         1        21        20     9        0.000000        0.310704         3
         2         1        21        20     9      180.000000        0.213424         4
         2         3         4         5     9        0.000000        0.395446         1
         2         3         4         5     9      180.000000       -0.551868         2
         2         3         4         5     9        0.000000        0.392249         3
         2         3         4         5     9      180.000000       -0.016185         4
         2         3         4        20     9        0.000000        1.239161         1
         2         3         4        20     9      180.000000       -1.223878         2
         2         3         4        20     9        0.000000        0.112105         3
         2         3         4        20     9      180.000000        0.030582         4
         2         3         4        27     9        0.000000       -1.031951         1
         2         3         4        27     9      180.000000       -0.011603         2
         2         3         4        27     9        0.000000        0.217444         3
         2         3         4        27     9      180.000000        0.148438         4
         3         2         1        21     9        0.000000       -0.305792         1
         3         2         1        21     9      180.000000       -0.588741         2
         3         2         1        21     9        0.000000        0.317413         3
         3         2         1        21     9      180.000000        0.009755         4
         3         2         1        22     9        0.000000       -0.029572         1
         3         2         1        22     9      180.000000        0.011586         2
         3         2         1        22     9        0.000000        0.305781         3
         3         2         1        22     9      180.000000        0.022366         4
         3         2         1        39     9        0.000000       -0.029572         1
         3         2         1        39     9      180.000000        0.011586         2
         3         2         1        39     9        0.000000        0.305781         3
         3         2         1        39     9      180.000000        0.022366         4
         3         4         5         6     9        0.000000        1.473022         1
         3         4         5         6     9      180.000000       -0.623477         2
         3         4         5         6     9        0.000000        0.920725         3
         3         4         5         6     9      180.000000        0.134221         4
         3         4         5        12     9        0.000000       -1.866016         1
         3         4         5        12     9      180.000000        0.385648         2
         3         4         5        12     9        0.000000        0.375823         3
         3         4         5        12     9      180.000000       -0.085813         4
         3         4         5        28     9        0.000000       -0.277117         1
         3         4         5        28     9      180.000000        0.172516         2
         3         4         5        28     9        0.000000        0.525563         3
         3         4         5        28     9      180.000000       -0.009841         4
         3         4        20        19     9        0.000000        0.731615         1
         3         4        20        19     9      180.000000       -1.572147         2
         3         4        20        19     9        0.000000        0.320438         3
         3         4        20        19     9      180.000000        0.039306         4
         3         4        20        21     9        0.000000        0.848040         1
         3         4        20        21     9      180.000000       -2.351843         2
         3         4        20        21     9        0.000000        0.290022         3
         3         4        20        21     9      180.000000        0.158459         4
         3         4        20        38     9        0.000000       -0.173582         1
         3         4        20        38     9      180.000000        0.260651         2
         3         4        20        38     9        0.000000        0.274673         3
         3         4        20        38     9      180.000000        0.063034         4
         4         3         2        23     9        0.000000       -0.038497         1
         4         3         2        23     9      180.000000       -0.006856         2
         4         3         2        23     9        0.000000        0.153147         3
         4         3         2        23     9      180.000000       -0.007532         4
         4         3         2        24     9        0.000000       -0.038497         1
         4         3         2        24     9      180.000000       -0.006856         2
         4         3         2        24     9        0.000000        0.153147         3
         4         3         2        24     9      180.000000       -0.007532         4
         4         5         6         7     9        0.000000       -0.365202         1
         4         5         6         7     9      180.000000       -0.145741         2
         4         5         6         7     9        0.000000        0.088497         3
         4         5         6         7     9      180.000000        0.014233         4
         4         5         6        11     9        0.000000       -0.365202         1
         4         5         6        11     9      180.000000       -0.145741         2
         4         5         6        11     9        0.000000        0.088497         3
         4         5         6        11     9      180.000000        0.014233         4
         4         5        12        13     9        0.000000        6.136624         1
         4         5        12        13     9      180.000000       -3.102794         2
         4         5        12        13     9        0.000000       -0.100385         3
         4         5        12        13     9      180.000000        0.735466         4
         4         5        12        34     9        0.000000        3.511267         1
         4         5        12        34     9      180.000000       -3.172568         2
         4         5        12        34     9        0.000000        0.142632         3
         4         5        12        34     9      180.000000        0.388194         4
         4        20        19        13     9        0.000000        4.602785         1
         4        20        19        13     9      180.000000       -3.811157         2
         4        20        19        13     9        0.000000       -0.194293         3
         4        20        19        13     9      180.000000        0.805031         4
         4        20        19        18     9        0.000000       -0.514058         1
         4        20        19        18     9      180.000000       -0.931377         2
         4        20        19        18     9        0.000000       -0.536323         3
         4        20        19        18     9      180.000000        0.224601         4
         5         4         3        25     9        0.000000       -0.008818         1
         5         4         3        25     9      180.000000        0.034191         2
         5         4         3        25     9        0.000000        0.321909         3
         5         4         3        25     9      180.000000        0.000590         4
         5         4         3        26     9        0.000000       -0.008818         1
         5         4         3        26     9      180.000000        0.034191         2
         5         4         3        26     9        0.000000        0.321909         3
         5         4         3        26     9      180.000000        0.000590         4
         5         4        20        19     9        0.000000        2.207581         1
         5         4        20        19     9      180.000000       -2.802511         2
         5         4        20        19     9        0.000000        0.038856         3
         5         4        20        19     9      180.000000        0.176822         4
         5         4        20        21     9        0.000000        0.982222         1
         5         4        20        21     9      180.000000       -4.164367         2
         5         4        20        21     9        0.000000        0.092308         3
         5         4        20        21     9      180.000000        0.379009         4
         5         4        20        38     9        0.000000       -0.471263         1
         5         4        20        38     9      180.000000        0.198859         2
         5         4        20        38     9        0.000000        0.045474         3
         5         4        20        38     9      180.000000        0.133494         4
         5         6         7         8     9        0.000000        0.090192         1
         5         6         7         8     9      180.000000       14.679497         2
         5         6         7         8     9        0.000000       -0.138716         3
         5         6         7         8     9      180.000000       -0.078603         4
         5         6         7        29     9        0.000000       -0.040953         1
         5         6         7        29     9      180.000000       12.731300         2
         5         6         7        29     9        0.000000       -0.361223         3
         5         6         7        29     9      180.000000        0.182937         4
         5         6        11        10     9        0.000000        0.090192         1
         5         6        11        10     9      180.000000       14.679497         2
         5         6        11        10     9        0.000000       -0.138716         3
         5         6        11        10     9      180.000000       -0.078603         4
         5         6        11        33     9        0.000000       -0.040954         1
         5         6        11        33     9      180.000000       12.731300         2
         5         6        11        33     9        0.000000       -0.361223         3
         5         6        11        33     9      180.000000        0.182937         4
         5        12        13        14     9        0.000000       -0.866612         1
         5        12        13        14     9      180.000000        2.657232         2
         5        12        13        14     9        0.000000       -0.024975         3
         5        12        13        14     9      180.000000        0.412685         4
         5        12        13        19     9        0.000000        3.352893         1
         5        12        13        19     9      180.000000        0.527375         2
         5        12        13        19     9        0.000000       -0.143332         3
         5        12        13        19     9      180.000000        0.996004         4
         6         5         4        20     9        0.000000       -0.201493         1
         6         5         4        20     9      180.000000       -0.268950         2
         6         5         4        20     9        0.000000        0.360135         3
         6         5         4        20     9      180.000000        0.088242         4
         6         5         4        27     9        0.000000        0.066085         1
         6         5         4        27     9      180.000000       -0.040404         2
         6         5         4        27     9        0.000000        0.454037         3
         6         5         4        27     9      180.000000       -0.066673         4
         6         5        12        13     9        0.000000        1.287759         1
         6         5        12        13     9      180.000000       -0.672977         2
         6         5        12        13     9        0.000000        0.751704         3
         6         5        12        13     9      180.000000        0.093110         4
         6         5        12        34     9        0.000000        3.195029         1
         6         5        12        34     9      180.000000       -1.053801         2
         6         5        12        34     9        0.000000        0.110169         3
         6         5        12        34     9      180.000000       -0.141080         4
         6         7         8         9     9        0.000000        0.027332         1
         6         7         8         9     9      180.000000       18.735526         2
         6         7         8         9     9        0.000000       -1.491713         3
         6         7         8         9     9      180.000000       -0.406339         4
         6         7         8        30     9        0.000000        0.060409         1
         6         7         8        30     9      180.000000       14.990248         2
         6         7         8        30     9        0.000000       -0.580982         3
         6         7         8        30     9      180.000000        0.057213         4
         6        11        10         9     9        0.000000        0.027332         1
         6        11        10         9     9      180.000000       18.735526         2
         6        11        10         9     9        0.000000       -1.491713         3
         6        11        10         9     9      180.000000       -0.406339         4
         6        11        10        32     9        0.000000        0.060410         1
         6        11        10        32     9      180.000000       14.990249         2
         6        11        10        32     9        0.000000       -0.580982         3
         6        11        10        32     9      180.000000        0.057213         4
         7         6         5        12     9        0.000000       -0.070386         1
         7         6         5        12     9      180.000000        0.892704         2
         7         6         5        12     9        0.000000       -0.026553         3
         7         6         5        12     9      180.000000        0.262291         4
         7         6         5        28     9        0.000000        0.166578         1
         7         6         5        28     9      180.000000        0.665435         2
         7         6         5        28     9        0.000000        0.050777         3
         7         6         5        28     9      180.000000       -0.152664         4
         7         6        11        10     9        0.000000       -0.144446         1
         7         6        11        10     9      180.000000       19.062213         2
         7         6        11        10     9        0.000000       -1.504557         3
         7         6        11        10     9      180.000000       -0.477342         4
         7         6        11        33     9        0.000000       -0.069577         1
         7         6        11        33     9      180.000000       14.508781         2
         7         6        11        33     9        0.000000       -0.591210         3
         7         6        11        33     9      180.000000       -0.002966         4
         7         8         9        10     9        0.000000       -0.058928         1
         7         8         9        10     9      180.000000       18.660778         2
         7         8         9        10     9        0.000000       -1.621207         3
         7         8         9        10     9      180.000000       -0.382782         4
         7         8         9        31     9        0.000000        0.016777         1
         7         8         9        31     9      180.000000       14.282109         2
         7         8         9        31     9        0.000000       -0.780702         3
         7         8         9        31     9      180.000000        0.125906         4
         8         7         6        11     9        0.000000       -0.144446         1
         8         7         6        11     9      180.000000       19.062213         2
         8         7         6        11     9        0.000000       -1.504557         3
         8         7         6        11     9      180.000000       -0.477342         4
         8         9        10        11     9        0.000000       -0.058928         1
         8         9        10        11     9      180.000000       18.660778         2
         8         9        10        11     9        0.000000       -1.621207         3
         8         9        10        11     9      180.000000       -0.382782         4
         8         9        10        32     9        0.000000        0.010660         1
         8         9        10        32     9      180.000000       14.271862         2
         8         9        10        32     9        0.000000       -0.794146         3
         8         9        10        32     9      180.000000        0.157356         4
         9         8         7        29     9        0.000000        0.060923         1
         9         8         7        29     9      180.000000       14.800026         2
         9         8         7        29     9        0.000000       -0.680406         3
         9         8         7        29     9      180.000000        0.105082         4
         9        10        11        33     9        0.000000        0.060923         1
         9        10        11        33     9      180.000000       14.800027         2
         9        10        11        33     9        0.000000       -0.680405         3
         9        10        11        33     9      180.000000        0.105082         4
        10         9         8        30     9        0.000000        0.010660         1
        10         9         8        30     9      180.000000       14.271863         2
        10         9         8        30     9        0.000000       -0.794146         3
        10         9         8        30     9      180.000000        0.157356         4
        11         6         5        12     9        0.000000       -0.070386         1
        11         6         5        12     9      180.000000        0.892704         2
        11         6         5        12     9        0.000000       -0.026553         3
        11         6         5        12     9      180.000000        0.262291         4
        11         6         5        28     9        0.000000        0.166578         1
        11         6         5        28     9      180.000000        0.665435         2
        11         6         5        28     9        0.000000        0.050777         3
        11         6         5        28     9      180.000000       -0.152664         4
        11         6         7        29     9        0.000000       -0.069577         1
        11         6         7        29     9      180.000000       14.508781         2
        11         6         7        29     9        0.000000       -0.591210         3
        11         6         7        29     9      180.000000       -0.002966         4
        11        10         9        31     9        0.000000        0.016777         1
        11        10         9        31     9      180.000000       14.282109         2
        11        10         9        31     9        0.000000       -0.780702         3
        11        10         9        31     9      180.000000        0.125906         4
        12         5         4        20     9        0.000000       -0.278924         1
        12         5         4        20     9      180.000000       -1.651859         2
        12         5         4        20     9        0.000000       -0.237040         3
        12         5         4        20     9      180.000000        0.161370         4
        12         5         4        27     9        0.000000        0.031559         1
        12         5         4        27     9      180.000000       -0.020167         2
        12         5         4        27     9        0.000000        0.109361         3
        12         5         4        27     9      180.000000        0.240143         4
        12        13        14        15     9        0.000000        0.322156         1
        12        13        14        15     9      180.000000       18.960693         2
        12        13        14        15     9        0.000000        0.363098         3
        12        13        14        15     9      180.000000       -0.306388         4
        12        13        14        35     9        0.000000       -0.221897         1
        12        13        14        35     9      180.000000       15.626558         2
        12        13        14        35     9        0.000000       -0.137745         3
        12        13        14        35     9      180.000000       -0.013541         4
        12        13        19        18     9        0.000000        0.169607         1
        12        13        19        18     9      180.000000       17.174823         2
        12        13        19        18     9        0.000000        0.177577         3
        12        13        19        18     9      180.000000       -0.617171         4
        12        13        19        20     9        0.000000       -0.037374         1
        12        13        19        20     9      180.000000       15.479723         2
        12        13        19        20     9        0.000000        0.422128         3
        12        13        19        20     9      180.000000       -0.496819         4
        13        12         5        28     9        0.000000       -0.235467         1
        13        12         5        28     9      180.000000       -0.149960         2
        13        12         5        28     9        0.000000        0.590405         3
        13        12         5        28     9      180.000000       -0.027435         4
        13        14        15        16     9        0.000000        0.034056         1
        13        14        15        16     9      180.000000       18.128762         2
        13        14        15        16     9        0.000000       -1.719927         3
        13        14        15        16     9      180.000000       -0.397568         4
        13        14        15        36     9        0.000000        0.052936         1
        13        14        15        36     9      180.000000       14.074634         2
        13        14        15        36     9        0.000000       -0.677735         3
        13        14        15        36     9      180.000000        0.104846         4
        13        19        18        16     9        0.000000        0.004789         1
        13        19        18        16     9      180.000000       18.641894         2
        13        19        18        16     9        0.000000       -1.415900         3
        13        19        18        16     9      180.000000       -0.307444         4
        13        19        18        37     9        0.000000        0.116093         1
        13        19        18        37     9      180.000000       14.186284         2
        13        19        18        37     9        0.000000       -0.269543         3
        13        19        18        37     9      180.000000        0.177475         4
        13        19        20        21     9        0.000000       -3.345913         1
        13        19        20        21     9      180.000000       -1.268212         2
        13        19        20        21     9        0.000000        0.635879         3
        13        19        20        21     9      180.000000       -0.128268         4
        13        19        20        38     9        0.000000        0.108305         1
        13        19        20        38     9      180.000000        0.330982         2
        13        19        20        38     9        0.000000        0.116011         3
        13        19        20        38     9      180.000000       -0.018247         4
        14        13        12        34     9        0.000000       -0.888426         1
        14        13        12        34     9      180.000000        4.280469         2
        14        13        12        34     9        0.000000       -0.041263         3
        14        13        12        34     9      180.000000        0.259268         4
        14        13        19        18     9        0.000000        0.033515         1
        14        13        19        18     9      180.000000       14.723945         2
        14        13        19        18     9        0.000000       -0.718267         3
        14        13        19        18     9      180.000000       -0.234074         4
        14        13        19        20     9        0.000000        0.068041         1
        14        13        19        20     9      180.000000       12.153999         2
        14        13        19        20     9        0.000000       -0.135209         3
        14        13        19        20     9      180.000000       -0.081808         4
        14        15        16        17     9        0.000000        0.301572         1
        14        15        16        17     9      180.000000       18.403613         2
        14        15        16        17     9        0.000000        0.189278         3
        14        15        16        17     9      180.000000       -0.516852         4
        14        15        16        18     9        0.000000       -0.053325         1
        14        15        16        18     9      180.000000       17.537879         2
        14        15        16        18     9        0.000000       -1.362716         3
        14        15        16        18     9      180.000000       -0.373828         4
        15        14        13        19     9        0.000000        0.033900         1
        15        14        13        19     9      180.000000       17.032193         2
        15        14        13        19     9        0.000000       -0.683481         3
        15        14        13        19     9      180.000000       -0.363071         4
        15        16        18        19     9        0.000000       -0.042227         1
        15        16        18        19     9      180.000000       17.548068         2
        15        16        18        19     9        0.000000       -1.523197         3
        15        16        18        19     9      180.000000       -0.401037         4
        15        16        18        37     9        0.000000        0.000643         1
        15        16        18        37     9      180.000000       13.563375         2
        15        16        18        37     9        0.000000       -0.593907         3
        15        16        18        37     9      180.000000        0.108585         4
        16        15        14        35     9        0.000000        0.078127         1
        16        15        14        35     9      180.000000       14.389341         2
        16        15        14        35     9        0.000000       -0.550632         3
        16        15        14        35     9      180.000000        0.166357         4
        16        18        19        20     9        0.000000        0.103106         1
        16        18        19        20     9      180.000000       16.495169         2
        16        18        19        20     9        0.000000       -0.073881         3
        16        18        19        20     9      180.000000       -0.284418         4
        17        16        15        36     9        0.000000        0.240529         1
        17        16        15        36     9      180.000000       12.944200         2
        17        16        15        36     9        0.000000       -0.125166         3
        17        16        15        36     9      180.000000        0.261539         4
        17        16        18        19     9        0.000000        0.306261         1
        17        16        18        19     9      180.000000       18.523544         2
        17        16        18        19     9        0.000000        0.181899         3
        17        16        18        19     9      180.000000       -0.649962         4
        17        16        18        37     9        0.000000        0.212226         1
        17        16        18        37     9      180.000000       12.999447         2
        17        16        18        37     9        0.000000       -0.108346         3
        17        16        18        37     9      180.000000        0.278874         4
        18        16        15        36     9        0.000000        0.046825         1
        18        16        15        36     9      180.000000       13.224015         2
        18        16        15        36     9        0.000000       -0.620960         3
        18        16        15        36     9      180.000000        0.123079         4
        18        19        20        21     9        0.000000        0.126920         1
        18        19        20        21     9      180.000000        0.386646         2
        18        19        20        21     9        0.000000       -0.825643         3
        18        19        20        21     9      180.000000        0.138371         4
        18        19        20        38     9        0.000000        0.163055         1
        18        19        20        38     9      180.000000        0.057043         2
        18        19        20        38     9        0.000000       -0.654130         3
        18        19        20        38     9      180.000000       -0.076282         4
        19        13        12        34     9        0.000000        5.685852         1
        19        13        12        34     9      180.000000        3.939449         2
        19        13        12        34     9        0.000000       -0.593241         3
        19        13        12        34     9      180.000000        0.413300         4
        19        13        14        35     9        0.000000        0.001629         1
        19        13        14        35     9      180.000000       12.623887         2
        19        13        14        35     9        0.000000       -0.223379         3
        19        13        14        35     9      180.000000        0.046078         4
        19        20         4        27     9        0.000000       -0.156923         1
        19        20         4        27     9      180.000000        0.062800         2
        19        20         4        27     9        0.000000        0.091252         3
        19        20         4        27     9      180.000000        0.219709         4
        20         4         3        25     9        0.000000       -0.085590         1
        20         4         3        25     9      180.000000        0.078541         2
        20         4         3        25     9        0.000000        0.206215         3
        20         4         3        25     9      180.000000        0.019583         4
        20         4         3        26     9        0.000000       -0.085590         1
        20         4         3        26     9      180.000000        0.078541         2
        20         4         3        26     9        0.000000        0.206215         3
        20         4         3        26     9      180.000000        0.019583         4
        20         4         5        28     9        0.000000       -0.115023         1
        20         4         5        28     9      180.000000       -0.011876         2
        20         4         5        28     9        0.000000        0.092666         3
        20         4         5        28     9      180.000000        0.143644         4
        20        19        18        37     9        0.000000        0.037671         1
        20        19        18        37     9      180.000000       12.582923         2
        20        19        18        37     9        0.000000       -0.283342         3
        20        19        18        37     9      180.000000        0.194875         4
        20        21         1        22     9        0.000000       -0.067773         1
        20        21         1        22     9      180.000000        0.093059         2
        20        21         1        22     9        0.000000        0.335104         3
        20        21         1        22     9      180.000000        0.004764         4
        20        21         1        39     9        0.000000       -0.067773         1
        20        21         1        39     9      180.000000        0.093059         2
        20        21         1        39     9        0.000000        0.335104         3
        20        21         1        39     9      180.000000        0.004764         4
        21         1         2        23     9        0.000000       -0.053885         1
        21         1         2        23     9      180.000000        0.015264         2
        21         1         2        23     9        0.000000        0.210759         3
        21         1         2        23     9      180.000000        0.034689         4
        21         1         2        24     9        0.000000       -0.053885         1
        21         1         2        24     9      180.000000        0.015264         2
        21         1         2        24     9        0.000000        0.210759         3
        21         1         2        24     9      180.000000        0.034689         4
        21        20         4        27     9        0.000000       -0.536189         1
        21        20         4        27     9      180.000000        0.143501         2
        21        20         4        27     9        0.000000        0.047545         3
        21        20         4        27     9      180.000000        0.181600         4
        22         1         2        23     9        0.000000       -0.009178         1
        22         1         2        23     9      180.000000        0.003073         2
        22         1         2        23     9        0.000000        0.306791         3
        22         1         2        23     9      180.000000       -0.016783         4
        22         1         2        24     9        0.000000       -0.009178         1
        22         1         2        24     9      180.000000        0.003073         2
        22         1         2        24     9        0.000000        0.306791         3
        22         1         2        24     9      180.000000       -0.016783         4
        23         2         1        39     9        0.000000       -0.009178         1
        23         2         1        39     9      180.000000        0.003073         2
        23         2         1        39     9        0.000000        0.306791         3
        23         2         1        39     9      180.000000       -0.016784         4
        23         2         3        25     9        0.000000        0.025058         1
        23         2         3        25     9      180.000000       -0.027754         2
        23         2         3        25     9        0.000000        0.264036         3
        23         2         3        25     9      180.000000        0.007692         4
        23         2         3        26     9        0.000000        0.025058         1
        23         2         3        26     9      180.000000       -0.027754         2
        23         2         3        26     9        0.000000        0.264036         3
        23         2         3        26     9      180.000000        0.007692         4
        24         2         1        39     9        0.000000       -0.009178         1
        24         2         1        39     9      180.000000        0.003073         2
        24         2         1        39     9        0.000000        0.306791         3
        24         2         1        39     9      180.000000       -0.016784         4
        24         2         3        25     9        0.000000        0.025058         1
        24         2         3        25     9      180.000000       -0.027754         2
        24         2         3        25     9        0.000000        0.264036         3
        24         2         3        25     9      180.000000        0.007692         4
        24         2         3        26     9        0.000000        0.025058         1
        24         2         3        26     9      180.000000       -0.027754         2
        24         2         3        26     9        0.000000        0.264036         3
        24         2         3        26     9      180.000000        0.007692         4
        25         3         4        27     9        0.000000        0.338044         1
        25         3         4        27     9      180.000000        0.087981         2
        25         3         4        27     9        0.000000        0.382743         3
        25         3         4        27     9      180.000000       -0.048736         4
        26         3         4        27     9        0.000000        0.338044         1
        26         3         4        27     9      180.000000        0.087981         2
        26         3         4        27     9        0.000000        0.382743         3
        26         3         4        27     9      180.000000       -0.048736         4
        27         4         5        28     9        0.000000        0.619192         1
        27         4         5        28     9      180.000000        0.112959         2
        27         4         5        28     9        0.000000        0.465795         3
        27         4         5        28     9      180.000000       -0.276482         4
        27         4        20        38     9        0.000000        0.129792         1
        27         4        20        38     9      180.000000        0.117926         2
        27         4        20        38     9        0.000000        0.247866         3
        27         4        20        38     9      180.000000       -0.116498         4
        28         5        12        34     9        0.000000       -0.890252         1
        28         5        12        34     9      180.000000       -0.260121         2
        28         5        12        34     9        0.000000        0.459101         3
        28         5        12        34     9      180.000000       -0.171435         4
        29         7         8        30     9        0.000000       -0.180341         1
        29         7         8        30     9      180.000000       11.789159         2
        29         7         8        30     9        0.000000       -0.659630         3
        29         7         8        30     9      180.000000        0.310085         4
        30         8         9        31     9        0.000000       -0.084557         1
        30         8         9        31     9      180.000000       11.520936         2
        30         8         9        31     9        0.000000       -0.587927         3
        30         8         9        31     9      180.000000        0.263272         4
        31         9        10        32     9        0.000000       -0.084557         1
        31         9        10        32     9      180.000000       11.520938         2
        31         9        10        32     9        0.000000       -0.587926         3
        31         9        10        32     9      180.000000        0.263272         4
        32        10        11        33     9        0.000000       -0.180341         1
        32        10        11        33     9      180.000000       11.789161         2
        32        10        11        33     9        0.000000       -0.659630         3
        32        10        11        33     9      180.000000        0.310085         4
        35        14        15        36     9        0.000000       -0.100192         1
        35        14        15        36     9      180.000000       12.034001         2
        35        14        15        36     9        0.000000       -0.670935         3
        35        14        15        36     9      180.000000        0.287670         4

[ dihedrals ] ; impropers
;       ai        aj        ak        al funct           phase               k        pn
         7         6         8        29     4      180.000000        0.182437         2
         7         8        29         6     4      180.000000        0.182437         2
         7        29         6         8     4      180.000000        0.182437         2
         8         7         9        30     4      180.000000        0.258178         2
         8         9        30         7     4      180.000000        0.258178         2
         8        30         7         9     4      180.000000        0.258178         2
         9         8        10        31     4      180.000000        0.333131         2
         9        10        31         8     4      180.000000        0.333131         2
         9        31         8        10     4      180.000000        0.333131         2
        10         9        11        32     4      180.000000        0.258179         2
        10        11        32         9     4      180.000000        0.258179         2
        10        32         9        11     4      180.000000        0.258179         2
        11         6        10        33     4      180.000000        0.182436         2
        11        10        33         6     4      180.000000        0.182436         2
        11        33         6        10     4      180.000000        0.182436         2
        15        14        16        36     4      180.000000        0.399237         2
        15        16        36        14     4      180.000000        0.399237         2
        15        36        14        16     4      180.000000        0.399237         2

[ pairs ]
;       ai        aj funct
         1         4     1
         1        19     1
         1        25     1
         1        26     1
         1        38     1
         2         5     1
         2        20     1
         2        27     1
         3         6     1
         3        12     1
         3        19     1
         3        21     1
         3        22     1
         3        28     1
         3        38     1
         3        39     1
         4         7     1
         4        11     1
         4        13     1
         4        18     1
         4        23     1
         4        24     1
         4        34     1
         5         8     1
         5        10     1
         5        14     1
         5        19     1
         5        21     1
         5        25     1
         5        26     1
         5        29     1
         5        33     1
         5        38     1
         6         9     1
         6        13     1
         6        20     1
         6        27     1
         6        30     1
         6        32     1
         6        34     1
         7        10     1
         7        12     1
         7        28     1
         7        31     1
         7        33     1
         8        11     1
         8        32     1
         9        29     1
         9        33     1
        10        30     1
        11        12     1
        11        28     1
        11        29     1
        11        31     1
        12        15     1
        12        18     1
        12        20     1
        12        27     1
        12        35     1
        13        16     1
        13        21     1
        13        28     1
        13        36     1
        13        37     1
        13        38     1
        14        17     1
        14        18     1
        14        20     1
        14        34     1
        15        19     1
        15        37     1
        16        20     1
        16        35     1
        17        19     1
        17        36     1
        17        37     1
        18        21     1
        18        36     1
        18        38     1
        19        27     1
        19        34     1
        19        35     1
        20        22     1
        20        25     1
        20        26     1
        20        28     1
        20        37     1
        20        39     1
        21        23     1
        21        24     1
        21        27     1
        22        23     1
        22        24     1
        23        25     1
        23        26     1
        23        39     1
        24        25     1
        24        26     1
        24        39     1
        25        27     1
        26        27     1
        27        28     1
        27        38     1
        28        34     1
        29        30     1
        30        31     1
        31        32     1
        32        33     1
        35        36     1
