; ITP file created by ByteFF-ML, 2026-02-21 07:39:12.041884

[ atomtypes ]
;name           bonded.type        at.num        mass        charge   ptype           sigma         epsilon
 c0bf                                   6      0.0000       0.00000       A     3.39938e-01     4.50569e-01
 n1bf                                   7      0.0000       0.00000       A     3.36696e-01     3.57279e-01
 c2bf                                   6      0.0000       0.00000       A     3.39902e-01     4.50693e-01
 c3bf                                   6      0.0000       0.00000       A     3.39716e-01     4.51723e-01
 c4bf                                   6      0.0000       0.00000       A     3.39788e-01     4.50384e-01
 c5bf                                   6      0.0000       0.00000       A     3.39938e-01     4.52179e-01
 c6bf                                   6      0.0000       0.00000       A     3.40218e-01     4.51818e-01
 c7bf                                   6      0.0000       0.00000       A     3.39362e-01     4.50344e-01
 c8bf                                   6      0.0000       0.00000       A     3.31416e-01     4.11566e-01
 c9bf                                   6      0.0000       0.00000       A     3.31559e-01     4.13032e-01
 c10bf                                  6      0.0000       0.00000       A     3.31517e-01     4.13352e-01
 c11bf                                  6      0.0000       0.00000       A     3.31506e-01     4.12855e-01
 c12bf                                  6      0.0000       0.00000       A     3.31517e-01     4.13352e-01
 c13bf                                  6      0.0000       0.00000       A     3.31559e-01     4.13032e-01
 n14bf                                  7      0.0000       0.00000       A     3.28286e-01     6.41163e-01
 c15bf                                  6      0.0000       0.00000       A     3.31454e-01     4.11042e-01
 c16bf                                  6      0.0000       0.00000       A     3.31569e-01     4.14507e-01
 c17bf                                  6      0.0000       0.00000       A     3.31508e-01     4.13091e-01
 c18bf                                  6      0.0000       0.00000       A     3.31488e-01     4.14461e-01
 c19bf                                  6      0.0000       0.00000       A     3.39788e-01     4.48602e-01
 f20bf                                  9      0.0000       0.00000       A     3.03460e-01     3.47943e-01
 f21bf                                  9      0.0000       0.00000       A     3.03460e-01     3.47943e-01
 f22bf                                  9      0.0000       0.00000       A     3.03460e-01     3.47943e-01
 c23bf                                  6      0.0000       0.00000       A     3.31217e-01     4.13522e-01
 c24bf                                  6      0.0000       0.00000       A     3.31287e-01     4.10150e-01
 c25bf                                  6      0.0000       0.00000       A     3.39738e-01     4.51731e-01
 o26bf                                  8      0.0000       0.00000       A     3.15731e-01     3.04648e-01
 s27bf                                 16      0.0000       0.00000       A     4.05761e-01     2.53879e-01
 o28bf                                  8      0.0000       0.00000       A     3.04847e-01     6.11633e-01
 o29bf                                  8      0.0000       0.00000       A     3.04847e-01     6.11633e-01
 c30bf                                  6      0.0000       0.00000       A     3.39767e-01     4.51448e-01
 c31bf                                  6      0.0000       0.00000       A     3.39291e-01     4.46646e-01
 c32bf                                  6      0.0000       0.00000       A     3.39423e-01     4.53126e-01
 n33bf                                  7      0.0000       0.00000       A     2.76394e-01     4.77199e+00
 h34bf                                  1      0.0000       0.00000       A     2.41932e-01     8.68086e-02
 h35bf                                  1      0.0000       0.00000       A     2.41932e-01     8.68086e-02
 h36bf                                  1      0.0000       0.00000       A     2.41932e-01     8.68086e-02
 h37bf                                  1      0.0000       0.00000       A     2.42147e-01     8.79243e-02
 h38bf                                  1      0.0000       0.00000       A     2.42147e-01     8.79243e-02
 h39bf                                  1      0.0000       0.00000       A     2.42670e-01     8.74534e-02
 h40bf                                  1      0.0000       0.00000       A     2.59821e-01     8.71677e-02
 h41bf                                  1      0.0000       0.00000       A     2.59821e-01     8.71677e-02
 h42bf                                  1      0.0000       0.00000       A     2.60017e-01     8.63234e-02
 h43bf                                  1      0.0000       0.00000       A     2.60017e-01     8.63234e-02
 h44bf                                  1      0.0000       0.00000       A     2.59608e-01     8.66043e-02
 h45bf                                  1      0.0000       0.00000       A     2.42675e-01     8.80520e-02
 h46bf                                  1      0.0000       0.00000       A     2.62512e-01     6.76287e-02
 h47bf                                  1      0.0000       0.00000       A     2.62458e-01     6.72647e-02
 h48bf                                  1      0.0000       0.00000       A     2.62457e-01     6.73477e-02
 h49bf                                  1      0.0000       0.00000       A     2.62458e-01     6.72647e-02
 h50bf                                  1      0.0000       0.00000       A     2.62512e-01     6.76287e-02
 h51bf                                  1      0.0000       0.00000       A     1.10887e-01     4.11451e-02
 h52bf                                  1      0.0000       0.00000       A     2.62406e-01     6.70142e-02
 h53bf                                  1      0.0000       0.00000       A     2.62597e-01     6.75951e-02
 h54bf                                  1      0.0000       0.00000       A     2.62549e-01     6.73222e-02
 h55bf                                  1      0.0000       0.00000       A     2.42774e-01     8.84398e-02
 h56bf                                  1      0.0000       0.00000       A     2.41960e-01     8.73641e-02
 h57bf                                  1      0.0000       0.00000       A     2.41960e-01     8.73641e-02
 h58bf                                  1      0.0000       0.00000       A     2.60309e-01     8.86505e-02
 h59bf                                  1      0.0000       0.00000       A     2.60309e-01     8.86505e-02
 h60bf                                  1      0.0000       0.00000       A     1.87742e-01     8.74470e-02
 h61bf                                  1      0.0000       0.00000       A     1.87742e-01     8.74470e-02
 h62bf                                  1      0.0000       0.00000       A     1.10646e-01     4.11866e-02
 h63bf                                  1      0.0000       0.00000       A     1.10646e-01     4.11866e-02
 h64bf                                  1      0.0000       0.00000       A     1.10646e-01     4.11866e-02

[ moleculetype ]
;name             nrexcl
 CHEMBL1084678         3

[ atoms ]
;       nr            type      resi   res      atom      cgnr      charge          mass ; qtot
         1            c0bf         1   UNL        c0         1     0.17069       12.0110 ; qtot    0.171
         2            n1bf         1   UNL        n1         2    -0.71505       14.0070 ; qtot   -0.544
         3            c2bf         1   UNL        c2         3     0.20040       12.0110 ; qtot   -0.344
         4            c3bf         1   UNL        c3         4     0.15283       12.0110 ; qtot   -0.191
         5            c4bf         1   UNL        c4         5    -0.10079       12.0110 ; qtot   -0.292
         6            c5bf         1   UNL        c5         6    -0.06680       12.0110 ; qtot   -0.359
         7            c6bf         1   UNL        c6         7    -0.09765       12.0110 ; qtot   -0.456
         8            c7bf         1   UNL        c7         8     0.26107       12.0110 ; qtot   -0.195
         9            c8bf         1   UNL        c8         9    -0.10768       12.0110 ; qtot   -0.303
        10            c9bf         1   UNL        c9        10    -0.09640       12.0110 ; qtot   -0.399
        11           c10bf         1   UNL       c10        11    -0.11334       12.0110 ; qtot   -0.513
        12           c11bf         1   UNL       c11        12    -0.10684       12.0110 ; qtot   -0.620
        13           c12bf         1   UNL       c12        13    -0.11334       12.0110 ; qtot   -0.733
        14           c13bf         1   UNL       c13        14    -0.09640       12.0110 ; qtot   -0.829
        15           n14bf         1   UNL       n14        15    -0.92305       14.0070 ; qtot   -1.752
        16           c15bf         1   UNL       c15        16     0.30845       12.0110 ; qtot   -1.444
        17           c16bf         1   UNL       c16        17    -0.17966       12.0110 ; qtot   -1.624
        18           c17bf         1   UNL       c17        18    -0.01484       12.0110 ; qtot   -1.638
        19           c18bf         1   UNL       c18        19    -0.23480       12.0110 ; qtot   -1.873
        20           c19bf         1   UNL       c19        20     0.34500       12.0110 ; qtot   -1.528
        21           f20bf         1   UNL       f20        21    -0.10402       18.9980 ; qtot   -1.632
        22           f21bf         1   UNL       f21        22    -0.10402       18.9980 ; qtot   -1.736
        23           f22bf         1   UNL       f22        23    -0.10402       18.9980 ; qtot   -1.840
        24           c23bf         1   UNL       c23        24     0.01257       12.0110 ; qtot   -1.828
        25           c24bf         1   UNL       c24        25    -0.16291       12.0110 ; qtot   -1.991
        26           c25bf         1   UNL       c25        26     0.22682       12.0110 ; qtot   -1.764
        27           o26bf         1   UNL       o26        27    -0.45576       15.9990 ; qtot   -2.220
        28           s27bf         1   UNL       s27        28     1.12362       32.0670 ; qtot   -1.096
        29           o28bf         1   UNL       o28        29    -0.51614       15.9990 ; qtot   -1.612
        30           o29bf         1   UNL       o29        30    -0.51614       15.9990 ; qtot   -2.128
        31           c30bf         1   UNL       c30        31    -0.30579       12.0110 ; qtot   -2.434
        32           c31bf         1   UNL       c31        32    -0.06592       12.0110 ; qtot   -2.500
        33           c32bf         1   UNL       c32        33     0.12122       12.0110 ; qtot   -2.379
        34           n33bf         1   UNL       n33        34    -0.99137       14.0070 ; qtot   -3.370
        35           h34bf         1   UNL       h34        35     0.05460        1.0080 ; qtot   -3.315
        36           h35bf         1   UNL       h35        36     0.05460        1.0080 ; qtot   -3.261
        37           h36bf         1   UNL       h36        37     0.05460        1.0080 ; qtot   -3.206
        38           h37bf         1   UNL       h37        38     0.06711        1.0080 ; qtot   -3.139
        39           h38bf         1   UNL       h38        39     0.06711        1.0080 ; qtot   -3.072
        40           h39bf         1   UNL       h39        40     0.05850        1.0080 ; qtot   -3.014
        41           h40bf         1   UNL       h40        41     0.05282        1.0080 ; qtot   -2.961
        42           h41bf         1   UNL       h41        42     0.05282        1.0080 ; qtot   -2.908
        43           h42bf         1   UNL       h42        43     0.04867        1.0080 ; qtot   -2.859
        44           h43bf         1   UNL       h43        44     0.04867        1.0080 ; qtot   -2.811
        45           h44bf         1   UNL       h44        45     0.06779        1.0080 ; qtot   -2.743
        46           h45bf         1   UNL       h45        46     0.05590        1.0080 ; qtot   -2.687
        47           h46bf         1   UNL       h46        47     0.11749        1.0080 ; qtot   -2.569
        48           h47bf         1   UNL       h47        48     0.11433        1.0080 ; qtot   -2.455
        49           h48bf         1   UNL       h48        49     0.11376        1.0080 ; qtot   -2.341
        50           h49bf         1   UNL       h49        50     0.11433        1.0080 ; qtot   -2.227
        51           h50bf         1   UNL       h50        51     0.11749        1.0080 ; qtot   -2.109
        52           h51bf         1   UNL       h51        52     0.45777        1.0080 ; qtot   -1.652
        53           h52bf         1   UNL       h52        53     0.11995        1.0080 ; qtot   -1.532
        54           h53bf         1   UNL       h53        54     0.13153        1.0080 ; qtot   -1.400
        55           h54bf         1   UNL       h54        55     0.13526        1.0080 ; qtot   -1.265
        56           h55bf         1   UNL       h55        56     0.05463        1.0080 ; qtot   -1.210
        57           h56bf         1   UNL       h56        57     0.11340        1.0080 ; qtot   -1.097
        58           h57bf         1   UNL       h57        58     0.11340        1.0080 ; qtot   -0.984
        59           h58bf         1   UNL       h58        59     0.09187        1.0080 ; qtot   -0.892
        60           h59bf         1   UNL       h59        60     0.09187        1.0080 ; qtot   -0.800
        61           h60bf         1   UNL       h60        61     0.11356        1.0080 ; qtot   -0.686
        62           h61bf         1   UNL       h61        62     0.11356        1.0080 ; qtot   -0.573
        63           h62bf         1   UNL       h62        63     0.52422        1.0080 ; qtot   -0.048
        64           h63bf         1   UNL       h63        64     0.52422        1.0080 ; qtot    0.476
        65           h64bf         1   UNL       h64        65     0.52423        1.0080 ; qtot    1.000

[ bonds ]
;       ai        aj funct               r               k
         1         2     1        0.147154   190060.281274
         1        35     1        0.109244   303563.985986
         1        36     1        0.109244   303563.985986
         1        37     1        0.109244   303563.985986
         2         3     1        0.147474   177594.903149
         2        28     1        0.169026   143094.472681
         3         4     1        0.153429   175702.769336
         3        38     1        0.109315   299404.144092
         3        39     1        0.109315   299404.144092
         4         5     1        0.153456   175756.678174
         4        27     1        0.143504   180447.589795
         4        40     1        0.109758   289011.434375
         5         6     1        0.153613   184039.307617
         5        41     1        0.109487   296780.180566
         5        42     1        0.109487   296780.180566
         6         7     1        0.153644   177808.316772
         6        43     1        0.109464   296701.219824
         6        44     1        0.109464   296701.219824
         7         8     1        0.154231   162728.360010
         7        26     1        0.153712   167978.419409
         7        45     1        0.109661   296507.444238
         8         9     1        0.152011   180470.790259
         8        15     1        0.146639   193821.552734
         8        46     1        0.109903   282326.712939
         9        10     1        0.140235   288447.651611
         9        14     1        0.140235   288447.651611
        10        11     1        0.139815   313021.067090
        10        47     1        0.108668   316228.323730
        11        12     1        0.139918   306554.075049
        11        48     1        0.108647   318864.672754
        12        13     1        0.139918   306554.075049
        12        49     1        0.108625   319984.475000
        13        14     1        0.139815   313021.067090
        13        50     1        0.108647   318864.672754
        14        51     1        0.108668   316228.272656
        15        16     1        0.140120   267840.276904
        15        52     1        0.101355   410549.688281
        16        17     1        0.140735   277586.438086
        16        25     1        0.141215   263372.840527
        17        18     1        0.139041   333166.424414
        17        53     1        0.108629   317015.479590
        18        19     1        0.140173   293861.288965
        18        54     1        0.108531   322344.563574
        19        20     1        0.150293   195287.382812
        19        24     1        0.139887   297622.803027
        20        21     1        0.135840   221716.758789
        20        22     1        0.135840   221716.758789
        20        23     1        0.135840   221716.758789
        24        25     1        0.139370   310255.832275
        24        55     1        0.108550   319487.752686
        25        26     1        0.151162   190895.587354
        26        27     1        0.143374   181366.108545
        26        56     1        0.110020   279291.065674
        28        29     1        0.146820   510128.020020
        28        30     1        0.146820   510128.020020
        28        31     1        0.182324   129212.180811
        31        32     1        0.153411   180698.926025
        31        57     1        0.109232   311353.595996
        31        58     1        0.109232   311353.595996
        32        33     1        0.152935   187482.054712
        32        59     1        0.109389   301436.668164
        32        60     1        0.109389   301436.668164
        33        34     1        0.152578   131226.037256
        33        61     1        0.109030   313537.887109
        33        62     1        0.109030   313537.887109
        34        63     1        0.102778   383748.926123
        34        64     1        0.102778   383748.926123
        34        65     1        0.102778   383748.926123

[ angles ]
;       ai        aj        ak funct           theta             cth
         1         2         3     1      116.296547      592.635292
         1         2        28     1      115.792519      563.697789
         2         1        35     1      110.035080      466.231165
         2         1        36     1      110.035080      466.231165
         2         1        37     1      110.035080      466.231165
         2         3         4     1      113.667824      481.647695
         2         3        38     1      108.433350      464.337238
         2         3        39     1      108.433350      464.337238
         2        28        29     1      108.081345      647.066109
         2        28        30     1      108.081345      647.066109
         2        28        31     1      103.226089      547.581511
         3         2        28     1      117.165810      557.033561
         3         4         5     1      113.290771      583.812221
         3         4        27     1      107.441200      609.881651
         3         4        40     1      108.213661      489.307264
         4         3        38     1      109.025352      477.694678
         4         3        39     1      109.025352      477.694678
         4         5         6     1      110.757706      654.641756
         4         5        41     1      109.181808      484.282263
         4         5        42     1      109.181808      484.282263
         4        27        26     1      113.820312      586.512834
         5         4        27     1      111.043907      561.587849
         5         4        40     1      109.208519      472.413700
         5         6         7     1      110.779198      628.701032
         5         6        43     1      109.845520      507.328834
         5         6        44     1      109.845520      507.328834
         6         5        41     1      110.410477      505.824857
         6         5        42     1      110.410477      505.824857
         6         7         8     1      113.390907      594.475624
         6         7        26     1      109.946129      599.778149
         6         7        45     1      108.811119      484.857167
         7         6        43     1      109.615433      494.102047
         7         6        44     1      109.615433      494.102047
         7         8         9     1      112.832138      539.061693
         7         8        15     1      108.654358      596.888945
         7         8        46     1      107.204910      478.962851
         7        26        25     1      112.032791      573.279695
         7        26        27     1      111.139038      583.200224
         7        26        56     1      108.313766      468.104983
         8         7        26     1      109.536171      678.085908
         8         7        45     1      107.115433      495.353525
         8         9        10     1      120.675819      480.145730
         8         9        14     1      120.675819      480.145730
         8        15        16     1      118.392113      536.379083
         8        15        52     1      113.211632      469.750626
         9         8        15     1      111.192749      590.960696
         9         8        46     1      107.631065      485.386711
         9        10        11     1      120.662560      709.918234
         9        10        47     1      119.614586      400.532036
         9        14        13     1      120.662560      709.918234
         9        14        51     1      119.614586      400.532036
        10         9        14     1      118.740906      679.590873
        10        11        12     1      120.153175      705.714570
        10        11        48     1      119.816528      429.696915
        11        10        47     1      119.686012      431.264766
        11        12        13     1      119.511429      689.005895
        11        12        49     1      120.255775      430.416551
        12        11        48     1      120.079079      431.521669
        12        13        14     1      120.153175      705.714570
        12        13        50     1      120.079079      431.521669
        13        12        49     1      120.255775      430.416551
        13        14        51     1      119.686012      431.264766
        14        13        50     1      119.816528      429.696915
        15         8        46     1      109.216263      441.919263
        15        16        17     1      119.853516      544.844699
        15        16        25     1      120.381920      586.867034
        16        15        52     1      113.638138      488.207987
        16        17        18     1      120.859085      770.216712
        16        17        53     1      119.257690      424.611327
        16        25        24     1      119.148849      776.854445
        16        25        26     1      120.031204      561.946773
        17        16        25     1      119.169983      656.365511
        17        18        19     1      119.814743      649.825138
        17        18        54     1      119.982407      418.252204
        18        17        53     1      119.795059      441.763454
        18        19        20     1      119.944260      539.726551
        18        19        24     1      119.428001      627.848668
        19        18        54     1      120.115768      419.580134
        19        20        21     1      112.050613      590.814688
        19        20        22     1      112.050613      590.814688
        19        20        23     1      112.050613      590.814688
        19        24        25     1      121.233292      658.046363
        19        24        55     1      119.835167      412.227936
        20        19        24     1      120.179886      484.271952
        21        20        22     1      106.686356      701.106079
        21        20        23     1      106.686356      701.106079
        22        20        23     1      106.686356      701.106079
        24        25        26     1      120.783203      466.032423
        25        24        55     1      118.870621      400.905548
        25        26        27     1      109.736618      613.294111
        25        26        56     1      108.529274      462.167286
        26         7        45     1      107.249771      504.973163
        27         4        40     1      107.353867      462.213699
        27        26        56     1      107.296402      473.785713
        28        31        32     1      111.196083      686.247887
        28        31        57     1      106.219849      570.956585
        28        31        58     1      106.219833      570.956585
        29        28        30     1      120.864830      727.480870
        29        28        31     1      106.759293      647.239442
        30        28        31     1      106.759293      647.239442
        31        32        33     1      113.286232      573.185208
        31        32        59     1      108.947960      496.244419
        31        32        60     1      108.947960      496.244419
        32        31        57     1      112.134933      482.466223
        32        31        58     1      112.134933      482.466223
        32        33        34     1      111.070984      727.856648
        32        33        61     1      111.979637      484.173730
        32        33        62     1      111.979637      484.173730
        33        32        59     1      109.385742      516.247573
        33        32        60     1      109.385742      516.247573
        33        34        63     1      111.325783      483.272015
        33        34        64     1      111.325783      483.272015
        33        34        65     1      111.325783      483.272015
        34        33        61     1      106.109085      561.896912
        34        33        62     1      106.109085      561.896912
        35         1        36     1      108.918533      348.109043
        35         1        37     1      108.918533      348.109043
        36         1        37     1      108.918533      348.109043
        38         3        39     1      107.640671      348.526830
        41         5        42     1      107.039551      358.135837
        43         6        44     1      106.517052      361.462876
        57        31        58     1      108.945480      343.755955
        59        32        60     1      106.945755      361.847720
        61        33        62     1      108.861732      346.726527
        63        34        64     1      107.713623      403.153388
        63        34        65     1      107.713623      403.153388
        64        34        65     1      107.713623      403.153388

[ dihedrals ] ; propers for gromacs 4.5 or higher, use funct 9
;       ai        aj        ak        al funct           phase               k        pn
         1         2         3         4     9        0.000000        4.563873         1
         1         2         3         4     9      180.000000       -1.681355         2
         1         2         3         4     9        0.000000        0.945206         3
         1         2         3         4     9      180.000000        0.011996         4
         1         2         3        38     9        0.000000       -0.815080         1
         1         2         3        38     9      180.000000        0.435572         2
         1         2         3        38     9        0.000000        1.476836         3
         1         2         3        38     9      180.000000        0.078212         4
         1         2         3        39     9        0.000000       -0.815080         1
         1         2         3        39     9      180.000000        0.435572         2
         1         2         3        39     9        0.000000        1.476836         3
         1         2         3        39     9      180.000000        0.078212         4
         1         2        28        29     9        0.000000        0.340773         1
         1         2        28        29     9      180.000000        1.033263         2
         1         2        28        29     9        0.000000        0.789368         3
         1         2        28        29     9      180.000000        0.018035         4
         1         2        28        30     9        0.000000        0.340773         1
         1         2        28        30     9      180.000000        1.033263         2
         1         2        28        30     9        0.000000        0.789368         3
         1         2        28        30     9      180.000000        0.018035         4
         1         2        28        31     9        0.000000       -2.041176         1
         1         2        28        31     9      180.000000       -4.334235         2
         1         2        28        31     9        0.000000        0.938894         3
         1         2        28        31     9      180.000000       -0.855734         4
         2         3         4         5     9        0.000000        0.432391         1
         2         3         4         5     9      180.000000        0.619560         2
         2         3         4         5     9        0.000000        0.625002         3
         2         3         4         5     9      180.000000       -0.065554         4
         2         3         4        27     9        0.000000       -5.242285         1
         2         3         4        27     9      180.000000       -0.170381         2
         2         3         4        27     9        0.000000        0.400800         3
         2         3         4        27     9      180.000000       -0.070228         4
         2         3         4        40     9        0.000000       -0.055572         1
         2         3         4        40     9      180.000000       -0.078051         2
         2         3         4        40     9        0.000000        0.641608         3
         2         3         4        40     9      180.000000        0.084098         4
         2        28        31        32     9        0.000000        0.257715         1
         2        28        31        32     9      180.000000        0.167278         2
         2        28        31        32     9        0.000000        0.509433         3
         2        28        31        32     9      180.000000       -0.077880         4
         2        28        31        57     9        0.000000        0.198091         1
         2        28        31        57     9      180.000000        0.082032         2
         2        28        31        57     9        0.000000        0.419214         3
         2        28        31        57     9      180.000000        0.001737         4
         2        28        31        58     9        0.000000        0.198091         1
         2        28        31        58     9      180.000000        0.082032         2
         2        28        31        58     9        0.000000        0.419214         3
         2        28        31        58     9      180.000000        0.001737         4
         3         2         1        35     9        0.000000       -0.092125         1
         3         2         1        35     9      180.000000        0.108396         2
         3         2         1        35     9        0.000000        1.140465         3
         3         2         1        35     9      180.000000        0.000572         4
         3         2         1        36     9        0.000000       -0.092125         1
         3         2         1        36     9      180.000000        0.108396         2
         3         2         1        36     9        0.000000        1.140465         3
         3         2         1        36     9      180.000000        0.000572         4
         3         2         1        37     9        0.000000       -0.092125         1
         3         2         1        37     9      180.000000        0.108396         2
         3         2         1        37     9        0.000000        1.140465         3
         3         2         1        37     9      180.000000        0.000572         4
         3         2        28        29     9        0.000000        0.551520         1
         3         2        28        29     9      180.000000        0.937987         2
         3         2        28        29     9        0.000000        0.713016         3
         3         2        28        29     9      180.000000       -0.016962         4
         3         2        28        30     9        0.000000        0.551520         1
         3         2        28        30     9      180.000000        0.937987         2
         3         2        28        30     9        0.000000        0.713016         3
         3         2        28        30     9      180.000000       -0.016962         4
         3         2        28        31     9        0.000000       -2.867326         1
         3         2        28        31     9      180.000000       -4.804958         2
         3         2        28        31     9        0.000000        0.837646         3
         3         2        28        31     9      180.000000       -0.985594         4
         3         4         5         6     9        0.000000        0.142525         1
         3         4         5         6     9      180.000000        0.256523         2
         3         4         5         6     9        0.000000        0.254159         3
         3         4         5         6     9      180.000000        0.014349         4
         3         4         5        41     9        0.000000       -0.065523         1
         3         4         5        41     9      180.000000       -0.016216         2
         3         4         5        41     9        0.000000        0.327568         3
         3         4         5        41     9      180.000000       -0.005052         4
         3         4         5        42     9        0.000000       -0.065523         1
         3         4         5        42     9      180.000000       -0.016216         2
         3         4         5        42     9        0.000000        0.327568         3
         3         4         5        42     9      180.000000       -0.005052         4
         3         4        27        26     9        0.000000        0.595323         1
         3         4        27        26     9      180.000000       -0.559028         2
         3         4        27        26     9        0.000000        0.269563         3
         3         4        27        26     9      180.000000        0.132469         4
         4         3         2        28     9        0.000000       -0.542777         1
         4         3         2        28     9      180.000000       -0.910357         2
         4         3         2        28     9        0.000000       -0.301515         3
         4         3         2        28     9      180.000000       -0.052485         4
         4         5         6         7     9        0.000000        0.719765         1
         4         5         6         7     9      180.000000       -1.130163         2
         4         5         6         7     9        0.000000        0.106282         3
         4         5         6         7     9      180.000000        0.139048         4
         4         5         6        43     9        0.000000       -0.051122         1
         4         5         6        43     9      180.000000        0.036095         2
         4         5         6        43     9        0.000000        0.187337         3
         4         5         6        43     9      180.000000        0.006484         4
         4         5         6        44     9        0.000000       -0.051122         1
         4         5         6        44     9      180.000000        0.036095         2
         4         5         6        44     9        0.000000        0.187337         3
         4         5         6        44     9      180.000000        0.006484         4
         4        27        26         7     9        0.000000        5.841041         1
         4        27        26         7     9      180.000000       -3.073429         2
         4        27        26         7     9        0.000000        0.063432         3
         4        27        26         7     9      180.000000        0.176542         4
         4        27        26        25     9        0.000000        0.364244         1
         4        27        26        25     9      180.000000       -0.962935         2
         4        27        26        25     9        0.000000        0.741737         3
         4        27        26        25     9      180.000000        0.111015         4
         4        27        26        56     9        0.000000       -0.118617         1
         4        27        26        56     9      180.000000        0.235286         2
         4        27        26        56     9        0.000000        0.616212         3
         4        27        26        56     9      180.000000        0.040277         4
         5         4         3        38     9        0.000000       -0.210383         1
         5         4         3        38     9      180.000000       -0.003082         2
         5         4         3        38     9        0.000000        0.589372         3
         5         4         3        38     9      180.000000        0.050481         4
         5         4         3        39     9        0.000000       -0.210383         1
         5         4         3        39     9      180.000000       -0.003082         2
         5         4         3        39     9        0.000000        0.589372         3
         5         4         3        39     9      180.000000        0.050481         4
         5         4        27        26     9        0.000000        4.749083         1
         5         4        27        26     9      180.000000       -1.779955         2
         5         4        27        26     9        0.000000        0.063128         3
         5         4        27        26     9      180.000000        0.170132         4
         5         6         7         8     9        0.000000        0.248833         1
         5         6         7         8     9      180.000000       -0.410141         2
         5         6         7         8     9        0.000000        0.343080         3
         5         6         7         8     9      180.000000        0.012411         4
         5         6         7        26     9        0.000000        0.878974         1
         5         6         7        26     9      180.000000       -0.948718         2
         5         6         7        26     9        0.000000        0.109945         3
         5         6         7        26     9      180.000000        0.076164         4
         5         6         7        45     9        0.000000       -0.862753         1
         5         6         7        45     9      180.000000       -0.009937         2
         5         6         7        45     9        0.000000        0.208071         3
         5         6         7        45     9      180.000000        0.136868         4
         6         5         4        27     9        0.000000       -0.334775         1
         6         5         4        27     9      180.000000       -0.479157         2
         6         5         4        27     9        0.000000        0.211627         3
         6         5         4        27     9      180.000000        0.020987         4
         6         5         4        40     9        0.000000       -0.130842         1
         6         5         4        40     9      180.000000       -0.016224         2
         6         5         4        40     9        0.000000        0.417208         3
         6         5         4        40     9      180.000000        0.031800         4
         6         7         8         9     9        0.000000        1.303541         1
         6         7         8         9     9      180.000000       -0.496284         2
         6         7         8         9     9        0.000000        0.900889         3
         6         7         8         9     9      180.000000        0.115170         4
         6         7         8        15     9        0.000000       -1.975380         1
         6         7         8        15     9      180.000000        0.761714         2
         6         7         8        15     9        0.000000        0.324624         3
         6         7         8        15     9      180.000000       -0.110841         4
         6         7         8        46     9        0.000000       -0.246554         1
         6         7         8        46     9      180.000000        0.175431         2
         6         7         8        46     9        0.000000        0.515931         3
         6         7         8        46     9      180.000000       -0.011084         4
         6         7        26        25     9        0.000000        0.503391         1
         6         7        26        25     9      180.000000       -1.292606         2
         6         7        26        25     9        0.000000        0.330058         3
         6         7        26        25     9      180.000000        0.021548         4
         6         7        26        27     9        0.000000       -0.229141         1
         6         7        26        27     9      180.000000       -1.380089         2
         6         7        26        27     9        0.000000        0.277087         3
         6         7        26        27     9      180.000000        0.122551         4
         6         7        26        56     9        0.000000       -0.100620         1
         6         7        26        56     9      180.000000        0.200569         2
         6         7        26        56     9        0.000000        0.270608         3
         6         7        26        56     9      180.000000        0.098303         4
         7         6         5        41     9        0.000000       -0.046059         1
         7         6         5        41     9      180.000000        0.017788         2
         7         6         5        41     9        0.000000        0.182458         3
         7         6         5        41     9      180.000000        0.007862         4
         7         6         5        42     9        0.000000       -0.046059         1
         7         6         5        42     9      180.000000        0.017788         2
         7         6         5        42     9        0.000000        0.182458         3
         7         6         5        42     9      180.000000        0.007862         4
         7         8         9        10     9        0.000000       -0.353839         1
         7         8         9        10     9      180.000000       -0.104567         2
         7         8         9        10     9        0.000000        0.105252         3
         7         8         9        10     9      180.000000        0.005143         4
         7         8         9        14     9        0.000000       -0.353839         1
         7         8         9        14     9      180.000000       -0.104567         2
         7         8         9        14     9        0.000000        0.105252         3
         7         8         9        14     9      180.000000        0.005143         4
         7         8        15        16     9        0.000000        5.940340         1
         7         8        15        16     9      180.000000       -3.136762         2
         7         8        15        16     9        0.000000       -0.048298         3
         7         8        15        16     9      180.000000        0.710953         4
         7         8        15        52     9        0.000000        3.523492         1
         7         8        15        52     9      180.000000       -3.065426         2
         7         8        15        52     9        0.000000        0.126339         3
         7         8        15        52     9      180.000000        0.382838         4
         7        26        25        16     9        0.000000        4.293933         1
         7        26        25        16     9      180.000000       -3.954743         2
         7        26        25        16     9        0.000000       -0.194479         3
         7        26        25        16     9      180.000000        0.800821         4
         7        26        25        24     9        0.000000       -0.542126         1
         7        26        25        24     9      180.000000       -0.814156         2
         7        26        25        24     9        0.000000       -0.584072         3
         7        26        25        24     9      180.000000        0.236434         4
         8         7         6        43     9        0.000000       -0.011596         1
         8         7         6        43     9      180.000000        0.032133         2
         8         7         6        43     9        0.000000        0.284175         3
         8         7         6        43     9      180.000000        0.002952         4
         8         7         6        44     9        0.000000       -0.011596         1
         8         7         6        44     9      180.000000        0.032133         2
         8         7         6        44     9        0.000000        0.284175         3
         8         7         6        44     9      180.000000        0.002952         4
         8         7        26        25     9        0.000000        2.021808         1
         8         7        26        25     9      180.000000       -2.858627         2
         8         7        26        25     9        0.000000        0.020286         3
         8         7        26        25     9      180.000000        0.190165         4
         8         7        26        27     9        0.000000        0.428385         1
         8         7        26        27     9      180.000000       -3.934424         2
         8         7        26        27     9        0.000000        0.111184         3
         8         7        26        27     9      180.000000        0.408990         4
         8         7        26        56     9        0.000000       -0.420341         1
         8         7        26        56     9      180.000000        0.124945         2
         8         7        26        56     9        0.000000        0.063006         3
         8         7        26        56     9      180.000000        0.141844         4
         8         9        10        11     9        0.000000        0.090192         1
         8         9        10        11     9      180.000000       14.679497         2
         8         9        10        11     9        0.000000       -0.138716         3
         8         9        10        11     9      180.000000       -0.078602         4
         8         9        10        47     9        0.000000       -0.040953         1
         8         9        10        47     9      180.000000       12.731300         2
         8         9        10        47     9        0.000000       -0.361223         3
         8         9        10        47     9      180.000000        0.182937         4
         8         9        14        13     9        0.000000        0.090192         1
         8         9        14        13     9      180.000000       14.679497         2
         8         9        14        13     9        0.000000       -0.138716         3
         8         9        14        13     9      180.000000       -0.078602         4
         8         9        14        51     9        0.000000       -0.040953         1
         8         9        14        51     9      180.000000       12.731300         2
         8         9        14        51     9        0.000000       -0.361223         3
         8         9        14        51     9      180.000000        0.182937         4
         8        15        16        17     9        0.000000       -0.720221         1
         8        15        16        17     9      180.000000        3.224797         2
         8        15        16        17     9        0.000000        0.007484         3
         8        15        16        17     9      180.000000        0.386793         4
         8        15        16        25     9        0.000000        3.392995         1
         8        15        16        25     9      180.000000        0.902665         2
         8        15        16        25     9        0.000000       -0.216725         3
         8        15        16        25     9      180.000000        0.933904         4
         9         8         7        26     9        0.000000       -0.390745         1
         9         8         7        26     9      180.000000       -0.204484         2
         9         8         7        26     9        0.000000        0.350290         3
         9         8         7        26     9      180.000000        0.075818         4
         9         8         7        45     9        0.000000        0.044425         1
         9         8         7        45     9      180.000000       -0.036011         2
         9         8         7        45     9        0.000000        0.459679         3
         9         8         7        45     9      180.000000       -0.060270         4
         9         8        15        16     9        0.000000        1.082019         1
         9         8        15        16     9      180.000000       -0.660171         2
         9         8        15        16     9        0.000000        0.773072         3
         9         8        15        16     9      180.000000        0.092282         4
         9         8        15        52     9        0.000000        3.195030         1
         9         8        15        52     9      180.000000       -1.053801         2
         9         8        15        52     9        0.000000        0.110169         3
         9         8        15        52     9      180.000000       -0.141080         4
         9        10        11        12     9        0.000000        0.027332         1
         9        10        11        12     9      180.000000       18.735526         2
         9        10        11        12     9        0.000000       -1.491713         3
         9        10        11        12     9      180.000000       -0.406339         4
         9        10        11        48     9        0.000000        0.060410         1
         9        10        11        48     9      180.000000       14.990248         2
         9        10        11        48     9        0.000000       -0.580983         3
         9        10        11        48     9      180.000000        0.057213         4
         9        14        13        12     9        0.000000        0.027332         1
         9        14        13        12     9      180.000000       18.735526         2
         9        14        13        12     9        0.000000       -1.491713         3
         9        14        13        12     9      180.000000       -0.406339         4
         9        14        13        50     9        0.000000        0.060410         1
         9        14        13        50     9      180.000000       14.990248         2
         9        14        13        50     9        0.000000       -0.580983         3
         9        14        13        50     9      180.000000        0.057213         4
        10         9         8        15     9        0.000000       -0.070385         1
        10         9         8        15     9      180.000000        0.892704         2
        10         9         8        15     9        0.000000       -0.026553         3
        10         9         8        15     9      180.000000        0.262291         4
        10         9         8        46     9        0.000000        0.166577         1
        10         9         8        46     9      180.000000        0.665434         2
        10         9         8        46     9        0.000000        0.050777         3
        10         9         8        46     9      180.000000       -0.152664         4
        10         9        14        13     9        0.000000       -0.144447         1
        10         9        14        13     9      180.000000       19.062213         2
        10         9        14        13     9        0.000000       -1.504557         3
        10         9        14        13     9      180.000000       -0.477342         4
        10         9        14        51     9        0.000000       -0.069578         1
        10         9        14        51     9      180.000000       14.508781         2
        10         9        14        51     9        0.000000       -0.591210         3
        10         9        14        51     9      180.000000       -0.002966         4
        10        11        12        13     9        0.000000       -0.058929         1
        10        11        12        13     9      180.000000       18.660780         2
        10        11        12        13     9        0.000000       -1.621208         3
        10        11        12        13     9      180.000000       -0.382782         4
        10        11        12        49     9        0.000000        0.016776         1
        10        11        12        49     9      180.000000       14.282110         2
        10        11        12        49     9        0.000000       -0.780703         3
        10        11        12        49     9      180.000000        0.125907         4
        11        10         9        14     9        0.000000       -0.144447         1
        11        10         9        14     9      180.000000       19.062213         2
        11        10         9        14     9        0.000000       -1.504557         3
        11        10         9        14     9      180.000000       -0.477342         4
        11        12        13        14     9        0.000000       -0.058929         1
        11        12        13        14     9      180.000000       18.660780         2
        11        12        13        14     9        0.000000       -1.621208         3
        11        12        13        14     9      180.000000       -0.382782         4
        11        12        13        50     9        0.000000        0.010660         1
        11        12        13        50     9      180.000000       14.271862         2
        11        12        13        50     9        0.000000       -0.794146         3
        11        12        13        50     9      180.000000        0.157356         4
        12        11        10        47     9        0.000000        0.060923         1
        12        11        10        47     9      180.000000       14.800026         2
        12        11        10        47     9        0.000000       -0.680406         3
        12        11        10        47     9      180.000000        0.105081         4
        12        13        14        51     9        0.000000        0.060923         1
        12        13        14        51     9      180.000000       14.800026         2
        12        13        14        51     9        0.000000       -0.680406         3
        12        13        14        51     9      180.000000        0.105081         4
        13        12        11        48     9        0.000000        0.010660         1
        13        12        11        48     9      180.000000       14.271862         2
        13        12        11        48     9        0.000000       -0.794146         3
        13        12        11        48     9      180.000000        0.157356         4
        14         9         8        15     9        0.000000       -0.070385         1
        14         9         8        15     9      180.000000        0.892704         2
        14         9         8        15     9        0.000000       -0.026553         3
        14         9         8        15     9      180.000000        0.262291         4
        14         9         8        46     9        0.000000        0.166577         1
        14         9         8        46     9      180.000000        0.665434         2
        14         9         8        46     9        0.000000        0.050777         3
        14         9         8        46     9      180.000000       -0.152664         4
        14         9        10        47     9        0.000000       -0.069578         1
        14         9        10        47     9      180.000000       14.508781         2
        14         9        10        47     9        0.000000       -0.591210         3
        14         9        10        47     9      180.000000       -0.002966         4
        14        13        12        49     9        0.000000        0.016776         1
        14        13        12        49     9      180.000000       14.282110         2
        14        13        12        49     9        0.000000       -0.780703         3
        14        13        12        49     9      180.000000        0.125907         4
        15         8         7        26     9        0.000000       -0.209611         1
        15         8         7        26     9      180.000000       -1.727949         2
        15         8         7        26     9        0.000000       -0.219876         3
        15         8         7        26     9      180.000000        0.203053         4
        15         8         7        45     9        0.000000       -0.081846         1
        15         8         7        45     9      180.000000        0.009201         2
        15         8         7        45     9        0.000000        0.106304         3
        15         8         7        45     9      180.000000        0.240746         4
        15        16        17        18     9        0.000000        0.394468         1
        15        16        17        18     9      180.000000       18.736527         2
        15        16        17        18     9        0.000000        0.460433         3
        15        16        17        18     9      180.000000       -0.281803         4
        15        16        17        53     9        0.000000       -0.277981         1
        15        16        17        53     9      180.000000       15.530411         2
        15        16        17        53     9        0.000000       -0.156391         3
        15        16        17        53     9      180.000000        0.040110         4
        15        16        25        24     9        0.000000        0.175401         1
        15        16        25        24     9      180.000000       17.341018         2
        15        16        25        24     9        0.000000        0.120033         3
        15        16        25        24     9      180.000000       -0.597495         4
        15        16        25        26     9        0.000000       -0.124381         1
        15        16        25        26     9      180.000000       15.923271         2
        15        16        25        26     9        0.000000        0.400658         3
        15        16        25        26     9      180.000000       -0.553014         4
        16        15         8        46     9        0.000000       -0.112047         1
        16        15         8        46     9      180.000000       -0.155154         2
        16        15         8        46     9        0.000000        0.621817         3
        16        15         8        46     9      180.000000       -0.029643         4
        16        17        18        19     9        0.000000        0.055676         1
        16        17        18        19     9      180.000000       18.406921         2
        16        17        18        19     9        0.000000       -1.912953         3
        16        17        18        19     9      180.000000       -0.412704         4
        16        17        18        54     9        0.000000        0.076473         1
        16        17        18        54     9      180.000000       14.070312         2
        16        17        18        54     9        0.000000       -0.680250         3
        16        17        18        54     9      180.000000        0.120126         4
        16        25        24        19     9        0.000000       -0.001933         1
        16        25        24        19     9      180.000000       18.915732         2
        16        25        24        19     9        0.000000       -1.767627         3
        16        25        24        19     9      180.000000       -0.421815         4
        16        25        24        55     9        0.000000        0.151074         1
        16        25        24        55     9      180.000000       14.320046         2
        16        25        24        55     9        0.000000       -0.365311         3
        16        25        24        55     9      180.000000        0.114163         4
        16        25        26        27     9        0.000000       -4.591315         1
        16        25        26        27     9      180.000000       -1.317875         2
        16        25        26        27     9        0.000000        0.672923         3
        16        25        26        27     9      180.000000       -0.209162         4
        16        25        26        56     9        0.000000       -0.042147         1
        16        25        26        56     9      180.000000        0.399597         2
        16        25        26        56     9        0.000000        0.152654         3
        16        25        26        56     9      180.000000        0.034748         4
        17        16        15        52     9        0.000000       -0.833285         1
        17        16        15        52     9      180.000000        4.468194         2
        17        16        15        52     9        0.000000        0.018400         3
        17        16        15        52     9      180.000000        0.261817         4
        17        16        25        24     9        0.000000        0.026764         1
        17        16        25        24     9      180.000000       14.737101         2
        17        16        25        24     9        0.000000       -0.705376         3
        17        16        25        24     9      180.000000       -0.274300         4
        17        16        25        26     9        0.000000        0.000280         1
        17        16        25        26     9      180.000000       12.297920         2
        17        16        25        26     9        0.000000       -0.225538         3
        17        16        25        26     9      180.000000       -0.094193         4
        17        18        19        20     9        0.000000        0.032550         1
        17        18        19        20     9      180.000000       14.438455         2
        17        18        19        20     9        0.000000       -0.070406         3
        17        18        19        20     9      180.000000       -0.263928         4
        17        18        19        24     9        0.000000       -0.087045         1
        17        18        19        24     9      180.000000       18.415396         2
        17        18        19        24     9        0.000000       -1.600674         3
        17        18        19        24     9      180.000000       -0.395144         4
        18        17        16        25     9        0.000000        0.031508         1
        18        17        16        25     9      180.000000       16.807129         2
        18        17        16        25     9        0.000000       -0.691304         3
        18        17        16        25     9      180.000000       -0.383093         4
        18        19        20        21     9        0.000000       -0.000025         1
        18        19        20        21     9      180.000000        0.048574         2
        18        19        20        21     9        0.000000        0.186873         3
        18        19        20        21     9      180.000000        0.032348         4
        18        19        20        22     9        0.000000       -0.000025         1
        18        19        20        22     9      180.000000        0.048574         2
        18        19        20        22     9        0.000000        0.186873         3
        18        19        20        22     9      180.000000        0.032348         4
        18        19        20        23     9        0.000000       -0.000025         1
        18        19        20        23     9      180.000000        0.048574         2
        18        19        20        23     9        0.000000        0.186873         3
        18        19        20        23     9      180.000000        0.032348         4
        18        19        24        25     9        0.000000       -0.011175         1
        18        19        24        25     9      180.000000       17.759801         2
        18        19        24        25     9        0.000000       -1.674414         3
        18        19        24        25     9      180.000000       -0.400159         4
        18        19        24        55     9        0.000000        0.124948         1
        18        19        24        55     9      180.000000       14.034475         2
        18        19        24        55     9        0.000000       -0.702800         3
        18        19        24        55     9      180.000000        0.060915         4
        19        18        17        53     9        0.000000        0.072242         1
        19        18        17        53     9      180.000000       15.427600         2
        19        18        17        53     9        0.000000       -0.713637         3
        19        18        17        53     9      180.000000        0.090773         4
        19        24        25        26     9        0.000000       -0.047647         1
        19        24        25        26     9      180.000000       17.449493         2
        19        24        25        26     9        0.000000       -0.523161         3
        19        24        25        26     9      180.000000       -0.431148         4
        20        19        18        54     9        0.000000        0.122363         1
        20        19        18        54     9      180.000000       11.493078         2
        20        19        18        54     9        0.000000       -0.272449         3
        20        19        18        54     9      180.000000        0.132038         4
        20        19        24        25     9        0.000000        0.031312         1
        20        19        24        25     9      180.000000       14.343546         2
        20        19        24        25     9        0.000000       -0.113218         3
        20        19        24        25     9      180.000000       -0.321206         4
        20        19        24        55     9        0.000000        0.021233         1
        20        19        24        55     9      180.000000       11.255697         2
        20        19        24        55     9        0.000000       -0.353476         3
        20        19        24        55     9      180.000000        0.163686         4
        21        20        19        24     9        0.000000       -0.028912         1
        21        20        19        24     9      180.000000        0.059371         2
        21        20        19        24     9        0.000000        0.082074         3
        21        20        19        24     9      180.000000        0.049959         4
        22        20        19        24     9        0.000000       -0.028912         1
        22        20        19        24     9      180.000000        0.059371         2
        22        20        19        24     9        0.000000        0.082074         3
        22        20        19        24     9      180.000000        0.049959         4
        23        20        19        24     9        0.000000       -0.028912         1
        23        20        19        24     9      180.000000        0.059371         2
        23        20        19        24     9        0.000000        0.082074         3
        23        20        19        24     9      180.000000        0.049959         4
        24        19        18        54     9        0.000000        0.163703         1
        24        19        18        54     9      180.000000       13.957222         2
        24        19        18        54     9        0.000000       -0.633766         3
        24        19        18        54     9      180.000000        0.029794         4
        24        25        26        27     9        0.000000       -0.406941         1
        24        25        26        27     9      180.000000        0.393016         2
        24        25        26        27     9        0.000000       -0.825744         3
        24        25        26        27     9      180.000000        0.173004         4
        24        25        26        56     9        0.000000       -0.085745         1
        24        25        26        56     9      180.000000       -0.041454         2
        24        25        26        56     9        0.000000       -0.645758         3
        24        25        26        56     9      180.000000        0.017658         4
        25        16        15        52     9        0.000000        5.986843         1
        25        16        15        52     9      180.000000        4.005795         2
        25        16        15        52     9        0.000000       -0.592975         3
        25        16        15        52     9      180.000000        0.382813         4
        25        16        17        53     9        0.000000        0.020995         1
        25        16        17        53     9      180.000000       12.789968         2
        25        16        17        53     9        0.000000       -0.209461         3
        25        16        17        53     9      180.000000        0.003015         4
        25        26         7        45     9        0.000000       -0.117973         1
        25        26         7        45     9      180.000000        0.034288         2
        25        26         7        45     9        0.000000        0.112251         3
        25        26         7        45     9      180.000000        0.233113         4
        26         7         6        43     9        0.000000       -0.118216         1
        26         7         6        43     9      180.000000        0.073215         2
        26         7         6        43     9        0.000000        0.150839         3
        26         7         6        43     9      180.000000        0.036023         4
        26         7         6        44     9        0.000000       -0.118216         1
        26         7         6        44     9      180.000000        0.073215         2
        26         7         6        44     9        0.000000        0.150839         3
        26         7         6        44     9      180.000000        0.036023         4
        26         7         8        46     9        0.000000       -0.125298         1
        26         7         8        46     9      180.000000       -0.032753         2
        26         7         8        46     9        0.000000        0.097338         3
        26         7         8        46     9      180.000000        0.143143         4
        26        25        24        55     9        0.000000       -0.033193         1
        26        25        24        55     9      180.000000       12.826044         2
        26        25        24        55     9        0.000000       -0.343922         3
        26        25        24        55     9      180.000000        0.168412         4
        26        27         4        40     9        0.000000       -0.355627         1
        26        27         4        40     9      180.000000        0.111069         2
        26        27         4        40     9        0.000000        0.373455         3
        26        27         4        40     9      180.000000        0.031055         4
        27         4         3        38     9        0.000000        0.107277         1
        27         4         3        38     9      180.000000       -0.024731         2
        27         4         3        38     9        0.000000        0.470702         3
        27         4         3        38     9      180.000000        0.054585         4
        27         4         3        39     9        0.000000        0.107277         1
        27         4         3        39     9      180.000000       -0.024731         2
        27         4         3        39     9        0.000000        0.470702         3
        27         4         3        39     9      180.000000        0.054585         4
        27         4         5        41     9        0.000000       -0.054325         1
        27         4         5        41     9      180.000000        0.004715         2
        27         4         5        41     9        0.000000        0.203021         3
        27         4         5        41     9      180.000000        0.007364         4
        27         4         5        42     9        0.000000       -0.054325         1
        27         4         5        42     9      180.000000        0.004715         2
        27         4         5        42     9        0.000000        0.203021         3
        27         4         5        42     9      180.000000        0.007364         4
        27        26         7        45     9        0.000000       -0.495060         1
        27        26         7        45     9      180.000000        0.196896         2
        27        26         7        45     9        0.000000        0.019881         3
        27        26         7        45     9      180.000000        0.219188         4
        28         2         1        35     9        0.000000       -0.114597         1
        28         2         1        35     9      180.000000        0.006847         2
        28         2         1        35     9        0.000000       -0.026736         3
        28         2         1        35     9      180.000000       -0.000747         4
        28         2         1        36     9        0.000000       -0.114597         1
        28         2         1        36     9      180.000000        0.006847         2
        28         2         1        36     9        0.000000       -0.026736         3
        28         2         1        36     9      180.000000       -0.000747         4
        28         2         1        37     9        0.000000       -0.114597         1
        28         2         1        37     9      180.000000        0.006847         2
        28         2         1        37     9        0.000000       -0.026736         3
        28         2         1        37     9      180.000000       -0.000747         4
        28         2         3        38     9        0.000000        0.440505         1
        28         2         3        38     9      180.000000        0.133962         2
        28         2         3        38     9        0.000000       -0.426348         3
        28         2         3        38     9      180.000000        0.094125         4
        28         2         3        39     9        0.000000        0.440505         1
        28         2         3        39     9      180.000000        0.133962         2
        28         2         3        39     9        0.000000       -0.426348         3
        28         2         3        39     9      180.000000        0.094125         4
        28        31        32        33     9        0.000000       -0.725395         1
        28        31        32        33     9      180.000000       -0.969269         2
        28        31        32        33     9        0.000000        0.231793         3
        28        31        32        33     9      180.000000        0.071557         4
        28        31        32        59     9        0.000000        0.114117         1
        28        31        32        59     9      180.000000       -0.079973         2
        28        31        32        59     9        0.000000        0.147259         3
        28        31        32        59     9      180.000000        0.045650         4
        28        31        32        60     9        0.000000        0.114117         1
        28        31        32        60     9      180.000000       -0.079973         2
        28        31        32        60     9        0.000000        0.147259         3
        28        31        32        60     9      180.000000        0.045650         4
        29        28        31        32     9        0.000000        0.138791         1
        29        28        31        32     9      180.000000        0.775223         2
        29        28        31        32     9        0.000000        0.448659         3
        29        28        31        32     9      180.000000       -0.064323         4
        29        28        31        57     9        0.000000        0.036550         1
        29        28        31        57     9      180.000000       -0.027786         2
        29        28        31        57     9        0.000000        0.431495         3
        29        28        31        57     9      180.000000        0.015952         4
        29        28        31        58     9        0.000000        0.036550         1
        29        28        31        58     9      180.000000       -0.027786         2
        29        28        31        58     9        0.000000        0.431495         3
        29        28        31        58     9      180.000000        0.015952         4
        30        28        31        32     9        0.000000        0.138791         1
        30        28        31        32     9      180.000000        0.775223         2
        30        28        31        32     9        0.000000        0.448659         3
        30        28        31        32     9      180.000000       -0.064323         4
        30        28        31        57     9        0.000000        0.036550         1
        30        28        31        57     9      180.000000       -0.027786         2
        30        28        31        57     9        0.000000        0.431495         3
        30        28        31        57     9      180.000000        0.015952         4
        30        28        31        58     9        0.000000        0.036550         1
        30        28        31        58     9      180.000000       -0.027786         2
        30        28        31        58     9        0.000000        0.431495         3
        30        28        31        58     9      180.000000        0.015952         4
        31        32        33        34     9        0.000000        2.293485         1
        31        32        33        34     9      180.000000       -1.020483         2
        31        32        33        34     9        0.000000        0.545330         3
        31        32        33        34     9      180.000000       -0.091658         4
        31        32        33        61     9        0.000000       -0.250996         1
        31        32        33        61     9      180.000000        0.038333         2
        31        32        33        61     9        0.000000        0.697241         3
        31        32        33        61     9      180.000000        0.038372         4
        31        32        33        62     9        0.000000       -0.250996         1
        31        32        33        62     9      180.000000        0.038333         2
        31        32        33        62     9        0.000000        0.697241         3
        31        32        33        62     9      180.000000        0.038372         4
        32        33        34        63     9        0.000000       -0.321480         1
        32        33        34        63     9      180.000000       -0.030978         2
        32        33        34        63     9        0.000000        0.512804         3
        32        33        34        63     9      180.000000       -0.007525         4
        32        33        34        64     9        0.000000       -0.321480         1
        32        33        34        64     9      180.000000       -0.030978         2
        32        33        34        64     9        0.000000        0.512804         3
        32        33        34        64     9      180.000000       -0.007525         4
        32        33        34        65     9        0.000000       -0.321480         1
        32        33        34        65     9      180.000000       -0.030978         2
        32        33        34        65     9        0.000000        0.512804         3
        32        33        34        65     9      180.000000       -0.007525         4
        33        32        31        57     9        0.000000       -0.157973         1
        33        32        31        57     9      180.000000        0.167078         2
        33        32        31        57     9        0.000000        0.576880         3
        33        32        31        57     9      180.000000        0.075819         4
        33        32        31        58     9        0.000000       -0.157973         1
        33        32        31        58     9      180.000000        0.167078         2
        33        32        31        58     9        0.000000        0.576880         3
        33        32        31        58     9      180.000000        0.075819         4
        34        33        32        59     9        0.000000       -0.329373         1
        34        33        32        59     9      180.000000        0.167259         2
        34        33        32        59     9        0.000000        0.661090         3
        34        33        32        59     9      180.000000        0.027879         4
        34        33        32        60     9        0.000000       -0.329373         1
        34        33        32        60     9      180.000000        0.167259         2
        34        33        32        60     9        0.000000        0.661090         3
        34        33        32        60     9      180.000000        0.027879         4
        38         3         4        40     9        0.000000        0.056722         1
        38         3         4        40     9      180.000000        0.050056         2
        38         3         4        40     9        0.000000        0.713026         3
        38         3         4        40     9      180.000000       -0.103508         4
        39         3         4        40     9        0.000000        0.056722         1
        39         3         4        40     9      180.000000        0.050056         2
        39         3         4        40     9        0.000000        0.713026         3
        39         3         4        40     9      180.000000       -0.103508         4
        40         4         5        41     9        0.000000        0.018061         1
        40         4         5        41     9      180.000000       -0.010916         2
        40         4         5        41     9        0.000000        0.464652         3
        40         4         5        41     9      180.000000       -0.052731         4
        40         4         5        42     9        0.000000        0.018061         1
        40         4         5        42     9      180.000000       -0.010916         2
        40         4         5        42     9        0.000000        0.464652         3
        40         4         5        42     9      180.000000       -0.052731         4
        41         5         6        43     9        0.000000        0.003968         1
        41         5         6        43     9      180.000000       -0.015426         2
        41         5         6        43     9        0.000000        0.281758         3
        41         5         6        43     9      180.000000        0.007745         4
        41         5         6        44     9        0.000000        0.003968         1
        41         5         6        44     9      180.000000       -0.015426         2
        41         5         6        44     9        0.000000        0.281758         3
        41         5         6        44     9      180.000000        0.007745         4
        42         5         6        43     9        0.000000        0.003968         1
        42         5         6        43     9      180.000000       -0.015426         2
        42         5         6        43     9        0.000000        0.281758         3
        42         5         6        43     9      180.000000        0.007745         4
        42         5         6        44     9        0.000000        0.003968         1
        42         5         6        44     9      180.000000       -0.015426         2
        42         5         6        44     9        0.000000        0.281758         3
        42         5         6        44     9      180.000000        0.007745         4
        43         6         7        45     9        0.000000        0.307712         1
        43         6         7        45     9      180.000000        0.073108         2
        43         6         7        45     9        0.000000        0.368973         3
        43         6         7        45     9      180.000000       -0.053939         4
        44         6         7        45     9        0.000000        0.307712         1
        44         6         7        45     9      180.000000        0.073108         2
        44         6         7        45     9        0.000000        0.368973         3
        44         6         7        45     9      180.000000       -0.053939         4
        45         7         8        46     9        0.000000        0.589952         1
        45         7         8        46     9      180.000000        0.106994         2
        45         7         8        46     9        0.000000        0.459468         3
        45         7         8        46     9      180.000000       -0.274357         4
        45         7        26        56     9        0.000000        0.101714         1
        45         7        26        56     9      180.000000        0.049917         2
        45         7        26        56     9        0.000000        0.246326         3
        45         7        26        56     9      180.000000       -0.118900         4
        46         8        15        52     9        0.000000       -0.890253         1
        46         8        15        52     9      180.000000       -0.260122         2
        46         8        15        52     9        0.000000        0.459101         3
        46         8        15        52     9      180.000000       -0.171435         4
        47        10        11        48     9        0.000000       -0.180341         1
        47        10        11        48     9      180.000000       11.789159         2
        47        10        11        48     9        0.000000       -0.659630         3
        47        10        11        48     9      180.000000        0.310085         4
        48        11        12        49     9        0.000000       -0.084558         1
        48        11        12        49     9      180.000000       11.520937         2
        48        11        12        49     9        0.000000       -0.587926         3
        48        11        12        49     9      180.000000        0.263272         4
        49        12        13        50     9        0.000000       -0.084558         1
        49        12        13        50     9      180.000000       11.520937         2
        49        12        13        50     9        0.000000       -0.587926         3
        49        12        13        50     9      180.000000        0.263272         4
        50        13        14        51     9        0.000000       -0.180341         1
        50        13        14        51     9      180.000000       11.789159         2
        50        13        14        51     9        0.000000       -0.659630         3
        50        13        14        51     9      180.000000        0.310085         4
        53        17        18        54     9        0.000000       -0.149690         1
        53        17        18        54     9      180.000000       12.317766         2
        53        17        18        54     9        0.000000       -0.778015         3
        53        17        18        54     9      180.000000        0.331039         4
        57        31        32        59     9        0.000000       -0.080508         1
        57        31        32        59     9      180.000000        0.049603         2
        57        31        32        59     9        0.000000        0.581374         3
        57        31        32        59     9      180.000000        0.011564         4
        57        31        32        60     9        0.000000       -0.080508         1
        57        31        32        60     9      180.000000        0.049603         2
        57        31        32        60     9        0.000000        0.581374         3
        57        31        32        60     9      180.000000        0.011564         4
        58        31        32        59     9        0.000000       -0.080508         1
        58        31        32        59     9      180.000000        0.049603         2
        58        31        32        59     9        0.000000        0.581374         3
        58        31        32        59     9      180.000000        0.011564         4
        58        31        32        60     9        0.000000       -0.080508         1
        58        31        32        60     9      180.000000        0.049603         2
        58        31        32        60     9        0.000000        0.581374         3
        58        31        32        60     9      180.000000        0.011564         4
        59        32        33        61     9        0.000000       -0.082306         1
        59        32        33        61     9      180.000000        0.014867         2
        59        32        33        61     9        0.000000        0.634660         3
        59        32        33        61     9      180.000000       -0.031696         4
        59        32        33        62     9        0.000000       -0.082306         1
        59        32        33        62     9      180.000000        0.014867         2
        59        32        33        62     9        0.000000        0.634660         3
        59        32        33        62     9      180.000000       -0.031696         4
        60        32        33        61     9        0.000000       -0.082306         1
        60        32        33        61     9      180.000000        0.014867         2
        60        32        33        61     9        0.000000        0.634660         3
        60        32        33        61     9      180.000000       -0.031696         4
        60        32        33        62     9        0.000000       -0.082306         1
        60        32        33        62     9      180.000000        0.014867         2
        60        32        33        62     9        0.000000        0.634660         3
        60        32        33        62     9      180.000000       -0.031696         4
        61        33        34        63     9        0.000000       -0.033426         1
        61        33        34        63     9      180.000000       -0.007920         2
        61        33        34        63     9        0.000000        0.496333         3
        61        33        34        63     9      180.000000        0.015938         4
        61        33        34        64     9        0.000000       -0.033426         1
        61        33        34        64     9      180.000000       -0.007920         2
        61        33        34        64     9        0.000000        0.496333         3
        61        33        34        64     9      180.000000        0.015938         4
        61        33        34        65     9        0.000000       -0.033426         1
        61        33        34        65     9      180.000000       -0.007920         2
        61        33        34        65     9        0.000000        0.496333         3
        61        33        34        65     9      180.000000        0.015938         4
        62        33        34        63     9        0.000000       -0.033426         1
        62        33        34        63     9      180.000000       -0.007920         2
        62        33        34        63     9        0.000000        0.496333         3
        62        33        34        63     9      180.000000        0.015938         4
        62        33        34        64     9        0.000000       -0.033426         1
        62        33        34        64     9      180.000000       -0.007920         2
        62        33        34        64     9        0.000000        0.496333         3
        62        33        34        64     9      180.000000        0.015938         4
        62        33        34        65     9        0.000000       -0.033426         1
        62        33        34        65     9      180.000000       -0.007920         2
        62        33        34        65     9        0.000000        0.496333         3
        62        33        34        65     9      180.000000        0.015938         4

[ dihedrals ] ; impropers
;       ai        aj        ak        al funct           phase               k        pn
        10         9        11        47     4      180.000000        0.182437         2
        10        11        47         9     4      180.000000        0.182437         2
        10        47         9        11     4      180.000000        0.182437         2
        11        10        12        48     4      180.000000        0.258179         2
        11        12        48        10     4      180.000000        0.258179         2
        11        48        10        12     4      180.000000        0.258179         2
        12        11        13        49     4      180.000000        0.333131         2
        12        13        49        11     4      180.000000        0.333131         2
        12        49        11        13     4      180.000000        0.333131         2
        13        12        14        50     4      180.000000        0.258179         2
        13        14        50        12     4      180.000000        0.258179         2
        13        50        12        14     4      180.000000        0.258179         2
        14         9        13        51     4      180.000000        0.182437         2
        14        13        51         9     4      180.000000        0.182437         2
        14        51         9        13     4      180.000000        0.182437         2

[ pairs ]
;       ai        aj funct
         1         4     1
         1        29     1
         1        30     1
         1        31     1
         1        38     1
         1        39     1
         2         5     1
         2        27     1
         2        32     1
         2        40     1
         2        57     1
         2        58     1
         3         6     1
         3        26     1
         3        29     1
         3        30     1
         3        31     1
         3        35     1
         3        36     1
         3        37     1
         3        41     1
         3        42     1
         4         7     1
         4        25     1
         4        28     1
         4        43     1
         4        44     1
         4        56     1
         5         8     1
         5        26     1
         5        38     1
         5        39     1
         5        45     1
         6         9     1
         6        15     1
         6        25     1
         6        27     1
         6        40     1
         6        46     1
         6        56     1
         7        10     1
         7        14     1
         7        16     1
         7        24     1
         7        41     1
         7        42     1
         7        52     1
         8        11     1
         8        13     1
         8        17     1
         8        25     1
         8        27     1
         8        43     1
         8        44     1
         8        47     1
         8        51     1
         8        56     1
         9        12     1
         9        16     1
         9        26     1
         9        45     1
         9        48     1
         9        50     1
         9        52     1
        10        13     1
        10        15     1
        10        46     1
        10        49     1
        10        51     1
        11        14     1
        11        50     1
        12        47     1
        12        51     1
        13        48     1
        14        15     1
        14        46     1
        14        47     1
        14        49     1
        15        18     1
        15        24     1
        15        26     1
        15        45     1
        15        53     1
        16        19     1
        16        27     1
        16        46     1
        16        54     1
        16        55     1
        16        56     1
        17        20     1
        17        24     1
        17        26     1
        17        52     1
        18        21     1
        18        22     1
        18        23     1
        18        25     1
        18        55     1
        19        26     1
        19        53     1
        20        25     1
        20        54     1
        20        55     1
        21        24     1
        22        24     1
        23        24     1
        24        27     1
        24        54     1
        24        56     1
        25        45     1
        25        52     1
        25        53     1
        26        40     1
        26        43     1
        26        44     1
        26        46     1
        26        55     1
        27        38     1
        27        39     1
        27        41     1
        27        42     1
        27        45     1
        28        33     1
        28        35     1
        28        36     1
        28        37     1
        28        38     1
        28        39     1
        28        59     1
        28        60     1
        29        32     1
        29        57     1
        29        58     1
        30        32     1
        30        57     1
        30        58     1
        31        34     1
        31        61     1
        31        62     1
        32        63     1
        32        64     1
        32        65     1
        33        57     1
        33        58     1
        34        59     1
        34        60     1
        38        40     1
        39        40     1
        40        41     1
        40        42     1
        41        43     1
        41        44     1
        42        43     1
        42        44     1
        43        45     1
        44        45     1
        45        46     1
        45        56     1
        46        52     1
        47        48     1
        48        49     1
        49        50     1
        50        51     1
        53        54     1
        57        59     1
        57        60     1
        58        59     1
        58        60     1
        59        61     1
        59        62     1
        60        61     1
        60        62     1
        61        63     1
        61        64     1
        61        65     1
        62        63     1
        62        64     1
        62        65     1
