; ITP file created by ByteFF-ML, 2026-02-21 07:39:06.641568

[ atomtypes ]
;name           bonded.type        at.num        mass        charge   ptype           sigma         epsilon
 o0bf                                   8      0.0000       0.00000       A     3.24588e-01     3.87961e-01
 c1bf                                   6      0.0000       0.00000       A     3.39730e-01     4.52808e-01
 c2bf                                   6      0.0000       0.00000       A     3.39837e-01     4.51115e-01
 n3bf                                   7      0.0000       0.00000       A     3.50440e-01     2.26010e-01
 c4bf                                   6      0.0000       0.00000       A     3.39849e-01     4.49707e-01
 c5bf                                   6      0.0000       0.00000       A     3.39853e-01     4.51530e-01
 c6bf                                   6      0.0000       0.00000       A     3.39857e-01     4.50596e-01
 c7bf                                   6      0.0000       0.00000       A     3.39938e-01     4.52179e-01
 c8bf                                   6      0.0000       0.00000       A     3.40218e-01     4.51818e-01
 c9bf                                   6      0.0000       0.00000       A     3.39362e-01     4.50304e-01
 c10bf                                  6      0.0000       0.00000       A     3.31416e-01     4.11566e-01
 c11bf                                  6      0.0000       0.00000       A     3.31559e-01     4.13032e-01
 c12bf                                  6      0.0000       0.00000       A     3.31517e-01     4.13352e-01
 c13bf                                  6      0.0000       0.00000       A     3.31506e-01     4.12857e-01
 c14bf                                  6      0.0000       0.00000       A     3.31517e-01     4.13352e-01
 c15bf                                  6      0.0000       0.00000       A     3.31559e-01     4.13032e-01
 n16bf                                  7      0.0000       0.00000       A     3.28297e-01     6.42817e-01
 c17bf                                  6      0.0000       0.00000       A     3.31321e-01     4.12520e-01
 c18bf                                  6      0.0000       0.00000       A     3.31658e-01     4.13787e-01
 f19bf                                  9      0.0000       0.00000       A     3.03467e-01     3.47084e-01
 c20bf                                  6      0.0000       0.00000       A     3.31520e-01     4.12330e-01
 c21bf                                  6      0.0000       0.00000       A     3.31515e-01     4.13420e-01
 cl22bf                                17      0.0000       0.00000       A     3.46600e-01     1.10380e+00
 c23bf                                  6      0.0000       0.00000       A     3.31444e-01     4.12303e-01
 c24bf                                  6      0.0000       0.00000       A     3.31361e-01     4.10776e-01
 c25bf                                  6      0.0000       0.00000       A     3.39807e-01     4.52020e-01
 o26bf                                  8      0.0000       0.00000       A     3.15803e-01     3.05226e-01
 h27bf                                  1      0.0000       0.00000       A     5.36358e-02     2.03467e-02
 h28bf                                  1      0.0000       0.00000       A     2.42010e-01     8.67368e-02
 h29bf                                  1      0.0000       0.00000       A     2.42010e-01     8.67368e-02
 h30bf                                  1      0.0000       0.00000       A     2.42176e-01     8.75891e-02
 h31bf                                  1      0.0000       0.00000       A     2.42176e-01     8.75891e-02
 h32bf                                  1      0.0000       0.00000       A     2.42059e-01     8.72491e-02
 h33bf                                  1      0.0000       0.00000       A     2.42059e-01     8.72491e-02
 h34bf                                  1      0.0000       0.00000       A     2.42769e-01     8.72683e-02
 h35bf                                  1      0.0000       0.00000       A     2.59821e-01     8.71677e-02
 h36bf                                  1      0.0000       0.00000       A     2.59821e-01     8.71677e-02
 h37bf                                  1      0.0000       0.00000       A     2.60017e-01     8.63234e-02
 h38bf                                  1      0.0000       0.00000       A     2.60017e-01     8.63234e-02
 h39bf                                  1      0.0000       0.00000       A     2.59608e-01     8.66043e-02
 h40bf                                  1      0.0000       0.00000       A     2.42675e-01     8.80520e-02
 h41bf                                  1      0.0000       0.00000       A     2.62512e-01     6.76287e-02
 h42bf                                  1      0.0000       0.00000       A     2.62458e-01     6.72647e-02
 h43bf                                  1      0.0000       0.00000       A     2.62457e-01     6.73477e-02
 h44bf                                  1      0.0000       0.00000       A     2.62458e-01     6.72647e-02
 h45bf                                  1      0.0000       0.00000       A     2.62512e-01     6.76287e-02
 h46bf                                  1      0.0000       0.00000       A     1.10859e-01     4.14068e-02
 h47bf                                  1      0.0000       0.00000       A     2.62471e-01     6.73940e-02
 h48bf                                  1      0.0000       0.00000       A     2.62423e-01     6.71514e-02
 h49bf                                  1      0.0000       0.00000       A     2.42774e-01     8.84398e-02
 h50bf                                  1      0.0000       0.00000       A     1.10982e-01     4.13143e-02

[ moleculetype ]
;name             nrexcl
 CHEMBL1096002_1       3

[ atoms ]
;       nr            type      resi   res      atom      cgnr      charge          mass ; qtot
         1            o0bf         1   UNL        o0         1    -0.66715       15.9990 ; qtot   -0.667
         2            c1bf         1   UNL        c1         2     0.14344       12.0110 ; qtot   -0.524
         3            c2bf         1   UNL        c2         3     0.13425       12.0110 ; qtot   -0.389
         4            n3bf         1   UNL        n3         4    -0.86760       14.0070 ; qtot   -1.257
         5            c4bf         1   UNL        c4         5     0.15533       12.0110 ; qtot   -1.102
         6            c5bf         1   UNL        c5         6     0.15891       12.0110 ; qtot   -0.943
         7            c6bf         1   UNL        c6         7    -0.10167       12.0110 ; qtot   -1.044
         8            c7bf         1   UNL        c7         8    -0.06664       12.0110 ; qtot   -1.111
         9            c8bf         1   UNL        c8         9    -0.09750       12.0110 ; qtot   -1.209
        10            c9bf         1   UNL        c9        10     0.26317       12.0110 ; qtot   -0.945
        11           c10bf         1   UNL       c10        11    -0.10797       12.0110 ; qtot   -1.053
        12           c11bf         1   UNL       c11        12    -0.09640       12.0110 ; qtot   -1.150
        13           c12bf         1   UNL       c12        13    -0.11334       12.0110 ; qtot   -1.263
        14           c13bf         1   UNL       c13        14    -0.10684       12.0110 ; qtot   -1.370
        15           c14bf         1   UNL       c14        15    -0.11334       12.0110 ; qtot   -1.483
        16           c15bf         1   UNL       c15        16    -0.09640       12.0110 ; qtot   -1.580
        17           n16bf         1   UNL       n16        17    -0.91899       14.0070 ; qtot   -2.499
        18           c17bf         1   UNL       c17        18     0.28208       12.0110 ; qtot   -2.217
        19           c18bf         1   UNL       c18        19     0.10307       12.0110 ; qtot   -2.114
        20           f19bf         1   UNL       f19        20    -0.17968       18.9980 ; qtot   -2.293
        21           c20bf         1   UNL       c20        21    -0.08780       12.0110 ; qtot   -2.381
        22           c21bf         1   UNL       c21        22     0.09614       12.0110 ; qtot   -2.285
        23          cl22bf         1   UNL      cl22        23    -0.19523       35.4530 ; qtot   -2.480
        24           c23bf         1   UNL       c23        24    -0.04577       12.0110 ; qtot   -2.526
        25           c24bf         1   UNL       c24        25    -0.14224       12.0110 ; qtot   -2.668
        26           c25bf         1   UNL       c25        26     0.22760       12.0110 ; qtot   -2.441
        27           o26bf         1   UNL       o26        27    -0.45650       15.9990 ; qtot   -2.897
        28           h27bf         1   UNL       h27        28     0.44747        1.0080 ; qtot   -2.450
        29           h28bf         1   UNL       h28        29     0.03995        1.0080 ; qtot   -2.410
        30           h29bf         1   UNL       h29        30     0.03995        1.0080 ; qtot   -2.370
        31           h30bf         1   UNL       h30        31     0.04445        1.0080 ; qtot   -2.325
        32           h31bf         1   UNL       h31        32     0.04445        1.0080 ; qtot   -2.281
        33           h32bf         1   UNL       h32        33     0.04462        1.0080 ; qtot   -2.236
        34           h33bf         1   UNL       h33        34     0.04462        1.0080 ; qtot   -2.192
        35           h34bf         1   UNL       h34        35     0.05194        1.0080 ; qtot   -2.140
        36           h35bf         1   UNL       h35        36     0.05155        1.0080 ; qtot   -2.088
        37           h36bf         1   UNL       h36        37     0.05155        1.0080 ; qtot   -2.037
        38           h37bf         1   UNL       h37        38     0.04867        1.0080 ; qtot   -1.988
        39           h38bf         1   UNL       h38        39     0.04867        1.0080 ; qtot   -1.939
        40           h39bf         1   UNL       h39        40     0.06779        1.0080 ; qtot   -1.871
        41           h40bf         1   UNL       h40        41     0.05724        1.0080 ; qtot   -1.814
        42           h41bf         1   UNL       h41        42     0.11749        1.0080 ; qtot   -1.697
        43           h42bf         1   UNL       h42        43     0.11433        1.0080 ; qtot   -1.582
        44           h43bf         1   UNL       h43        44     0.11376        1.0080 ; qtot   -1.469
        45           h44bf         1   UNL       h44        45     0.11433        1.0080 ; qtot   -1.354
        46           h45bf         1   UNL       h45        46     0.11749        1.0080 ; qtot   -1.237
        47           h46bf         1   UNL       h46        47     0.47232        1.0080 ; qtot   -0.764
        48           h47bf         1   UNL       h47        48     0.14960        1.0080 ; qtot   -0.615
        49           h48bf         1   UNL       h48        49     0.14026        1.0080 ; qtot   -0.475
        50           h49bf         1   UNL       h49        50     0.05904        1.0080 ; qtot   -0.416
        51           h50bf         1   UNL       h50        51     0.41553        1.0080 ; qtot    0.000

[ bonds ]
;       ai        aj funct               r               k
         1         2     1        0.143092   209318.798633
         1        28     1        0.097058   468499.467285
         2         3     1        0.153056   183382.940063
         2        29     1        0.109714   289172.420312
         2        30     1        0.109714   289172.420312
         3         4     1        0.146391   204141.034790
         3        31     1        0.109880   285019.524512
         3        32     1        0.109880   285019.524512
         4         5     1        0.146361   204730.839868
         4        51     1        0.101746   397523.847217
         5         6     1        0.153214   178225.095166
         5        33     1        0.109867   284982.648926
         5        34     1        0.109867   284982.648926
         6         7     1        0.153479   175022.128760
         6        27     1        0.143768   176534.091626
         6        35     1        0.109881   285268.843311
         7         8     1        0.153614   184090.764893
         7        36     1        0.109506   296189.251855
         7        37     1        0.109506   296189.251855
         8         9     1        0.153644   177808.316772
         8        38     1        0.109464   296701.219824
         8        39     1        0.109464   296701.219824
         9        10     1        0.154208   163102.248828
         9        26     1        0.153668   168412.614111
         9        40     1        0.109661   296507.444238
        10        11     1        0.151991   180812.068188
        10        17     1        0.146717   193240.366431
        10        41     1        0.109885   282868.406104
        11        12     1        0.140235   288447.626074
        11        16     1        0.140235   288447.626074
        12        13     1        0.139815   313021.067090
        12        42     1        0.108668   316228.298193
        13        14     1        0.139918   306554.126123
        13        43     1        0.108647   318864.647217
        14        15     1        0.139918   306554.126123
        14        44     1        0.108625   319984.475000
        15        16     1        0.139815   313021.067090
        15        45     1        0.108647   318864.647217
        16        46     1        0.108668   316228.298193
        17        18     1        0.139116   284397.083008
        17        47     1        0.101360   410557.247266
        18        19     1        0.140388   269197.216748
        18        25     1        0.140997   266941.523877
        19        20     1        0.136368   279487.343896
        19        21     1        0.138401   326005.461426
        21        22     1        0.139761   301353.059668
        21        48     1        0.108385   328155.711572
        22        23     1        0.175528   152260.788257
        22        24     1        0.139339   306276.844189
        24        25     1        0.139725   301881.141553
        24        49     1        0.108448   323298.323535
        25        26     1        0.151164   190781.538623
        26        27     1        0.143111   185132.423584
        26        50     1        0.109993   280435.332471

[ angles ]
;       ai        aj        ak funct           theta             cth
         1         2         3     1      110.709000      641.240647
         1         2        29     1      109.132248      485.946357
         1         2        30     1      109.132248      485.946357
         2         1        28     1      107.654465      591.644644
         2         3         4     1      112.044716      588.797703
         2         3        31     1      108.676926      489.765240
         2         3        32     1      108.676926      489.765240
         3         2        29     1      109.764572      498.792448
         3         2        30     1      109.764572      498.792448
         3         4         5     1      114.703842      653.117829
         3         4        51     1      109.050194      557.095744
         4         3        31     1      110.014366      495.167519
         4         3        32     1      110.014366      495.167551
         4         5         6     1      112.667847      582.045436
         4         5        33     1      109.996971      485.386487
         4         5        34     1      109.996971      485.386487
         5         4        51     1      109.034500      553.881835
         5         6         7     1      113.450195      608.919477
         5         6        27     1      107.586037      639.893245
         5         6        35     1      108.332375      507.313160
         6         5        33     1      108.300926      493.633250
         6         5        34     1      108.300926      493.633250
         6         7         8     1      110.839821      657.614467
         6         7        36     1      109.187340      482.059513
         6         7        37     1      109.187340      482.059513
         6        27        26     1      113.796036      587.474689
         7         6        27     1      110.883057      559.104301
         7         6        35     1      109.033142      476.583399
         7         8         9     1      110.761276      627.749647
         7         8        38     1      109.856140      507.868560
         7         8        39     1      109.856140      507.868560
         8         7        36     1      110.386475      506.550622
         8         7        37     1      110.386475      506.550622
         8         9        10     1      113.411804      594.475688
         8         9        26     1      109.908714      600.776331
         8         9        40     1      108.811119      484.857103
         9         8        38     1      109.615433      494.102047
         9         8        39     1      109.615433      494.102047
         9        10        11     1      112.843285      538.257338
         9        10        17     1      108.766685      598.620105
         9        10        41     1      107.243668      478.689221
         9        26        25     1      111.992416      581.200477
         9        26        27     1      111.253281      581.703877
         9        26        50     1      108.431297      466.594207
        10         9        26     1      109.544479      678.171585
        10         9        40     1      107.093895      495.501704
        10        11        12     1      120.673706      479.725229
        10        11        16     1      120.673706      479.725229
        10        17        18     1      118.289085      525.336741
        10        17        47     1      114.178909      453.510972
        11        10        17     1      111.071960      594.254409
        11        10        41     1      107.675270      485.216729
        11        12        13     1      120.662560      709.918234
        11        12        42     1      119.614578      400.532036
        11        16        15     1      120.662560      709.918234
        11        16        46     1      119.614578      400.532036
        12        11        16     1      118.740906      679.590873
        12        13        14     1      120.153175      705.714506
        12        13        43     1      119.816544      429.696851
        13        12        42     1      119.686012      431.264766
        13        14        15     1      119.511429      689.005895
        13        14        44     1      120.255783      430.416551
        14        13        43     1      120.079079      431.521669
        14        15        16     1      120.153175      705.714506
        14        15        45     1      120.079079      431.521669
        15        14        44     1      120.255783      430.416551
        15        16        46     1      119.686012      431.264766
        16        15        45     1      119.816544      429.696851
        17        10        41     1      109.091698      442.116409
        17        18        19     1      120.487778      402.583527
        17        18        25     1      121.507523      576.046258
        18        17        47     1      114.286232      478.343672
        18        19        20     1      117.528725      420.312059
        18        19        21     1      123.606201      708.359448
        18        25        24     1      119.950478      770.766781
        18        25        26     1      119.172806      566.923700
        19        18        25     1      117.117538      636.256378
        19        21        22     1      117.888809      665.813411
        19        21        48     1      120.143997      424.368342
        20        19        21     1      118.762802      553.047665
        21        22        23     1      119.218056      381.763633
        21        22        24     1      120.769188      614.622935
        22        21        48     1      121.971291      416.408457
        22        24        25     1      120.354225      622.229227
        22        24        49     1      120.204674      417.454010
        23        22        24     1      119.824768      362.571474
        24        25        26     1      120.712204      485.801689
        25        24        49     1      119.764626      396.890508
        25        26        27     1      109.524658      617.260918
        25        26        50     1      108.465210      465.832882
        26         9        40     1      107.252464      505.343547
        27         6        35     1      107.211021      463.890466
        27        26        50     1      107.435829      474.088328
        29         2        30     1      107.822243      342.404914
        31         3        32     1      106.840225      348.954449
        33         5        34     1      106.809647      351.370451
        36         7        37     1      107.022629      358.403530
        38         8        39     1      106.517052      361.462876

[ dihedrals ] ; propers for gromacs 4.5 or higher, use funct 9
;       ai        aj        ak        al funct           phase               k        pn
         1         2         3         4     9        0.000000        1.703473         1
         1         2         3         4     9      180.000000       -1.966842         2
         1         2         3         4     9        0.000000        1.190062         3
         1         2         3         4     9      180.000000       -0.305866         4
         1         2         3        31     9        0.000000        0.177931         1
         1         2         3        31     9      180.000000        0.133521         2
         1         2         3        31     9        0.000000        0.733120         3
         1         2         3        31     9      180.000000        0.065028         4
         1         2         3        32     9        0.000000        0.177931         1
         1         2         3        32     9      180.000000        0.133521         2
         1         2         3        32     9        0.000000        0.733120         3
         1         2         3        32     9      180.000000        0.065028         4
         2         3         4         5     9        0.000000        1.284065         1
         2         3         4         5     9      180.000000       -1.036344         2
         2         3         4         5     9        0.000000        1.377163         3
         2         3         4         5     9      180.000000        0.001067         4
         2         3         4        51     9        0.000000        0.568715         1
         2         3         4        51     9      180.000000       -1.457173         2
         2         3         4        51     9        0.000000       -0.576790         3
         2         3         4        51     9      180.000000       -0.280938         4
         3         2         1        28     9        0.000000        6.041627         1
         3         2         1        28     9      180.000000       -2.981039         2
         3         2         1        28     9        0.000000        1.556983         3
         3         2         1        28     9      180.000000        0.042901         4
         3         4         5         6     9        0.000000        2.303485         1
         3         4         5         6     9      180.000000       -1.630619         2
         3         4         5         6     9        0.000000        1.320020         3
         3         4         5         6     9      180.000000        0.096500         4
         3         4         5        33     9        0.000000       -0.352080         1
         3         4         5        33     9      180.000000        0.458443         2
         3         4         5        33     9        0.000000        2.200827         3
         3         4         5        33     9      180.000000       -0.004630         4
         3         4         5        34     9        0.000000       -0.352080         1
         3         4         5        34     9      180.000000        0.458443         2
         3         4         5        34     9        0.000000        2.200827         3
         3         4         5        34     9      180.000000       -0.004630         4
         4         3         2        29     9        0.000000       -0.066046         1
         4         3         2        29     9      180.000000        0.247761         2
         4         3         2        29     9        0.000000        0.761151         3
         4         3         2        29     9      180.000000        0.098431         4
         4         3         2        30     9        0.000000       -0.066046         1
         4         3         2        30     9      180.000000        0.247761         2
         4         3         2        30     9        0.000000        0.761151         3
         4         3         2        30     9      180.000000        0.098431         4
         4         5         6         7     9        0.000000        0.659285         1
         4         5         6         7     9      180.000000        0.317801         2
         4         5         6         7     9        0.000000        0.758595         3
         4         5         6         7     9      180.000000       -0.057962         4
         4         5         6        27     9        0.000000        0.127695         1
         4         5         6        27     9      180.000000       -1.795698         2
         4         5         6        27     9        0.000000        0.857590         3
         4         5         6        27     9      180.000000       -0.033208         4
         4         5         6        35     9        0.000000       -0.190325         1
         4         5         6        35     9      180.000000        0.359759         2
         4         5         6        35     9        0.000000        0.783610         3
         4         5         6        35     9      180.000000        0.058200         4
         5         4         3        31     9        0.000000       -0.392203         1
         5         4         3        31     9      180.000000        0.406738         2
         5         4         3        31     9        0.000000        2.192162         3
         5         4         3        31     9      180.000000        0.039615         4
         5         4         3        32     9        0.000000       -0.392203         1
         5         4         3        32     9      180.000000        0.406738         2
         5         4         3        32     9        0.000000        2.192162         3
         5         4         3        32     9      180.000000        0.039615         4
         5         6         7         8     9        0.000000       -0.082817         1
         5         6         7         8     9      180.000000        0.372204         2
         5         6         7         8     9        0.000000        0.251856         3
         5         6         7         8     9      180.000000        0.011118         4
         5         6         7        36     9        0.000000       -0.043581         1
         5         6         7        36     9      180.000000       -0.014286         2
         5         6         7        36     9        0.000000        0.302498         3
         5         6         7        36     9      180.000000       -0.004270         4
         5         6         7        37     9        0.000000       -0.043581         1
         5         6         7        37     9      180.000000       -0.014286         2
         5         6         7        37     9        0.000000        0.302498         3
         5         6         7        37     9      180.000000       -0.004270         4
         5         6        27        26     9        0.000000        0.610744         1
         5         6        27        26     9      180.000000       -0.091432         2
         5         6        27        26     9        0.000000        0.279320         3
         5         6        27        26     9      180.000000        0.088279         4
         6         5         4        51     9        0.000000        2.354732         1
         6         5         4        51     9      180.000000       -2.563567         2
         6         5         4        51     9        0.000000       -0.500985         3
         6         5         4        51     9      180.000000       -0.166825         4
         6         7         8         9     9        0.000000        0.773689         1
         6         7         8         9     9      180.000000       -1.246096         2
         6         7         8         9     9        0.000000        0.094979         3
         6         7         8         9     9      180.000000        0.146390         4
         6         7         8        38     9        0.000000       -0.045499         1
         6         7         8        38     9      180.000000        0.035623         2
         6         7         8        38     9        0.000000        0.175242         3
         6         7         8        38     9      180.000000        0.002543         4
         6         7         8        39     9        0.000000       -0.045499         1
         6         7         8        39     9      180.000000        0.035623         2
         6         7         8        39     9        0.000000        0.175242         3
         6         7         8        39     9      180.000000        0.002543         4
         6        27        26         9     9        0.000000        6.657664         1
         6        27        26         9     9      180.000000       -3.162008         2
         6        27        26         9     9        0.000000       -0.060979         3
         6        27        26         9     9      180.000000        0.190504         4
         6        27        26        25     9        0.000000        0.201711         1
         6        27        26        25     9      180.000000       -1.129705         2
         6        27        26        25     9        0.000000        0.657841         3
         6        27        26        25     9      180.000000        0.128754         4
         6        27        26        50     9        0.000000       -0.096531         1
         6        27        26        50     9      180.000000        0.248709         2
         6        27        26        50     9        0.000000        0.618296         3
         6        27        26        50     9      180.000000        0.054431         4
         7         6         5        33     9        0.000000       -0.215004         1
         7         6         5        33     9      180.000000        0.016658         2
         7         6         5        33     9        0.000000        0.648415         3
         7         6         5        33     9      180.000000        0.076532         4
         7         6         5        34     9        0.000000       -0.215004         1
         7         6         5        34     9      180.000000        0.016658         2
         7         6         5        34     9        0.000000        0.648415         3
         7         6         5        34     9      180.000000        0.076532         4
         7         6        27        26     9        0.000000        4.825752         1
         7         6        27        26     9      180.000000       -1.926492         2
         7         6        27        26     9        0.000000        0.028417         3
         7         6        27        26     9      180.000000        0.204489         4
         7         8         9        10     9        0.000000        0.229705         1
         7         8         9        10     9      180.000000       -0.410021         2
         7         8         9        10     9        0.000000        0.338665         3
         7         8         9        10     9      180.000000        0.018337         4
         7         8         9        26     9        0.000000        0.843070         1
         7         8         9        26     9      180.000000       -0.923374         2
         7         8         9        26     9        0.000000        0.118687         3
         7         8         9        26     9      180.000000        0.077055         4
         7         8         9        40     9        0.000000       -0.847414         1
         7         8         9        40     9      180.000000       -0.011220         2
         7         8         9        40     9        0.000000        0.203329         3
         7         8         9        40     9      180.000000        0.140118         4
         8         7         6        27     9        0.000000       -0.178057         1
         8         7         6        27     9      180.000000       -0.475063         2
         8         7         6        27     9        0.000000        0.212116         3
         8         7         6        27     9      180.000000        0.001715         4
         8         7         6        35     9        0.000000       -0.153897         1
         8         7         6        35     9      180.000000        0.012263         2
         8         7         6        35     9        0.000000        0.432093         3
         8         7         6        35     9      180.000000        0.027962         4
         8         9        10        11     9        0.000000        1.320949         1
         8         9        10        11     9      180.000000       -0.514293         2
         8         9        10        11     9        0.000000        0.883995         3
         8         9        10        11     9      180.000000        0.109917         4
         8         9        10        17     9        0.000000       -2.127418         1
         8         9        10        17     9      180.000000        0.810742         2
         8         9        10        17     9        0.000000        0.321075         3
         8         9        10        17     9      180.000000       -0.116557         4
         8         9        10        41     9        0.000000       -0.229337         1
         8         9        10        41     9      180.000000        0.171580         2
         8         9        10        41     9        0.000000        0.511325         3
         8         9        10        41     9      180.000000       -0.011479         4
         8         9        26        25     9        0.000000        0.272956         1
         8         9        26        25     9      180.000000       -1.143135         2
         8         9        26        25     9        0.000000        0.281216         3
         8         9        26        25     9      180.000000       -0.012000         4
         8         9        26        27     9        0.000000       -0.368675         1
         8         9        26        27     9      180.000000       -1.410507         2
         8         9        26        27     9        0.000000        0.267248         3
         8         9        26        27     9      180.000000        0.118887         4
         8         9        26        50     9        0.000000       -0.098434         1
         8         9        26        50     9      180.000000        0.213262         2
         8         9        26        50     9        0.000000        0.259917         3
         8         9        26        50     9      180.000000        0.094961         4
         9         8         7        36     9        0.000000       -0.042948         1
         9         8         7        36     9      180.000000        0.015132         2
         9         8         7        36     9        0.000000        0.183345         3
         9         8         7        36     9      180.000000        0.007177         4
         9         8         7        37     9        0.000000       -0.042948         1
         9         8         7        37     9      180.000000        0.015132         2
         9         8         7        37     9        0.000000        0.183345         3
         9         8         7        37     9      180.000000        0.007177         4
         9        10        11        12     9        0.000000       -0.370684         1
         9        10        11        12     9      180.000000       -0.121357         2
         9        10        11        12     9        0.000000        0.103495         3
         9        10        11        12     9      180.000000        0.008068         4
         9        10        11        16     9        0.000000       -0.370684         1
         9        10        11        16     9      180.000000       -0.121357         2
         9        10        11        16     9        0.000000        0.103495         3
         9        10        11        16     9      180.000000        0.008068         4
         9        10        17        18     9        0.000000        6.161625         1
         9        10        17        18     9      180.000000       -3.263340         2
         9        10        17        18     9        0.000000       -0.105538         3
         9        10        17        18     9      180.000000        0.688508         4
         9        10        17        47     9        0.000000        3.368913         1
         9        10        17        47     9      180.000000       -3.021058         2
         9        10        17        47     9        0.000000        0.143701         3
         9        10        17        47     9      180.000000        0.376102         4
         9        26        25        18     9        0.000000        3.461558         1
         9        26        25        18     9      180.000000       -3.570635         2
         9        26        25        18     9        0.000000       -0.183191         3
         9        26        25        18     9      180.000000        0.744564         4
         9        26        25        24     9        0.000000       -0.444306         1
         9        26        25        24     9      180.000000       -0.845479         2
         9        26        25        24     9        0.000000       -0.521493         3
         9        26        25        24     9      180.000000        0.252417         4
        10         9         8        38     9        0.000000       -0.014273         1
        10         9         8        38     9      180.000000        0.031203         2
        10         9         8        38     9        0.000000        0.287933         3
        10         9         8        38     9      180.000000        0.003847         4
        10         9         8        39     9        0.000000       -0.014273         1
        10         9         8        39     9      180.000000        0.031203         2
        10         9         8        39     9        0.000000        0.287933         3
        10         9         8        39     9      180.000000        0.003847         4
        10         9        26        25     9        0.000000        2.253723         1
        10         9        26        25     9      180.000000       -2.789852         2
        10         9        26        25     9        0.000000       -0.004781         3
        10         9        26        25     9      180.000000        0.177213         4
        10         9        26        27     9        0.000000        0.606430         1
        10         9        26        27     9      180.000000       -3.974492         2
        10         9        26        27     9        0.000000        0.096977         3
        10         9        26        27     9      180.000000        0.425824         4
        10         9        26        50     9        0.000000       -0.400675         1
        10         9        26        50     9      180.000000        0.120558         2
        10         9        26        50     9        0.000000        0.052579         3
        10         9        26        50     9      180.000000        0.147428         4
        10        11        12        13     9        0.000000        0.091853         1
        10        11        12        13     9      180.000000       14.677092         2
        10        11        12        13     9        0.000000       -0.133576         3
        10        11        12        13     9      180.000000       -0.085438         4
        10        11        12        42     9        0.000000       -0.043395         1
        10        11        12        42     9      180.000000       12.777157         2
        10        11        12        42     9        0.000000       -0.359360         3
        10        11        12        42     9      180.000000        0.187324         4
        10        11        16        15     9        0.000000        0.091853         1
        10        11        16        15     9      180.000000       14.677092         2
        10        11        16        15     9        0.000000       -0.133576         3
        10        11        16        15     9      180.000000       -0.085438         4
        10        11        16        46     9        0.000000       -0.043395         1
        10        11        16        46     9      180.000000       12.777157         2
        10        11        16        46     9        0.000000       -0.359360         3
        10        11        16        46     9      180.000000        0.187324         4
        10        17        18        19     9        0.000000        1.934855         1
        10        17        18        19     9      180.000000        0.830848         2
        10        17        18        19     9        0.000000        0.608582         3
        10        17        18        19     9      180.000000        0.354153         4
        10        17        18        25     9        0.000000        1.859076         1
        10        17        18        25     9      180.000000        1.307136         2
        10        17        18        25     9        0.000000       -0.327133         3
        10        17        18        25     9      180.000000        0.773223         4
        11        10         9        26     9        0.000000       -0.174874         1
        11        10         9        26     9      180.000000       -0.269716         2
        11        10         9        26     9        0.000000        0.338009         3
        11        10         9        26     9      180.000000        0.071162         4
        11        10         9        40     9        0.000000        0.084158         1
        11        10         9        40     9      180.000000       -0.049815         2
        11        10         9        40     9        0.000000        0.449041         3
        11        10         9        40     9      180.000000       -0.057460         4
        11        10        17        18     9        0.000000        1.037452         1
        11        10        17        18     9      180.000000       -0.699092         2
        11        10        17        18     9        0.000000        0.759216         3
        11        10        17        18     9      180.000000        0.040034         4
        11        10        17        47     9        0.000000        2.971056         1
        11        10        17        47     9      180.000000       -1.086297         2
        11        10        17        47     9        0.000000        0.133229         3
        11        10        17        47     9      180.000000       -0.155301         4
        11        12        13        14     9        0.000000        0.027332         1
        11        12        13        14     9      180.000000       18.735526         2
        11        12        13        14     9        0.000000       -1.491713         3
        11        12        13        14     9      180.000000       -0.406339         4
        11        12        13        43     9        0.000000        0.060410         1
        11        12        13        43     9      180.000000       14.990249         2
        11        12        13        43     9        0.000000       -0.580982         3
        11        12        13        43     9      180.000000        0.057213         4
        11        16        15        14     9        0.000000        0.027332         1
        11        16        15        14     9      180.000000       18.735526         2
        11        16        15        14     9        0.000000       -1.491713         3
        11        16        15        14     9      180.000000       -0.406339         4
        11        16        15        45     9        0.000000        0.060410         1
        11        16        15        45     9      180.000000       14.990249         2
        11        16        15        45     9        0.000000       -0.580982         3
        11        16        15        45     9      180.000000        0.057213         4
        12        11        10        17     9        0.000000       -0.200700         1
        12        11        10        17     9      180.000000        0.868726         2
        12        11        10        17     9        0.000000       -0.009400         3
        12        11        10        17     9      180.000000        0.236591         4
        12        11        10        41     9        0.000000        0.164796         1
        12        11        10        41     9      180.000000        0.637916         2
        12        11        10        41     9        0.000000        0.052389         3
        12        11        10        41     9      180.000000       -0.143521         4
        12        11        16        15     9        0.000000       -0.144446         1
        12        11        16        15     9      180.000000       19.062213         2
        12        11        16        15     9        0.000000       -1.504557         3
        12        11        16        15     9      180.000000       -0.477342         4
        12        11        16        46     9        0.000000       -0.069577         1
        12        11        16        46     9      180.000000       14.508781         2
        12        11        16        46     9        0.000000       -0.591210         3
        12        11        16        46     9      180.000000       -0.002966         4
        12        13        14        15     9        0.000000       -0.058928         1
        12        13        14        15     9      180.000000       18.660778         2
        12        13        14        15     9        0.000000       -1.621207         3
        12        13        14        15     9      180.000000       -0.382782         4
        12        13        14        44     9        0.000000        0.016777         1
        12        13        14        44     9      180.000000       14.282109         2
        12        13        14        44     9        0.000000       -0.780702         3
        12        13        14        44     9      180.000000        0.125906         4
        13        12        11        16     9        0.000000       -0.144446         1
        13        12        11        16     9      180.000000       19.062213         2
        13        12        11        16     9        0.000000       -1.504557         3
        13        12        11        16     9      180.000000       -0.477342         4
        13        14        15        16     9        0.000000       -0.058928         1
        13        14        15        16     9      180.000000       18.660778         2
        13        14        15        16     9        0.000000       -1.621207         3
        13        14        15        16     9      180.000000       -0.382782         4
        13        14        15        45     9        0.000000        0.010660         1
        13        14        15        45     9      180.000000       14.271862         2
        13        14        15        45     9        0.000000       -0.794146         3
        13        14        15        45     9      180.000000        0.157356         4
        14        13        12        42     9        0.000000        0.060923         1
        14        13        12        42     9      180.000000       14.800027         2
        14        13        12        42     9        0.000000       -0.680405         3
        14        13        12        42     9      180.000000        0.105082         4
        14        15        16        46     9        0.000000        0.060923         1
        14        15        16        46     9      180.000000       14.800027         2
        14        15        16        46     9        0.000000       -0.680405         3
        14        15        16        46     9      180.000000        0.105082         4
        15        14        13        43     9        0.000000        0.010660         1
        15        14        13        43     9      180.000000       14.271862         2
        15        14        13        43     9        0.000000       -0.794146         3
        15        14        13        43     9      180.000000        0.157356         4
        16        11        10        17     9        0.000000       -0.200700         1
        16        11        10        17     9      180.000000        0.868726         2
        16        11        10        17     9        0.000000       -0.009400         3
        16        11        10        17     9      180.000000        0.236591         4
        16        11        10        41     9        0.000000        0.164796         1
        16        11        10        41     9      180.000000        0.637916         2
        16        11        10        41     9        0.000000        0.052389         3
        16        11        10        41     9      180.000000       -0.143521         4
        16        11        12        42     9        0.000000       -0.069577         1
        16        11        12        42     9      180.000000       14.508781         2
        16        11        12        42     9        0.000000       -0.591210         3
        16        11        12        42     9      180.000000       -0.002966         4
        16        15        14        44     9        0.000000        0.016777         1
        16        15        14        44     9      180.000000       14.282109         2
        16        15        14        44     9        0.000000       -0.780702         3
        16        15        14        44     9      180.000000        0.125906         4
        17        10         9        26     9        0.000000       -0.292280         1
        17        10         9        26     9      180.000000       -1.651676         2
        17        10         9        26     9        0.000000       -0.197287         3
        17        10         9        26     9      180.000000        0.192311         4
        17        10         9        40     9        0.000000       -0.132359         1
        17        10         9        40     9      180.000000       -0.128847         2
        17        10         9        40     9        0.000000        0.112706         3
        17        10         9        40     9      180.000000        0.255319         4
        17        18        19        20     9        0.000000       -0.589842         1
        17        18        19        20     9      180.000000       21.195825         2
        17        18        19        20     9        0.000000        0.147254         3
        17        18        19        20     9      180.000000       -0.800287         4
        17        18        19        21     9        0.000000        0.199094         1
        17        18        19        21     9      180.000000       15.215978         2
        17        18        19        21     9        0.000000        0.086502         3
        17        18        19        21     9      180.000000       -0.083665         4
        17        18        25        24     9        0.000000        0.125444         1
        17        18        25        24     9      180.000000       17.097380         2
        17        18        25        24     9        0.000000        0.213002         3
        17        18        25        24     9      180.000000       -0.620432         4
        17        18        25        26     9        0.000000       -0.061534         1
        17        18        25        26     9      180.000000       15.451685         2
        17        18        25        26     9        0.000000        0.238971         3
        17        18        25        26     9      180.000000       -0.551690         4
        18        17        10        41     9        0.000000       -0.099490         1
        18        17        10        41     9      180.000000       -0.374281         2
        18        17        10        41     9        0.000000        0.628832         3
        18        17        10        41     9      180.000000       -0.039293         4
        18        19        21        22     9        0.000000       -0.034950         1
        18        19        21        22     9      180.000000       16.642938         2
        18        19        21        22     9        0.000000       -1.515400         3
        18        19        21        22     9      180.000000       -0.344374         4
        18        19        21        48     9        0.000000        0.037724         1
        18        19        21        48     9      180.000000       12.503047         2
        18        19        21        48     9        0.000000       -0.595493         3
        18        19        21        48     9      180.000000        0.136950         4
        18        25        24        22     9        0.000000       -0.017525         1
        18        25        24        22     9      180.000000       18.731298         2
        18        25        24        22     9        0.000000       -1.494782         3
        18        25        24        22     9      180.000000       -0.337587         4
        18        25        24        49     9        0.000000        0.102811         1
        18        25        24        49     9      180.000000       14.230010         2
        18        25        24        49     9        0.000000       -0.315209         3
        18        25        24        49     9      180.000000        0.198836         4
        18        25        26        27     9        0.000000       -4.150824         1
        18        25        26        27     9      180.000000       -1.141287         2
        18        25        26        27     9        0.000000        0.634155         3
        18        25        26        27     9      180.000000       -0.206860         4
        18        25        26        50     9        0.000000        0.239554         1
        18        25        26        50     9      180.000000        0.369548         2
        18        25        26        50     9        0.000000        0.061218         3
        18        25        26        50     9      180.000000        0.036088         4
        19        18        17        47     9        0.000000        2.385166         1
        19        18        17        47     9      180.000000        3.389642         2
        19        18        17        47     9        0.000000        0.208822         3
        19        18        17        47     9      180.000000        0.057321         4
        19        18        25        24     9        0.000000        0.084739         1
        19        18        25        24     9      180.000000       15.294236         2
        19        18        25        24     9        0.000000       -0.794686         3
        19        18        25        24     9      180.000000       -0.308613         4
        19        18        25        26     9        0.000000       -0.081421         1
        19        18        25        26     9      180.000000       13.064077         2
        19        18        25        26     9        0.000000       -0.294681         3
        19        18        25        26     9      180.000000       -0.243559         4
        19        21        22        23     9        0.000000        0.291422         1
        19        21        22        23     9      180.000000       18.397325         2
        19        21        22        23     9        0.000000        0.227270         3
        19        21        22        23     9      180.000000       -0.632266         4
        19        21        22        24     9        0.000000       -0.159945         1
        19        21        22        24     9      180.000000       17.690980         2
        19        21        22        24     9        0.000000       -1.501504         3
        19        21        22        24     9      180.000000       -0.385285         4
        20        19        18        25     9        0.000000        0.123626         1
        20        19        18        25     9      180.000000       16.776249         2
        20        19        18        25     9        0.000000        0.418690         3
        20        19        18        25     9      180.000000       -0.305422         4
        20        19        21        22     9        0.000000        0.678586         1
        20        19        21        22     9      180.000000       23.101831         2
        20        19        21        22     9        0.000000        0.435637         3
        20        19        21        22     9      180.000000       -0.499056         4
        20        19        21        48     9        0.000000        0.343346         1
        20        19        21        48     9      180.000000       15.935933         2
        20        19        21        48     9        0.000000        0.159052         3
        20        19        21        48     9      180.000000        0.390709         4
        21        19        18        25     9        0.000000       -0.009041         1
        21        19        18        25     9      180.000000       12.707252         2
        21        19        18        25     9        0.000000       -0.273680         3
        21        19        18        25     9      180.000000       -0.155411         4
        21        22        24        25     9        0.000000       -0.056170         1
        21        22        24        25     9      180.000000       17.589185         2
        21        22        24        25     9        0.000000       -1.559377         3
        21        22        24        25     9      180.000000       -0.409995         4
        21        22        24        49     9        0.000000       -0.006568         1
        21        22        24        49     9      180.000000       13.724351         2
        21        22        24        49     9        0.000000       -0.605499         3
        21        22        24        49     9      180.000000        0.100855         4
        22        24        25        26     9        0.000000        0.095420         1
        22        24        25        26     9      180.000000       16.579191         2
        22        24        25        26     9        0.000000       -0.156058         3
        22        24        25        26     9      180.000000       -0.306023         4
        23        22        21        48     9        0.000000        0.320381         1
        23        22        21        48     9      180.000000       12.775537         2
        23        22        21        48     9        0.000000       -0.140992         3
        23        22        21        48     9      180.000000        0.246384         4
        23        22        24        25     9        0.000000        0.322010         1
        23        22        24        25     9      180.000000       18.863554         2
        23        22        24        25     9        0.000000        0.202852         3
        23        22        24        25     9      180.000000       -0.689457         4
        23        22        24        49     9        0.000000        0.212987         1
        23        22        24        49     9      180.000000       13.096218         2
        23        22        24        49     9        0.000000       -0.118947         3
        23        22        24        49     9      180.000000        0.269049         4
        24        22        21        48     9        0.000000        0.096276         1
        24        22        21        48     9      180.000000       12.852717         2
        24        22        21        48     9        0.000000       -0.610251         3
        24        22        21        48     9      180.000000        0.146698         4
        24        25        26        27     9        0.000000        0.047733         1
        24        25        26        27     9      180.000000        0.537288         2
        24        25        26        27     9        0.000000       -0.773344         3
        24        25        26        27     9      180.000000        0.177787         4
        24        25        26        50     9        0.000000        0.089168         1
        24        25        26        50     9      180.000000       -0.012236         2
        24        25        26        50     9        0.000000       -0.581421         3
        24        25        26        50     9      180.000000       -0.040953         4
        25        18        17        47     9        0.000000        4.443965         1
        25        18        17        47     9      180.000000        4.173702         2
        25        18        17        47     9        0.000000       -0.558665         3
        25        18        17        47     9      180.000000        0.364476         4
        25        26         9        40     9        0.000000       -0.160101         1
        25        26         9        40     9      180.000000        0.073889         2
        25        26         9        40     9        0.000000        0.114007         3
        25        26         9        40     9      180.000000        0.257350         4
        26         9         8        38     9        0.000000       -0.113767         1
        26         9         8        38     9      180.000000        0.080804         2
        26         9         8        38     9        0.000000        0.151933         3
        26         9         8        38     9      180.000000        0.037401         4
        26         9         8        39     9        0.000000       -0.113767         1
        26         9         8        39     9      180.000000        0.080804         2
        26         9         8        39     9        0.000000        0.151933         3
        26         9         8        39     9      180.000000        0.037401         4
        26         9        10        41     9        0.000000       -0.219847         1
        26         9        10        41     9      180.000000       -0.025529         2
        26         9        10        41     9        0.000000        0.098814         3
        26         9        10        41     9      180.000000        0.135004         4
        26        25        24        49     9        0.000000       -0.008649         1
        26        25        24        49     9      180.000000       12.813643         2
        26        25        24        49     9        0.000000       -0.286901         3
        26        25        24        49     9      180.000000        0.168967         4
        26        27         6        35     9        0.000000       -0.554777         1
        26        27         6        35     9      180.000000        0.012461         2
        26        27         6        35     9        0.000000        0.362395         3
        26        27         6        35     9      180.000000        0.050082         4
        27         6         5        33     9        0.000000       -0.126771         1
        27         6         5        33     9      180.000000        0.096704         2
        27         6         5        33     9        0.000000        0.548262         3
        27         6         5        33     9      180.000000        0.035187         4
        27         6         5        34     9        0.000000       -0.126771         1
        27         6         5        34     9      180.000000        0.096704         2
        27         6         5        34     9        0.000000        0.548262         3
        27         6         5        34     9      180.000000        0.035187         4
        27         6         7        36     9        0.000000       -0.065093         1
        27         6         7        36     9      180.000000        0.007545         2
        27         6         7        36     9        0.000000        0.211388         3
        27         6         7        36     9      180.000000        0.000039         4
        27         6         7        37     9        0.000000       -0.065093         1
        27         6         7        37     9      180.000000        0.007545         2
        27         6         7        37     9        0.000000        0.211388         3
        27         6         7        37     9      180.000000        0.000039         4
        27        26         9        40     9        0.000000       -0.495369         1
        27        26         9        40     9      180.000000        0.206515         2
        27        26         9        40     9        0.000000        0.018590         3
        27        26         9        40     9      180.000000        0.231404         4
        28         1         2        29     9        0.000000       -0.234200         1
        28         1         2        29     9      180.000000        0.064052         2
        28         1         2        29     9        0.000000        0.863262         3
        28         1         2        29     9      180.000000        0.100724         4
        28         1         2        30     9        0.000000       -0.234200         1
        28         1         2        30     9      180.000000        0.064052         2
        28         1         2        30     9        0.000000        0.863262         3
        28         1         2        30     9      180.000000        0.100724         4
        29         2         3        31     9        0.000000       -0.048627         1
        29         2         3        31     9      180.000000        0.004102         2
        29         2         3        31     9        0.000000        0.750054         3
        29         2         3        31     9      180.000000       -0.052061         4
        29         2         3        32     9        0.000000       -0.048627         1
        29         2         3        32     9      180.000000        0.004102         2
        29         2         3        32     9        0.000000        0.750054         3
        29         2         3        32     9      180.000000       -0.052061         4
        30         2         3        31     9        0.000000       -0.048627         1
        30         2         3        31     9      180.000000        0.004102         2
        30         2         3        31     9        0.000000        0.750054         3
        30         2         3        31     9      180.000000       -0.052061         4
        30         2         3        32     9        0.000000       -0.048627         1
        30         2         3        32     9      180.000000        0.004102         2
        30         2         3        32     9        0.000000        0.750054         3
        30         2         3        32     9      180.000000       -0.052061         4
        31         3         4        51     9        0.000000       -0.184476         1
        31         3         4        51     9      180.000000        0.244112         2
        31         3         4        51     9        0.000000       -0.615157         3
        31         3         4        51     9      180.000000       -0.129213         4
        32         3         4        51     9        0.000000       -0.184476         1
        32         3         4        51     9      180.000000        0.244112         2
        32         3         4        51     9        0.000000       -0.615157         3
        32         3         4        51     9      180.000000       -0.129213         4
        33         5         4        51     9        0.000000       -0.124439         1
        33         5         4        51     9      180.000000        0.269448         2
        33         5         4        51     9        0.000000       -0.609413         3
        33         5         4        51     9      180.000000       -0.150852         4
        33         5         6        35     9        0.000000        0.076369         1
        33         5         6        35     9      180.000000       -0.044517         2
        33         5         6        35     9        0.000000        0.718691         3
        33         5         6        35     9      180.000000       -0.080866         4
        34         5         4        51     9        0.000000       -0.124439         1
        34         5         4        51     9      180.000000        0.269448         2
        34         5         4        51     9        0.000000       -0.609413         3
        34         5         4        51     9      180.000000       -0.150852         4
        34         5         6        35     9        0.000000        0.076369         1
        34         5         6        35     9      180.000000       -0.044517         2
        34         5         6        35     9        0.000000        0.718691         3
        34         5         6        35     9      180.000000       -0.080866         4
        35         6         7        36     9        0.000000        0.015389         1
        35         6         7        36     9      180.000000       -0.014211         2
        35         6         7        36     9        0.000000        0.469746         3
        35         6         7        36     9      180.000000       -0.056633         4
        35         6         7        37     9        0.000000        0.015389         1
        35         6         7        37     9      180.000000       -0.014211         2
        35         6         7        37     9        0.000000        0.469746         3
        35         6         7        37     9      180.000000       -0.056633         4
        36         7         8        38     9        0.000000        0.002348         1
        36         7         8        38     9      180.000000       -0.017682         2
        36         7         8        38     9        0.000000        0.281230         3
        36         7         8        38     9      180.000000        0.007982         4
        36         7         8        39     9        0.000000        0.002348         1
        36         7         8        39     9      180.000000       -0.017682         2
        36         7         8        39     9        0.000000        0.281230         3
        36         7         8        39     9      180.000000        0.007982         4
        37         7         8        38     9        0.000000        0.002348         1
        37         7         8        38     9      180.000000       -0.017682         2
        37         7         8        38     9        0.000000        0.281230         3
        37         7         8        38     9      180.000000        0.007982         4
        37         7         8        39     9        0.000000        0.002348         1
        37         7         8        39     9      180.000000       -0.017682         2
        37         7         8        39     9        0.000000        0.281230         3
        37         7         8        39     9      180.000000        0.007982         4
        38         8         9        40     9        0.000000        0.307712         1
        38         8         9        40     9      180.000000        0.073109         2
        38         8         9        40     9        0.000000        0.368973         3
        38         8         9        40     9      180.000000       -0.053939         4
        39         8         9        40     9        0.000000        0.307712         1
        39         8         9        40     9      180.000000        0.073109         2
        39         8         9        40     9        0.000000        0.368973         3
        39         8         9        40     9      180.000000       -0.053939         4
        40         9        10        41     9        0.000000        0.583554         1
        40         9        10        41     9      180.000000        0.096562         2
        40         9        10        41     9        0.000000        0.457936         3
        40         9        10        41     9      180.000000       -0.279237         4
        40         9        26        50     9        0.000000        0.091311         1
        40         9        26        50     9      180.000000        0.067833         2
        40         9        26        50     9        0.000000        0.246209         3
        40         9        26        50     9      180.000000       -0.118243         4
        41        10        17        47     9        0.000000       -0.771406         1
        41        10        17        47     9      180.000000       -0.244059         2
        41        10        17        47     9        0.000000        0.458117         3
        41        10        17        47     9      180.000000       -0.163048         4
        42        12        13        43     9        0.000000       -0.180341         1
        42        12        13        43     9      180.000000       11.789161         2
        42        12        13        43     9        0.000000       -0.659630         3
        42        12        13        43     9      180.000000        0.310085         4
        43        13        14        44     9        0.000000       -0.084557         1
        43        13        14        44     9      180.000000       11.520938         2
        43        13        14        44     9        0.000000       -0.587926         3
        43        13        14        44     9      180.000000        0.263272         4
        44        14        15        45     9        0.000000       -0.084557         1
        44        14        15        45     9      180.000000       11.520938         2
        44        14        15        45     9        0.000000       -0.587926         3
        44        14        15        45     9      180.000000        0.263272         4
        45        15        16        46     9        0.000000       -0.180341         1
        45        15        16        46     9      180.000000       11.789161         2
        45        15        16        46     9        0.000000       -0.659630         3
        45        15        16        46     9      180.000000        0.310085         4

[ dihedrals ] ; impropers
;       ai        aj        ak        al funct           phase               k        pn
        12        11        13        42     4      180.000000        0.182436         2
        12        13        42        11     4      180.000000        0.182436         2
        12        42        11        13     4      180.000000        0.182436         2
        13        12        14        43     4      180.000000        0.258179         2
        13        14        43        12     4      180.000000        0.258179         2
        13        43        12        14     4      180.000000        0.258179         2
        14        13        15        44     4      180.000000        0.333131         2
        14        15        44        13     4      180.000000        0.333131         2
        14        44        13        15     4      180.000000        0.333131         2
        15        14        16        45     4      180.000000        0.258179         2
        15        16        45        14     4      180.000000        0.258179         2
        15        45        14        16     4      180.000000        0.258179         2
        16        11        15        46     4      180.000000        0.182436         2
        16        15        46        11     4      180.000000        0.182436         2
        16        46        11        15     4      180.000000        0.182436         2

[ pairs ]
;       ai        aj funct
         1         4     1
         1        31     1
         1        32     1
         2         5     1
         2        51     1
         3         6     1
         3        28     1
         3        33     1
         3        34     1
         4         7     1
         4        27     1
         4        29     1
         4        30     1
         4        35     1
         5         8     1
         5        26     1
         5        31     1
         5        32     1
         5        36     1
         5        37     1
         6         9     1
         6        25     1
         6        38     1
         6        39     1
         6        50     1
         6        51     1
         7        10     1
         7        26     1
         7        33     1
         7        34     1
         7        40     1
         8        11     1
         8        17     1
         8        25     1
         8        27     1
         8        35     1
         8        41     1
         8        50     1
         9        12     1
         9        16     1
         9        18     1
         9        24     1
         9        36     1
         9        37     1
         9        47     1
        10        13     1
        10        15     1
        10        19     1
        10        25     1
        10        27     1
        10        38     1
        10        39     1
        10        42     1
        10        46     1
        10        50     1
        11        14     1
        11        18     1
        11        26     1
        11        40     1
        11        43     1
        11        45     1
        11        47     1
        12        15     1
        12        17     1
        12        41     1
        12        44     1
        12        46     1
        13        16     1
        13        45     1
        14        42     1
        14        46     1
        15        43     1
        16        17     1
        16        41     1
        16        42     1
        16        44     1
        17        20     1
        17        21     1
        17        24     1
        17        26     1
        17        40     1
        18        22     1
        18        27     1
        18        41     1
        18        48     1
        18        49     1
        18        50     1
        19        23     1
        19        24     1
        19        26     1
        19        47     1
        20        22     1
        20        25     1
        20        48     1
        21        25     1
        21        49     1
        22        26     1
        23        25     1
        23        48     1
        23        49     1
        24        27     1
        24        48     1
        24        50     1
        25        40     1
        25        47     1
        26        35     1
        26        38     1
        26        39     1
        26        41     1
        26        49     1
        27        33     1
        27        34     1
        27        36     1
        27        37     1
        27        40     1
        28        29     1
        28        30     1
        29        31     1
        29        32     1
        30        31     1
        30        32     1
        31        51     1
        32        51     1
        33        35     1
        33        51     1
        34        35     1
        34        51     1
        35        36     1
        35        37     1
        36        38     1
        36        39     1
        37        38     1
        37        39     1
        38        40     1
        39        40     1
        40        41     1
        40        50     1
        41        47     1
        42        43     1
        43        44     1
        44        45     1
        45        46     1
