; ITP file created by ByteFF-ML, 2026-02-21 07:38:29.248196

[ atomtypes ]
;name           bonded.type        at.num        mass        charge   ptype           sigma         epsilon
 c0bf                                   6      0.0000       0.00000       A     3.39670e-01     4.50719e-01
 n1bf                                   7      0.0000       0.00000       A     2.59166e-01     1.06488e+01
 c2bf                                   6      0.0000       0.00000       A     3.39670e-01     4.50719e-01
 c3bf                                   6      0.0000       0.00000       A     3.38931e-01     4.54436e-01
 c4bf                                   6      0.0000       0.00000       A     3.39617e-01     4.46465e-01
 s5bf                                  16      0.0000       0.00000       A     4.06075e-01     2.56831e-01
 o6bf                                   8      0.0000       0.00000       A     3.05071e-01     6.12118e-01
 o7bf                                   8      0.0000       0.00000       A     3.05071e-01     6.12118e-01
 n8bf                                   7      0.0000       0.00000       A     3.50507e-01     2.20093e-01
 c9bf                                   6      0.0000       0.00000       A     3.39825e-01     4.50071e-01
 c10bf                                  6      0.0000       0.00000       A     3.39816e-01     4.51879e-01
 c11bf                                  6      0.0000       0.00000       A     3.39811e-01     4.50473e-01
 c12bf                                  6      0.0000       0.00000       A     3.39938e-01     4.52179e-01
 c13bf                                  6      0.0000       0.00000       A     3.40218e-01     4.51818e-01
 c14bf                                  6      0.0000       0.00000       A     3.39362e-01     4.50304e-01
 c15bf                                  6      0.0000       0.00000       A     3.31416e-01     4.11566e-01
 c16bf                                  6      0.0000       0.00000       A     3.31559e-01     4.13032e-01
 c17bf                                  6      0.0000       0.00000       A     3.31517e-01     4.13352e-01
 c18bf                                  6      0.0000       0.00000       A     3.31506e-01     4.12857e-01
 c19bf                                  6      0.0000       0.00000       A     3.31517e-01     4.13352e-01
 c20bf                                  6      0.0000       0.00000       A     3.31559e-01     4.13032e-01
 n21bf                                  7      0.0000       0.00000       A     3.28297e-01     6.42817e-01
 c22bf                                  6      0.0000       0.00000       A     3.31321e-01     4.12520e-01
 c23bf                                  6      0.0000       0.00000       A     3.31658e-01     4.13787e-01
 f24bf                                  9      0.0000       0.00000       A     3.03467e-01     3.47084e-01
 c25bf                                  6      0.0000       0.00000       A     3.31520e-01     4.12330e-01
 c26bf                                  6      0.0000       0.00000       A     3.31515e-01     4.13420e-01
 cl27bf                                17      0.0000       0.00000       A     3.46600e-01     1.10380e+00
 c28bf                                  6      0.0000       0.00000       A     3.31444e-01     4.12303e-01
 c29bf                                  6      0.0000       0.00000       A     3.31361e-01     4.10776e-01
 c30bf                                  6      0.0000       0.00000       A     3.39807e-01     4.52020e-01
 o31bf                                  8      0.0000       0.00000       A     3.15772e-01     3.04450e-01
 h32bf                                  1      0.0000       0.00000       A     1.88202e-01     8.71518e-02
 h33bf                                  1      0.0000       0.00000       A     1.88202e-01     8.71518e-02
 h34bf                                  1      0.0000       0.00000       A     1.88202e-01     8.71518e-02
 h35bf                                  1      0.0000       0.00000       A     1.88202e-01     8.71518e-02
 h36bf                                  1      0.0000       0.00000       A     1.88202e-01     8.71518e-02
 h37bf                                  1      0.0000       0.00000       A     1.88202e-01     8.71518e-02
 h38bf                                  1      0.0000       0.00000       A     1.87535e-01     8.66682e-02
 h39bf                                  1      0.0000       0.00000       A     1.87535e-01     8.66682e-02
 h40bf                                  1      0.0000       0.00000       A     2.40727e-01     8.59723e-02
 h41bf                                  1      0.0000       0.00000       A     2.40727e-01     8.59723e-02
 h42bf                                  1      0.0000       0.00000       A     1.10357e-01     3.90510e-02
 h43bf                                  1      0.0000       0.00000       A     2.42311e-01     8.74071e-02
 h44bf                                  1      0.0000       0.00000       A     2.42311e-01     8.74071e-02
 h45bf                                  1      0.0000       0.00000       A     2.42669e-01     8.71182e-02
 h46bf                                  1      0.0000       0.00000       A     2.59821e-01     8.71677e-02
 h47bf                                  1      0.0000       0.00000       A     2.59821e-01     8.71677e-02
 h48bf                                  1      0.0000       0.00000       A     2.60017e-01     8.63234e-02
 h49bf                                  1      0.0000       0.00000       A     2.60017e-01     8.63234e-02
 h50bf                                  1      0.0000       0.00000       A     2.59608e-01     8.66043e-02
 h51bf                                  1      0.0000       0.00000       A     2.42675e-01     8.80520e-02
 h52bf                                  1      0.0000       0.00000       A     2.62512e-01     6.76287e-02
 h53bf                                  1      0.0000       0.00000       A     2.62458e-01     6.72647e-02
 h54bf                                  1      0.0000       0.00000       A     2.62457e-01     6.73477e-02
 h55bf                                  1      0.0000       0.00000       A     2.62458e-01     6.72647e-02
 h56bf                                  1      0.0000       0.00000       A     2.62512e-01     6.76287e-02
 h57bf                                  1      0.0000       0.00000       A     1.10859e-01     4.14068e-02
 h58bf                                  1      0.0000       0.00000       A     2.62471e-01     6.73940e-02
 h59bf                                  1      0.0000       0.00000       A     2.62423e-01     6.71514e-02
 h60bf                                  1      0.0000       0.00000       A     2.42774e-01     8.84398e-02
 h61bf                                  1      0.0000       0.00000       A     1.10706e-01     4.29965e-02

[ moleculetype ]
;name             nrexcl
 CHEMBL1096003         3

[ atoms ]
;       nr            type      resi   res      atom      cgnr      charge          mass ; qtot
         1            c0bf         1   UNL        c0         1     0.08760       12.0110 ; qtot    0.088
         2            n1bf         1   UNL        n1         2    -0.67612       14.0070 ; qtot   -0.589
         3            c2bf         1   UNL        c2         3     0.08760       12.0110 ; qtot   -0.501
         4            c3bf         1   UNL        c3         4     0.13109       12.0110 ; qtot   -0.370
         5            c4bf         1   UNL        c4         5    -0.31824       12.0110 ; qtot   -0.688
         6            s5bf         1   UNL        s5         6     1.12874       32.0670 ; qtot    0.441
         7            o6bf         1   UNL        o6         7    -0.50122       15.9990 ; qtot   -0.061
         8            o7bf         1   UNL        o7         8    -0.50122       15.9990 ; qtot   -0.562
         9            n8bf         1   UNL        n8         9    -0.85863       14.0070 ; qtot   -1.420
        10            c9bf         1   UNL        c9        10     0.19665       12.0110 ; qtot   -1.224
        11           c10bf         1   UNL       c10        11     0.15035       12.0110 ; qtot   -1.073
        12           c11bf         1   UNL       c11        12    -0.10071       12.0110 ; qtot   -1.174
        13           c12bf         1   UNL       c12        13    -0.06676       12.0110 ; qtot   -1.241
        14           c13bf         1   UNL       c13        14    -0.09750       12.0110 ; qtot   -1.338
        15           c14bf         1   UNL       c14        15     0.26317       12.0110 ; qtot   -1.075
        16           c15bf         1   UNL       c15        16    -0.10797       12.0110 ; qtot   -1.183
        17           c16bf         1   UNL       c16        17    -0.09640       12.0110 ; qtot   -1.280
        18           c17bf         1   UNL       c17        18    -0.11334       12.0110 ; qtot   -1.393
        19           c18bf         1   UNL       c18        19    -0.10684       12.0110 ; qtot   -1.500
        20           c19bf         1   UNL       c19        20    -0.11334       12.0110 ; qtot   -1.613
        21           c20bf         1   UNL       c20        21    -0.09640       12.0110 ; qtot   -1.709
        22           n21bf         1   UNL       n21        22    -0.91899       14.0070 ; qtot   -2.628
        23           c22bf         1   UNL       c22        23     0.28208       12.0110 ; qtot   -2.346
        24           c23bf         1   UNL       c23        24     0.10307       12.0110 ; qtot   -2.243
        25           f24bf         1   UNL       f24        25    -0.17968       18.9980 ; qtot   -2.423
        26           c25bf         1   UNL       c25        26    -0.08780       12.0110 ; qtot   -2.511
        27           c26bf         1   UNL       c26        27     0.09614       12.0110 ; qtot   -2.415
        28          cl27bf         1   UNL      cl27        28    -0.19523       35.4530 ; qtot   -2.610
        29           c28bf         1   UNL       c28        29    -0.04577       12.0110 ; qtot   -2.656
        30           c29bf         1   UNL       c29        30    -0.14224       12.0110 ; qtot   -2.798
        31           c30bf         1   UNL       c30        31     0.22733       12.0110 ; qtot   -2.571
        32           o31bf         1   UNL       o31        32    -0.45561       15.9990 ; qtot   -3.026
        33           h32bf         1   UNL       h32        33     0.10358        1.0080 ; qtot   -2.923
        34           h33bf         1   UNL       h33        34     0.10358        1.0080 ; qtot   -2.819
        35           h34bf         1   UNL       h34        35     0.10358        1.0080 ; qtot   -2.715
        36           h35bf         1   UNL       h35        36     0.10358        1.0080 ; qtot   -2.612
        37           h36bf         1   UNL       h36        37     0.10358        1.0080 ; qtot   -2.508
        38           h37bf         1   UNL       h37        38     0.10358        1.0080 ; qtot   -2.405
        39           h38bf         1   UNL       h38        39     0.11323        1.0080 ; qtot   -2.291
        40           h39bf         1   UNL       h39        40     0.11323        1.0080 ; qtot   -2.178
        41           h40bf         1   UNL       h40        41     0.12876        1.0080 ; qtot   -2.049
        42           h41bf         1   UNL       h41        42     0.12876        1.0080 ; qtot   -1.921
        43           h42bf         1   UNL       h42        43     0.48679        1.0080 ; qtot   -1.434
        44           h43bf         1   UNL       h43        44     0.06792        1.0080 ; qtot   -1.366
        45           h44bf         1   UNL       h44        45     0.06792        1.0080 ; qtot   -1.298
        46           h45bf         1   UNL       h45        46     0.05937        1.0080 ; qtot   -1.239
        47           h46bf         1   UNL       h46        47     0.05271        1.0080 ; qtot   -1.186
        48           h47bf         1   UNL       h47        48     0.05271        1.0080 ; qtot   -1.133
        49           h48bf         1   UNL       h48        49     0.04867        1.0080 ; qtot   -1.085
        50           h49bf         1   UNL       h49        50     0.04867        1.0080 ; qtot   -1.036
        51           h50bf         1   UNL       h50        51     0.06779        1.0080 ; qtot   -0.968
        52           h51bf         1   UNL       h51        52     0.05724        1.0080 ; qtot   -0.911
        53           h52bf         1   UNL       h52        53     0.11749        1.0080 ; qtot   -0.793
        54           h53bf         1   UNL       h53        54     0.11433        1.0080 ; qtot   -0.679
        55           h54bf         1   UNL       h54        55     0.11376        1.0080 ; qtot   -0.565
        56           h55bf         1   UNL       h55        56     0.11433        1.0080 ; qtot   -0.451
        57           h56bf         1   UNL       h56        57     0.11749        1.0080 ; qtot   -0.334
        58           h57bf         1   UNL       h57        58     0.47232        1.0080 ; qtot    0.139
        59           h58bf         1   UNL       h58        59     0.14960        1.0080 ; qtot    0.288
        60           h59bf         1   UNL       h59        60     0.14026        1.0080 ; qtot    0.429
        61           h60bf         1   UNL       h60        61     0.05904        1.0080 ; qtot    0.488
        62           h61bf         1   UNL       h61        62     0.51232        1.0080 ; qtot    1.000

[ bonds ]
;       ai        aj funct               r               k
         1         2     1        0.150627   157996.933765
         1        33     1        0.108873   319316.705127
         1        34     1        0.108873   319316.705127
         1        35     1        0.108873   319316.705127
         2         3     1        0.150627   157996.933765
         2         4     1        0.151806   138359.803223
         2        62     1        0.103062   368347.418848
         3        36     1        0.108873   319316.705127
         3        37     1        0.108873   319316.705127
         3        38     1        0.108873   319316.705127
         4         5     1        0.152820   186328.122119
         4        39     1        0.109046   312792.024756
         4        40     1        0.109046   312792.024756
         5         6     1        0.183120   122597.673657
         5        41     1        0.109188   313141.321338
         5        42     1        0.109188   313141.321338
         6         7     1        0.146461   522122.034180
         6         8     1        0.146461   522122.034180
         6         9     1        0.167742   164512.012183
         9        10     1        0.147341   191386.921338
         9        43     1        0.101881   403850.640527
        10        11     1        0.153242   177852.138452
        10        44     1        0.109371   299510.812598
        10        45     1        0.109371   299510.812598
        11        12     1        0.153442   176110.507593
        11        32     1        0.143517   180438.639038
        11        46     1        0.109805   287571.396777
        12        13     1        0.153626   183892.954443
        12        47     1        0.109494   296650.962793
        12        48     1        0.109494   296650.988330
        13        14     1        0.153644   177808.291235
        13        49     1        0.109464   296701.219824
        13        50     1        0.109464   296701.219824
        14        15     1        0.154208   163102.248828
        14        31     1        0.153668   168412.614111
        14        51     1        0.109661   296507.444238
        15        16     1        0.151991   180812.068188
        15        22     1        0.146717   193240.366431
        15        52     1        0.109885   282868.406104
        16        17     1        0.140235   288447.651611
        16        21     1        0.140235   288447.651611
        17        18     1        0.139815   313021.067090
        17        53     1        0.108668   316228.298193
        18        19     1        0.139918   306554.075049
        18        54     1        0.108647   318864.647217
        19        20     1        0.139918   306554.075049
        19        55     1        0.108625   319984.423926
        20        21     1        0.139815   313021.067090
        20        56     1        0.108647   318864.647217
        21        57     1        0.108668   316228.298193
        22        23     1        0.139116   284397.083008
        22        58     1        0.101361   410557.247266
        23        24     1        0.140388   269197.242285
        23        30     1        0.140997   266941.523877
        24        25     1        0.136368   279487.343896
        24        26     1        0.138401   326005.435889
        26        27     1        0.139761   301353.059668
        26        59     1        0.108385   328155.686035
        27        28     1        0.175528   152260.762720
        27        29     1        0.139339   306276.844189
        29        30     1        0.139725   301881.141553
        29        60     1        0.108448   323298.323535
        30        31     1        0.151164   190781.513086
        31        32     1        0.143188   184204.073047
        31        61     1        0.109993   280435.332471

[ angles ]
;       ai        aj        ak funct           theta             cth
         1         2         3     1      111.513123      620.673059
         1         2         4     1      112.430336      602.654649
         1         2        62     1      107.393478      500.409809
         2         1        33     1      108.781479      543.645093
         2         1        34     1      108.781479      543.645093
         2         1        35     1      108.781479      543.645093
         2         3        36     1      108.781479      543.645093
         2         3        37     1      108.781479      543.645093
         2         3        38     1      108.781479      543.645093
         2         4         5     1      113.339867      644.411973
         2         4        39     1      106.746742      548.351072
         2         4        40     1      106.746742      548.351072
         3         2         4     1      112.430336      602.654649
         3         2        62     1      107.393478      500.409809
         4         2        62     1      105.703506      507.121728
         4         5         6     1      108.243881      775.884928
         4         5        41     1      111.764954      491.488165
         4         5        42     1      111.764954      491.488165
         5         4        39     1      110.371048      479.394173
         5         4        40     1      110.371048      479.394173
         5         6         7     1      106.215897      627.068445
         5         6         8     1      106.215897      627.068445
         5         6         9     1      102.026192      545.665653
         6         5        41     1      107.059097      562.280032
         6         5        42     1      107.059097      562.280032
         6         9        10     1      119.231949      554.557738
         6         9        43     1      109.543503      601.796283
         7         6         8     1      121.867325      690.660061
         7         6         9     1      108.044434      682.435069
         8         6         9     1      108.044434      682.435069
         9        10        11     1      111.385742      535.597328
         9        10        44     1      109.072853      461.482380
         9        10        45     1      109.072853      461.482380
        10         9        43     1      114.370323      469.747402
        10        11        12     1      113.301392      594.288054
        10        11        32     1      107.026756      619.673281
        10        11        46     1      108.120972      492.156599
        11        10        44     1      109.332291      482.259628
        11        10        45     1      109.332291      482.259628
        11        12        13     1      110.739967      653.777389
        11        12        47     1      109.166283      483.879606
        11        12        48     1      109.166283      483.879606
        11        32        31     1      113.835144      586.944794
        12        11        32     1      111.145370      558.856145
        12        11        46     1      109.297012      472.373032
        12        13        14     1      110.793762      628.491628
        12        13        49     1      109.849625      506.841809
        12        13        50     1      109.849625      506.841809
        13        12        47     1      110.409134      506.167406
        13        12        48     1      110.409134      506.167406
        13        14        15     1      113.411804      594.475688
        13        14        31     1      109.908714      600.776331
        13        14        51     1      108.811119      484.857103
        14        13        49     1      109.615433      494.102016
        14        13        50     1      109.615433      494.102016
        14        15        16     1      112.843285      538.257338
        14        15        22     1      108.766685      598.620105
        14        15        52     1      107.243668      478.689221
        14        31        30     1      111.992416      581.200477
        14        31        32     1      111.257217      582.246477
        14        31        61     1      108.431297      466.594207
        15        14        31     1      109.544479      678.171585
        15        14        51     1      107.093895      495.501704
        15        16        17     1      120.673706      479.725229
        15        16        21     1      120.673706      479.725229
        15        22        23     1      118.289085      525.336741
        15        22        58     1      114.178909      453.510972
        16        15        22     1      111.071960      594.254409
        16        15        52     1      107.675270      485.216729
        16        17        18     1      120.662560      709.918234
        16        17        53     1      119.614578      400.532036
        16        21        20     1      120.662560      709.918234
        16        21        57     1      119.614578      400.532036
        17        16        21     1      118.740906      679.590873
        17        18        19     1      120.153175      705.714506
        17        18        54     1      119.816544      429.696851
        18        17        53     1      119.686012      431.264766
        18        19        20     1      119.511429      689.005895
        18        19        55     1      120.255783      430.416551
        19        18        54     1      120.079079      431.521669
        19        20        21     1      120.153175      705.714506
        19        20        56     1      120.079079      431.521669
        20        19        55     1      120.255783      430.416551
        20        21        57     1      119.686012      431.264766
        21        20        56     1      119.816544      429.696851
        22        15        52     1      109.091698      442.116409
        22        23        24     1      120.487778      402.583527
        22        23        30     1      121.507523      576.046258
        23        22        58     1      114.286232      478.343672
        23        24        25     1      117.528725      420.312059
        23        24        26     1      123.606201      708.359448
        23        30        29     1      119.950478      770.766781
        23        30        31     1      119.172806      566.923700
        24        23        30     1      117.117538      636.256378
        24        26        27     1      117.888809      665.813411
        24        26        59     1      120.143997      424.368342
        25        24        26     1      118.762794      553.047665
        26        27        28     1      119.218063      381.763633
        26        27        29     1      120.769203      614.622935
        27        26        59     1      121.971275      416.408520
        27        29        30     1      120.354225      622.229227
        27        29        60     1      120.204674      417.454010
        28        27        29     1      119.824768      362.571474
        29        30        31     1      120.712204      485.801721
        30        29        60     1      119.764626      396.890476
        30        31        32     1      109.552650      617.130104
        30        31        61     1      108.465210      465.832882
        31        14        51     1      107.252480      505.343579
        32        11        46     1      107.475754      461.676718
        32        31        61     1      107.398392      473.791331
        33         1        34     1      110.261803      348.514221
        33         1        35     1      110.261803      348.514221
        34         1        35     1      110.261803      348.514221
        36         3        37     1      110.261803      348.514221
        36         3        38     1      110.261803      348.514221
        37         3        38     1      110.261803      348.514221
        39         4        40     1      108.574142      351.481314
        41         5        42     1      109.232132      344.287382
        44        10        45     1      107.787491      348.703004
        47        12        48     1      107.037109      358.423353
        49        13        50     1      106.517052      361.462844

[ dihedrals ] ; propers for gromacs 4.5 or higher, use funct 9
;       ai        aj        ak        al funct           phase               k        pn
         1         2         3        36     9        0.000000        0.028638         1
         1         2         3        36     9      180.000000        0.051549         2
         1         2         3        36     9        0.000000        0.658659         3
         1         2         3        36     9      180.000000        0.000054         4
         1         2         3        37     9        0.000000        0.028638         1
         1         2         3        37     9      180.000000        0.051549         2
         1         2         3        37     9        0.000000        0.658659         3
         1         2         3        37     9      180.000000        0.000054         4
         1         2         3        38     9        0.000000        0.028638         1
         1         2         3        38     9      180.000000        0.051549         2
         1         2         3        38     9        0.000000        0.658659         3
         1         2         3        38     9      180.000000        0.000054         4
         1         2         4         5     9        0.000000        0.627511         1
         1         2         4         5     9      180.000000        0.053516         2
         1         2         4         5     9        0.000000        0.572303         3
         1         2         4         5     9      180.000000        0.123238         4
         1         2         4        39     9        0.000000       -0.138209         1
         1         2         4        39     9      180.000000       -0.049827         2
         1         2         4        39     9        0.000000        0.679749         3
         1         2         4        39     9      180.000000       -0.030855         4
         1         2         4        40     9        0.000000       -0.138209         1
         1         2         4        40     9      180.000000       -0.049827         2
         1         2         4        40     9        0.000000        0.679749         3
         1         2         4        40     9      180.000000       -0.030855         4
         2         4         5         6     9        0.000000      -13.283277         1
         2         4         5         6     9      180.000000       -1.756485         2
         2         4         5         6     9        0.000000        0.292989         3
         2         4         5         6     9      180.000000       -0.110337         4
         2         4         5        41     9        0.000000       -0.217759         1
         2         4         5        41     9      180.000000       -0.093648         2
         2         4         5        41     9        0.000000        0.689008         3
         2         4         5        41     9      180.000000       -0.019613         4
         2         4         5        42     9        0.000000       -0.217759         1
         2         4         5        42     9      180.000000       -0.093648         2
         2         4         5        42     9        0.000000        0.689008         3
         2         4         5        42     9      180.000000       -0.019613         4
         3         2         1        33     9        0.000000        0.028638         1
         3         2         1        33     9      180.000000        0.051549         2
         3         2         1        33     9        0.000000        0.658659         3
         3         2         1        33     9      180.000000        0.000054         4
         3         2         1        34     9        0.000000        0.028638         1
         3         2         1        34     9      180.000000        0.051549         2
         3         2         1        34     9        0.000000        0.658659         3
         3         2         1        34     9      180.000000        0.000054         4
         3         2         1        35     9        0.000000        0.028638         1
         3         2         1        35     9      180.000000        0.051549         2
         3         2         1        35     9        0.000000        0.658659         3
         3         2         1        35     9      180.000000        0.000054         4
         3         2         4         5     9        0.000000        0.627511         1
         3         2         4         5     9      180.000000        0.053516         2
         3         2         4         5     9        0.000000        0.572303         3
         3         2         4         5     9      180.000000        0.123238         4
         3         2         4        39     9        0.000000       -0.138209         1
         3         2         4        39     9      180.000000       -0.049827         2
         3         2         4        39     9        0.000000        0.679749         3
         3         2         4        39     9      180.000000       -0.030855         4
         3         2         4        40     9        0.000000       -0.138209         1
         3         2         4        40     9      180.000000       -0.049827         2
         3         2         4        40     9        0.000000        0.679749         3
         3         2         4        40     9      180.000000       -0.030855         4
         4         2         1        33     9        0.000000       -0.044018         1
         4         2         1        33     9      180.000000        0.070373         2
         4         2         1        33     9        0.000000        0.619830         3
         4         2         1        33     9      180.000000       -0.018459         4
         4         2         1        34     9        0.000000       -0.044018         1
         4         2         1        34     9      180.000000        0.070373         2
         4         2         1        34     9        0.000000        0.619830         3
         4         2         1        34     9      180.000000       -0.018459         4
         4         2         1        35     9        0.000000       -0.044018         1
         4         2         1        35     9      180.000000        0.070373         2
         4         2         1        35     9        0.000000        0.619830         3
         4         2         1        35     9      180.000000       -0.018459         4
         4         2         3        36     9        0.000000       -0.044018         1
         4         2         3        36     9      180.000000        0.070373         2
         4         2         3        36     9        0.000000        0.619830         3
         4         2         3        36     9      180.000000       -0.018459         4
         4         2         3        37     9        0.000000       -0.044018         1
         4         2         3        37     9      180.000000        0.070373         2
         4         2         3        37     9        0.000000        0.619830         3
         4         2         3        37     9      180.000000       -0.018459         4
         4         2         3        38     9        0.000000       -0.044018         1
         4         2         3        38     9      180.000000        0.070373         2
         4         2         3        38     9        0.000000        0.619830         3
         4         2         3        38     9      180.000000       -0.018459         4
         4         5         6         7     9        0.000000       -0.079870         1
         4         5         6         7     9      180.000000        1.410587         2
         4         5         6         7     9        0.000000        0.291477         3
         4         5         6         7     9      180.000000        0.040514         4
         4         5         6         8     9        0.000000       -0.079870         1
         4         5         6         8     9      180.000000        1.410587         2
         4         5         6         8     9        0.000000        0.291477         3
         4         5         6         8     9      180.000000        0.040514         4
         4         5         6         9     9        0.000000       -0.695059         1
         4         5         6         9     9      180.000000        0.417591         2
         4         5         6         9     9        0.000000        0.569098         3
         4         5         6         9     9      180.000000       -0.098973         4
         5         4         2        62     9        0.000000       -0.366434         1
         5         4         2        62     9      180.000000       -0.722398         2
         5         4         2        62     9        0.000000        0.486943         3
         5         4         2        62     9      180.000000       -0.133107         4
         5         6         9        10     9        0.000000       -1.798748         1
         5         6         9        10     9      180.000000       -7.061164         2
         5         6         9        10     9        0.000000        2.711387         3
         5         6         9        10     9      180.000000        0.707151         4
         5         6         9        43     9        0.000000       -8.459442         1
         5         6         9        43     9      180.000000       -5.504332         2
         5         6         9        43     9        0.000000       -0.350627         3
         5         6         9        43     9      180.000000        0.567194         4
         6         5         4        39     9        0.000000        2.517636         1
         6         5         4        39     9      180.000000       -0.536910         2
         6         5         4        39     9        0.000000        0.379363         3
         6         5         4        39     9      180.000000        0.029365         4
         6         5         4        40     9        0.000000        2.517636         1
         6         5         4        40     9      180.000000       -0.536910         2
         6         5         4        40     9        0.000000        0.379363         3
         6         5         4        40     9      180.000000        0.029365         4
         6         9        10        11     9        0.000000       -2.891467         1
         6         9        10        11     9      180.000000       -1.111106         2
         6         9        10        11     9        0.000000       -0.056138         3
         6         9        10        11     9      180.000000        0.132556         4
         6         9        10        44     9        0.000000        0.708385         1
         6         9        10        44     9      180.000000        0.068614         2
         6         9        10        44     9        0.000000       -0.108997         3
         6         9        10        44     9      180.000000        0.055803         4
         6         9        10        45     9        0.000000        0.708385         1
         6         9        10        45     9      180.000000        0.068614         2
         6         9        10        45     9        0.000000       -0.108997         3
         6         9        10        45     9      180.000000        0.055803         4
         7         6         5        41     9        0.000000        0.085253         1
         7         6         5        41     9      180.000000        0.005650         2
         7         6         5        41     9        0.000000        0.407887         3
         7         6         5        41     9      180.000000        0.014742         4
         7         6         5        42     9        0.000000        0.085253         1
         7         6         5        42     9      180.000000        0.005650         2
         7         6         5        42     9        0.000000        0.407887         3
         7         6         5        42     9      180.000000        0.014742         4
         7         6         9        10     9        0.000000        0.442219         1
         7         6         9        10     9      180.000000        0.500826         2
         7         6         9        10     9        0.000000        1.503492         3
         7         6         9        10     9      180.000000        0.001493         4
         7         6         9        43     9        0.000000        0.292878         1
         7         6         9        43     9      180.000000        0.053888         2
         7         6         9        43     9        0.000000       -1.086789         3
         7         6         9        43     9      180.000000       -0.156427         4
         8         6         5        41     9        0.000000        0.085253         1
         8         6         5        41     9      180.000000        0.005650         2
         8         6         5        41     9        0.000000        0.407887         3
         8         6         5        41     9      180.000000        0.014742         4
         8         6         5        42     9        0.000000        0.085253         1
         8         6         5        42     9      180.000000        0.005650         2
         8         6         5        42     9        0.000000        0.407887         3
         8         6         5        42     9      180.000000        0.014742         4
         8         6         9        10     9        0.000000        0.442219         1
         8         6         9        10     9      180.000000        0.500826         2
         8         6         9        10     9        0.000000        1.503492         3
         8         6         9        10     9      180.000000        0.001493         4
         8         6         9        43     9        0.000000        0.292878         1
         8         6         9        43     9      180.000000        0.053888         2
         8         6         9        43     9        0.000000       -1.086789         3
         8         6         9        43     9      180.000000       -0.156427         4
         9         6         5        41     9        0.000000        0.536131         1
         9         6         5        41     9      180.000000       -0.044810         2
         9         6         5        41     9        0.000000        0.544581         3
         9         6         5        41     9      180.000000       -0.077857         4
         9         6         5        42     9        0.000000        0.536131         1
         9         6         5        42     9      180.000000       -0.044810         2
         9         6         5        42     9        0.000000        0.544581         3
         9         6         5        42     9      180.000000       -0.077857         4
         9        10        11        12     9        0.000000       -0.289159         1
         9        10        11        12     9      180.000000        0.529837         2
         9        10        11        12     9        0.000000        0.726106         3
         9        10        11        12     9      180.000000       -0.028940         4
         9        10        11        32     9        0.000000       -2.423728         1
         9        10        11        32     9      180.000000       -0.899123         2
         9        10        11        32     9        0.000000        0.579524         3
         9        10        11        32     9      180.000000        0.040428         4
         9        10        11        46     9        0.000000        0.069597         1
         9        10        11        46     9      180.000000        0.064967         2
         9        10        11        46     9        0.000000        0.770400         3
         9        10        11        46     9      180.000000        0.045632         4
        10        11        12        13     9        0.000000        0.128538         1
        10        11        12        13     9      180.000000        0.319000         2
        10        11        12        13     9        0.000000        0.255653         3
        10        11        12        13     9      180.000000        0.008505         4
        10        11        12        47     9        0.000000       -0.085441         1
        10        11        12        47     9      180.000000       -0.015981         2
        10        11        12        47     9        0.000000        0.319765         3
        10        11        12        47     9      180.000000        0.002661         4
        10        11        12        48     9        0.000000       -0.085441         1
        10        11        12        48     9      180.000000       -0.015981         2
        10        11        12        48     9        0.000000        0.319765         3
        10        11        12        48     9      180.000000        0.002661         4
        10        11        32        31     9        0.000000       -0.059164         1
        10        11        32        31     9      180.000000       -0.217261         2
        10        11        32        31     9        0.000000        0.252528         3
        10        11        32        31     9      180.000000        0.126214         4
        11        10         9        43     9        0.000000        2.254549         1
        11        10         9        43     9      180.000000       -2.631072         2
        11        10         9        43     9        0.000000        0.254505         3
        11        10         9        43     9      180.000000       -0.234528         4
        11        12        13        14     9        0.000000        0.733253         1
        11        12        13        14     9      180.000000       -1.118340         2
        11        12        13        14     9        0.000000        0.117065         3
        11        12        13        14     9      180.000000        0.130713         4
        11        12        13        49     9        0.000000       -0.054033         1
        11        12        13        49     9      180.000000        0.035955         2
        11        12        13        49     9        0.000000        0.191610         3
        11        12        13        49     9      180.000000        0.007758         4
        11        12        13        50     9        0.000000       -0.054033         1
        11        12        13        50     9      180.000000        0.035955         2
        11        12        13        50     9        0.000000        0.191610         3
        11        12        13        50     9      180.000000        0.007758         4
        11        32        31        14     9        0.000000        6.369278         1
        11        32        31        14     9      180.000000       -3.014248         2
        11        32        31        14     9        0.000000        0.019901         3
        11        32        31        14     9      180.000000        0.179065         4
        11        32        31        30     9        0.000000        0.278154         1
        11        32        31        30     9      180.000000       -1.014571         2
        11        32        31        30     9        0.000000        0.690805         3
        11        32        31        30     9      180.000000        0.117319         4
        11        32        31        61     9        0.000000       -0.153124         1
        11        32        31        61     9      180.000000        0.248193         2
        11        32        31        61     9        0.000000        0.643902         3
        11        32        31        61     9      180.000000        0.039325         4
        12        11        10        44     9        0.000000       -0.118895         1
        12        11        10        44     9      180.000000        0.043546         2
        12        11        10        44     9        0.000000        0.622051         3
        12        11        10        44     9      180.000000        0.060551         4
        12        11        10        45     9        0.000000       -0.118895         1
        12        11        10        45     9      180.000000        0.043546         2
        12        11        10        45     9        0.000000        0.622051         3
        12        11        10        45     9      180.000000        0.060551         4
        12        11        32        31     9        0.000000        4.704054         1
        12        11        32        31     9      180.000000       -1.750238         2
        12        11        32        31     9        0.000000        0.078169         3
        12        11        32        31     9      180.000000        0.171908         4
        12        13        14        15     9        0.000000        0.236706         1
        12        13        14        15     9      180.000000       -0.410376         2
        12        13        14        15     9        0.000000        0.341179         3
        12        13        14        15     9      180.000000        0.017296         4
        12        13        14        31     9        0.000000        0.875707         1
        12        13        14        31     9      180.000000       -0.928251         2
        12        13        14        31     9        0.000000        0.121988         3
        12        13        14        31     9      180.000000        0.073304         4
        12        13        14        51     9        0.000000       -0.873614         1
        12        13        14        51     9      180.000000       -0.008973         2
        12        13        14        51     9        0.000000        0.204988         3
        12        13        14        51     9      180.000000        0.140955         4
        13        12        11        32     9        0.000000       -0.391560         1
        13        12        11        32     9      180.000000       -0.434495         2
        13        12        11        32     9        0.000000        0.210043         3
        13        12        11        32     9      180.000000        0.017026         4
        13        12        11        46     9        0.000000       -0.126507         1
        13        12        11        46     9      180.000000       -0.012558         2
        13        12        11        46     9        0.000000        0.424484         3
        13        12        11        46     9      180.000000        0.027114         4
        13        14        15        16     9        0.000000        1.320949         1
        13        14        15        16     9      180.000000       -0.514293         2
        13        14        15        16     9        0.000000        0.883995         3
        13        14        15        16     9      180.000000        0.109917         4
        13        14        15        22     9        0.000000       -2.127418         1
        13        14        15        22     9      180.000000        0.810742         2
        13        14        15        22     9        0.000000        0.321075         3
        13        14        15        22     9      180.000000       -0.116557         4
        13        14        15        52     9        0.000000       -0.229337         1
        13        14        15        52     9      180.000000        0.171580         2
        13        14        15        52     9        0.000000        0.511325         3
        13        14        15        52     9      180.000000       -0.011479         4
        13        14        31        30     9        0.000000        0.272956         1
        13        14        31        30     9      180.000000       -1.143135         2
        13        14        31        30     9        0.000000        0.281216         3
        13        14        31        30     9      180.000000       -0.012000         4
        13        14        31        32     9        0.000000       -0.317279         1
        13        14        31        32     9      180.000000       -1.411575         2
        13        14        31        32     9        0.000000        0.267696         3
        13        14        31        32     9      180.000000        0.121175         4
        13        14        31        61     9        0.000000       -0.098434         1
        13        14        31        61     9      180.000000        0.213262         2
        13        14        31        61     9        0.000000        0.259917         3
        13        14        31        61     9      180.000000        0.094961         4
        14        13        12        47     9        0.000000       -0.045646         1
        14        13        12        47     9      180.000000        0.017111         2
        14        13        12        47     9        0.000000        0.182407         3
        14        13        12        47     9      180.000000        0.008350         4
        14        13        12        48     9        0.000000       -0.045646         1
        14        13        12        48     9      180.000000        0.017111         2
        14        13        12        48     9        0.000000        0.182408         3
        14        13        12        48     9      180.000000        0.008350         4
        14        15        16        17     9        0.000000       -0.370684         1
        14        15        16        17     9      180.000000       -0.121357         2
        14        15        16        17     9        0.000000        0.103495         3
        14        15        16        17     9      180.000000        0.008068         4
        14        15        16        21     9        0.000000       -0.370684         1
        14        15        16        21     9      180.000000       -0.121357         2
        14        15        16        21     9        0.000000        0.103495         3
        14        15        16        21     9      180.000000        0.008068         4
        14        15        22        23     9        0.000000        6.161625         1
        14        15        22        23     9      180.000000       -3.263340         2
        14        15        22        23     9        0.000000       -0.105538         3
        14        15        22        23     9      180.000000        0.688508         4
        14        15        22        58     9        0.000000        3.368913         1
        14        15        22        58     9      180.000000       -3.021058         2
        14        15        22        58     9        0.000000        0.143701         3
        14        15        22        58     9      180.000000        0.376102         4
        14        31        30        23     9        0.000000        3.461558         1
        14        31        30        23     9      180.000000       -3.570635         2
        14        31        30        23     9        0.000000       -0.183191         3
        14        31        30        23     9      180.000000        0.744564         4
        14        31        30        29     9        0.000000       -0.444306         1
        14        31        30        29     9      180.000000       -0.845479         2
        14        31        30        29     9        0.000000       -0.521493         3
        14        31        30        29     9      180.000000        0.252417         4
        15        14        13        49     9        0.000000       -0.014273         1
        15        14        13        49     9      180.000000        0.031203         2
        15        14        13        49     9        0.000000        0.287933         3
        15        14        13        49     9      180.000000        0.003848         4
        15        14        13        50     9        0.000000       -0.014273         1
        15        14        13        50     9      180.000000        0.031203         2
        15        14        13        50     9        0.000000        0.287933         3
        15        14        13        50     9      180.000000        0.003848         4
        15        14        31        30     9        0.000000        2.253723         1
        15        14        31        30     9      180.000000       -2.789852         2
        15        14        31        30     9        0.000000       -0.004781         3
        15        14        31        30     9      180.000000        0.177213         4
        15        14        31        32     9        0.000000        0.623545         1
        15        14        31        32     9      180.000000       -4.004124         2
        15        14        31        32     9        0.000000        0.094736         3
        15        14        31        32     9      180.000000        0.430731         4
        15        14        31        61     9        0.000000       -0.400675         1
        15        14        31        61     9      180.000000        0.120558         2
        15        14        31        61     9        0.000000        0.052579         3
        15        14        31        61     9      180.000000        0.147428         4
        15        16        17        18     9        0.000000        0.091853         1
        15        16        17        18     9      180.000000       14.677092         2
        15        16        17        18     9        0.000000       -0.133576         3
        15        16        17        18     9      180.000000       -0.085438         4
        15        16        17        53     9        0.000000       -0.043395         1
        15        16        17        53     9      180.000000       12.777157         2
        15        16        17        53     9        0.000000       -0.359360         3
        15        16        17        53     9      180.000000        0.187324         4
        15        16        21        20     9        0.000000        0.091853         1
        15        16        21        20     9      180.000000       14.677092         2
        15        16        21        20     9        0.000000       -0.133576         3
        15        16        21        20     9      180.000000       -0.085438         4
        15        16        21        57     9        0.000000       -0.043395         1
        15        16        21        57     9      180.000000       12.777157         2
        15        16        21        57     9        0.000000       -0.359360         3
        15        16        21        57     9      180.000000        0.187324         4
        15        22        23        24     9        0.000000        1.934855         1
        15        22        23        24     9      180.000000        0.830848         2
        15        22        23        24     9        0.000000        0.608582         3
        15        22        23        24     9      180.000000        0.354153         4
        15        22        23        30     9        0.000000        1.859076         1
        15        22        23        30     9      180.000000        1.307136         2
        15        22        23        30     9        0.000000       -0.327133         3
        15        22        23        30     9      180.000000        0.773223         4
        16        15        14        31     9        0.000000       -0.174874         1
        16        15        14        31     9      180.000000       -0.269716         2
        16        15        14        31     9        0.000000        0.338009         3
        16        15        14        31     9      180.000000        0.071162         4
        16        15        14        51     9        0.000000        0.084158         1
        16        15        14        51     9      180.000000       -0.049815         2
        16        15        14        51     9        0.000000        0.449041         3
        16        15        14        51     9      180.000000       -0.057460         4
        16        15        22        23     9        0.000000        1.037452         1
        16        15        22        23     9      180.000000       -0.699092         2
        16        15        22        23     9        0.000000        0.759216         3
        16        15        22        23     9      180.000000        0.040034         4
        16        15        22        58     9        0.000000        2.971056         1
        16        15        22        58     9      180.000000       -1.086297         2
        16        15        22        58     9        0.000000        0.133229         3
        16        15        22        58     9      180.000000       -0.155301         4
        16        17        18        19     9        0.000000        0.027332         1
        16        17        18        19     9      180.000000       18.735526         2
        16        17        18        19     9        0.000000       -1.491713         3
        16        17        18        19     9      180.000000       -0.406339         4
        16        17        18        54     9        0.000000        0.060410         1
        16        17        18        54     9      180.000000       14.990249         2
        16        17        18        54     9        0.000000       -0.580982         3
        16        17        18        54     9      180.000000        0.057213         4
        16        21        20        19     9        0.000000        0.027332         1
        16        21        20        19     9      180.000000       18.735526         2
        16        21        20        19     9        0.000000       -1.491713         3
        16        21        20        19     9      180.000000       -0.406339         4
        16        21        20        56     9        0.000000        0.060410         1
        16        21        20        56     9      180.000000       14.990249         2
        16        21        20        56     9        0.000000       -0.580982         3
        16        21        20        56     9      180.000000        0.057213         4
        17        16        15        22     9        0.000000       -0.200700         1
        17        16        15        22     9      180.000000        0.868726         2
        17        16        15        22     9        0.000000       -0.009400         3
        17        16        15        22     9      180.000000        0.236591         4
        17        16        15        52     9        0.000000        0.164796         1
        17        16        15        52     9      180.000000        0.637916         2
        17        16        15        52     9        0.000000        0.052389         3
        17        16        15        52     9      180.000000       -0.143521         4
        17        16        21        20     9        0.000000       -0.144446         1
        17        16        21        20     9      180.000000       19.062213         2
        17        16        21        20     9        0.000000       -1.504557         3
        17        16        21        20     9      180.000000       -0.477342         4
        17        16        21        57     9        0.000000       -0.069577         1
        17        16        21        57     9      180.000000       14.508781         2
        17        16        21        57     9        0.000000       -0.591210         3
        17        16        21        57     9      180.000000       -0.002966         4
        17        18        19        20     9        0.000000       -0.058928         1
        17        18        19        20     9      180.000000       18.660778         2
        17        18        19        20     9        0.000000       -1.621207         3
        17        18        19        20     9      180.000000       -0.382782         4
        17        18        19        55     9        0.000000        0.016777         1
        17        18        19        55     9      180.000000       14.282109         2
        17        18        19        55     9        0.000000       -0.780702         3
        17        18        19        55     9      180.000000        0.125906         4
        18        17        16        21     9        0.000000       -0.144446         1
        18        17        16        21     9      180.000000       19.062213         2
        18        17        16        21     9        0.000000       -1.504557         3
        18        17        16        21     9      180.000000       -0.477342         4
        18        19        20        21     9        0.000000       -0.058928         1
        18        19        20        21     9      180.000000       18.660778         2
        18        19        20        21     9        0.000000       -1.621207         3
        18        19        20        21     9      180.000000       -0.382782         4
        18        19        20        56     9        0.000000        0.010660         1
        18        19        20        56     9      180.000000       14.271862         2
        18        19        20        56     9        0.000000       -0.794146         3
        18        19        20        56     9      180.000000        0.157356         4
        19        18        17        53     9        0.000000        0.060923         1
        19        18        17        53     9      180.000000       14.800027         2
        19        18        17        53     9        0.000000       -0.680405         3
        19        18        17        53     9      180.000000        0.105082         4
        19        20        21        57     9        0.000000        0.060923         1
        19        20        21        57     9      180.000000       14.800027         2
        19        20        21        57     9        0.000000       -0.680405         3
        19        20        21        57     9      180.000000        0.105082         4
        20        19        18        54     9        0.000000        0.010660         1
        20        19        18        54     9      180.000000       14.271862         2
        20        19        18        54     9        0.000000       -0.794146         3
        20        19        18        54     9      180.000000        0.157356         4
        21        16        15        22     9        0.000000       -0.200700         1
        21        16        15        22     9      180.000000        0.868726         2
        21        16        15        22     9        0.000000       -0.009400         3
        21        16        15        22     9      180.000000        0.236591         4
        21        16        15        52     9        0.000000        0.164796         1
        21        16        15        52     9      180.000000        0.637916         2
        21        16        15        52     9        0.000000        0.052389         3
        21        16        15        52     9      180.000000       -0.143521         4
        21        16        17        53     9        0.000000       -0.069577         1
        21        16        17        53     9      180.000000       14.508781         2
        21        16        17        53     9        0.000000       -0.591210         3
        21        16        17        53     9      180.000000       -0.002966         4
        21        20        19        55     9        0.000000        0.016777         1
        21        20        19        55     9      180.000000       14.282109         2
        21        20        19        55     9        0.000000       -0.780702         3
        21        20        19        55     9      180.000000        0.125906         4
        22        15        14        31     9        0.000000       -0.292280         1
        22        15        14        31     9      180.000000       -1.651676         2
        22        15        14        31     9        0.000000       -0.197287         3
        22        15        14        31     9      180.000000        0.192311         4
        22        15        14        51     9        0.000000       -0.132359         1
        22        15        14        51     9      180.000000       -0.128847         2
        22        15        14        51     9        0.000000        0.112706         3
        22        15        14        51     9      180.000000        0.255319         4
        22        23        24        25     9        0.000000       -0.589842         1
        22        23        24        25     9      180.000000       21.195825         2
        22        23        24        25     9        0.000000        0.147254         3
        22        23        24        25     9      180.000000       -0.800287         4
        22        23        24        26     9        0.000000        0.199094         1
        22        23        24        26     9      180.000000       15.215978         2
        22        23        24        26     9        0.000000        0.086502         3
        22        23        24        26     9      180.000000       -0.083665         4
        22        23        30        29     9        0.000000        0.125444         1
        22        23        30        29     9      180.000000       17.097380         2
        22        23        30        29     9        0.000000        0.213002         3
        22        23        30        29     9      180.000000       -0.620432         4
        22        23        30        31     9        0.000000       -0.061534         1
        22        23        30        31     9      180.000000       15.451685         2
        22        23        30        31     9        0.000000        0.238971         3
        22        23        30        31     9      180.000000       -0.551690         4
        23        22        15        52     9        0.000000       -0.099490         1
        23        22        15        52     9      180.000000       -0.374281         2
        23        22        15        52     9        0.000000        0.628832         3
        23        22        15        52     9      180.000000       -0.039293         4
        23        24        26        27     9        0.000000       -0.034950         1
        23        24        26        27     9      180.000000       16.642938         2
        23        24        26        27     9        0.000000       -1.515400         3
        23        24        26        27     9      180.000000       -0.344374         4
        23        24        26        59     9        0.000000        0.037724         1
        23        24        26        59     9      180.000000       12.503047         2
        23        24        26        59     9        0.000000       -0.595493         3
        23        24        26        59     9      180.000000        0.136950         4
        23        30        29        27     9        0.000000       -0.017525         1
        23        30        29        27     9      180.000000       18.731298         2
        23        30        29        27     9        0.000000       -1.494782         3
        23        30        29        27     9      180.000000       -0.337587         4
        23        30        29        60     9        0.000000        0.102811         1
        23        30        29        60     9      180.000000       14.230010         2
        23        30        29        60     9        0.000000       -0.315209         3
        23        30        29        60     9      180.000000        0.198836         4
        23        30        31        32     9        0.000000       -3.978932         1
        23        30        31        32     9      180.000000       -1.190663         2
        23        30        31        32     9        0.000000        0.615841         3
        23        30        31        32     9      180.000000       -0.186497         4
        23        30        31        61     9        0.000000        0.239554         1
        23        30        31        61     9      180.000000        0.369548         2
        23        30        31        61     9        0.000000        0.061218         3
        23        30        31        61     9      180.000000        0.036088         4
        24        23        22        58     9        0.000000        2.385166         1
        24        23        22        58     9      180.000000        3.389642         2
        24        23        22        58     9        0.000000        0.208822         3
        24        23        22        58     9      180.000000        0.057321         4
        24        23        30        29     9        0.000000        0.084739         1
        24        23        30        29     9      180.000000       15.294236         2
        24        23        30        29     9        0.000000       -0.794686         3
        24        23        30        29     9      180.000000       -0.308613         4
        24        23        30        31     9        0.000000       -0.081421         1
        24        23        30        31     9      180.000000       13.064077         2
        24        23        30        31     9        0.000000       -0.294681         3
        24        23        30        31     9      180.000000       -0.243559         4
        24        26        27        28     9        0.000000        0.291422         1
        24        26        27        28     9      180.000000       18.397325         2
        24        26        27        28     9        0.000000        0.227270         3
        24        26        27        28     9      180.000000       -0.632266         4
        24        26        27        29     9        0.000000       -0.159945         1
        24        26        27        29     9      180.000000       17.690980         2
        24        26        27        29     9        0.000000       -1.501504         3
        24        26        27        29     9      180.000000       -0.385285         4
        25        24        23        30     9        0.000000        0.123626         1
        25        24        23        30     9      180.000000       16.776249         2
        25        24        23        30     9        0.000000        0.418690         3
        25        24        23        30     9      180.000000       -0.305422         4
        25        24        26        27     9        0.000000        0.678586         1
        25        24        26        27     9      180.000000       23.101831         2
        25        24        26        27     9        0.000000        0.435637         3
        25        24        26        27     9      180.000000       -0.499056         4
        25        24        26        59     9        0.000000        0.343346         1
        25        24        26        59     9      180.000000       15.935933         2
        25        24        26        59     9        0.000000        0.159052         3
        25        24        26        59     9      180.000000        0.390709         4
        26        24        23        30     9        0.000000       -0.009041         1
        26        24        23        30     9      180.000000       12.707252         2
        26        24        23        30     9        0.000000       -0.273680         3
        26        24        23        30     9      180.000000       -0.155411         4
        26        27        29        30     9        0.000000       -0.056170         1
        26        27        29        30     9      180.000000       17.589185         2
        26        27        29        30     9        0.000000       -1.559377         3
        26        27        29        30     9      180.000000       -0.409995         4
        26        27        29        60     9        0.000000       -0.006568         1
        26        27        29        60     9      180.000000       13.724351         2
        26        27        29        60     9        0.000000       -0.605499         3
        26        27        29        60     9      180.000000        0.100855         4
        27        29        30        31     9        0.000000        0.095420         1
        27        29        30        31     9      180.000000       16.579191         2
        27        29        30        31     9        0.000000       -0.156058         3
        27        29        30        31     9      180.000000       -0.306023         4
        28        27        26        59     9        0.000000        0.320381         1
        28        27        26        59     9      180.000000       12.775537         2
        28        27        26        59     9        0.000000       -0.140992         3
        28        27        26        59     9      180.000000        0.246384         4
        28        27        29        30     9        0.000000        0.322010         1
        28        27        29        30     9      180.000000       18.863554         2
        28        27        29        30     9        0.000000        0.202852         3
        28        27        29        30     9      180.000000       -0.689457         4
        28        27        29        60     9        0.000000        0.212987         1
        28        27        29        60     9      180.000000       13.096218         2
        28        27        29        60     9        0.000000       -0.118947         3
        28        27        29        60     9      180.000000        0.269049         4
        29        27        26        59     9        0.000000        0.096276         1
        29        27        26        59     9      180.000000       12.852717         2
        29        27        26        59     9        0.000000       -0.610251         3
        29        27        26        59     9      180.000000        0.146698         4
        29        30        31        32     9        0.000000        0.050280         1
        29        30        31        32     9      180.000000        0.548380         2
        29        30        31        32     9        0.000000       -0.778186         3
        29        30        31        32     9      180.000000        0.179180         4
        29        30        31        61     9        0.000000        0.089168         1
        29        30        31        61     9      180.000000       -0.012236         2
        29        30        31        61     9        0.000000       -0.581421         3
        29        30        31        61     9      180.000000       -0.040953         4
        30        23        22        58     9        0.000000        4.443965         1
        30        23        22        58     9      180.000000        4.173702         2
        30        23        22        58     9        0.000000       -0.558665         3
        30        23        22        58     9      180.000000        0.364476         4
        30        31        14        51     9        0.000000       -0.160101         1
        30        31        14        51     9      180.000000        0.073889         2
        30        31        14        51     9        0.000000        0.114007         3
        30        31        14        51     9      180.000000        0.257350         4
        31        14        13        49     9        0.000000       -0.113766         1
        31        14        13        49     9      180.000000        0.080805         2
        31        14        13        49     9        0.000000        0.151933         3
        31        14        13        49     9      180.000000        0.037401         4
        31        14        13        50     9        0.000000       -0.113766         1
        31        14        13        50     9      180.000000        0.080805         2
        31        14        13        50     9        0.000000        0.151933         3
        31        14        13        50     9      180.000000        0.037401         4
        31        14        15        52     9        0.000000       -0.219847         1
        31        14        15        52     9      180.000000       -0.025529         2
        31        14        15        52     9        0.000000        0.098814         3
        31        14        15        52     9      180.000000        0.135004         4
        31        30        29        60     9        0.000000       -0.008649         1
        31        30        29        60     9      180.000000       12.813643         2
        31        30        29        60     9        0.000000       -0.286901         3
        31        30        29        60     9      180.000000        0.168967         4
        31        32        11        46     9        0.000000       -0.330783         1
        31        32        11        46     9      180.000000        0.001254         2
        31        32        11        46     9        0.000000        0.369663         3
        31        32        11        46     9      180.000000        0.044177         4
        32        11        10        44     9        0.000000        0.003585         1
        32        11        10        44     9      180.000000       -0.000650         2
        32        11        10        44     9        0.000000        0.525366         3
        32        11        10        44     9      180.000000        0.038201         4
        32        11        10        45     9        0.000000        0.003585         1
        32        11        10        45     9      180.000000       -0.000650         2
        32        11        10        45     9        0.000000        0.525366         3
        32        11        10        45     9      180.000000        0.038201         4
        32        11        12        47     9        0.000000       -0.071295         1
        32        11        12        47     9      180.000000        0.007226         2
        32        11        12        47     9        0.000000        0.211338         3
        32        11        12        47     9      180.000000        0.005563         4
        32        11        12        48     9        0.000000       -0.071295         1
        32        11        12        48     9      180.000000        0.007226         2
        32        11        12        48     9        0.000000        0.211338         3
        32        11        12        48     9      180.000000        0.005563         4
        32        31        14        51     9        0.000000       -0.499532         1
        32        31        14        51     9      180.000000        0.195443         2
        32        31        14        51     9        0.000000        0.024139         3
        32        31        14        51     9      180.000000        0.227770         4
        33         1         2        62     9        0.000000       -0.080555         1
        33         1         2        62     9      180.000000        0.172014         2
        33         1         2        62     9        0.000000        0.500095         3
        33         1         2        62     9      180.000000        0.022329         4
        34         1         2        62     9        0.000000       -0.080555         1
        34         1         2        62     9      180.000000        0.172014         2
        34         1         2        62     9        0.000000        0.500095         3
        34         1         2        62     9      180.000000        0.022329         4
        35         1         2        62     9        0.000000       -0.080555         1
        35         1         2        62     9      180.000000        0.172014         2
        35         1         2        62     9        0.000000        0.500095         3
        35         1         2        62     9      180.000000        0.022329         4
        36         3         2        62     9        0.000000       -0.080555         1
        36         3         2        62     9      180.000000        0.172014         2
        36         3         2        62     9        0.000000        0.500095         3
        36         3         2        62     9      180.000000        0.022329         4
        37         3         2        62     9        0.000000       -0.080555         1
        37         3         2        62     9      180.000000        0.172014         2
        37         3         2        62     9        0.000000        0.500095         3
        37         3         2        62     9      180.000000        0.022329         4
        38         3         2        62     9        0.000000       -0.080555         1
        38         3         2        62     9      180.000000        0.172014         2
        38         3         2        62     9        0.000000        0.500095         3
        38         3         2        62     9      180.000000        0.022329         4
        39         4         2        62     9        0.000000       -0.091312         1
        39         4         2        62     9      180.000000        0.221089         2
        39         4         2        62     9        0.000000        0.505931         3
        39         4         2        62     9      180.000000       -0.029138         4
        39         4         5        41     9        0.000000       -0.157099         1
        39         4         5        41     9      180.000000        0.026465         2
        39         4         5        41     9        0.000000        0.644837         3
        39         4         5        41     9      180.000000       -0.023859         4
        39         4         5        42     9        0.000000       -0.157099         1
        39         4         5        42     9      180.000000        0.026465         2
        39         4         5        42     9        0.000000        0.644837         3
        39         4         5        42     9      180.000000       -0.023859         4
        40         4         2        62     9        0.000000       -0.091312         1
        40         4         2        62     9      180.000000        0.221089         2
        40         4         2        62     9        0.000000        0.505931         3
        40         4         2        62     9      180.000000       -0.029138         4
        40         4         5        41     9        0.000000       -0.157099         1
        40         4         5        41     9      180.000000        0.026465         2
        40         4         5        41     9        0.000000        0.644837         3
        40         4         5        41     9      180.000000       -0.023859         4
        40         4         5        42     9        0.000000       -0.157099         1
        40         4         5        42     9      180.000000        0.026465         2
        40         4         5        42     9        0.000000        0.644837         3
        40         4         5        42     9      180.000000       -0.023859         4
        43         9        10        44     9        0.000000        0.133325         1
        43         9        10        44     9      180.000000       -0.010983         2
        43         9        10        44     9        0.000000        0.306120         3
        43         9        10        44     9      180.000000        0.120667         4
        43         9        10        45     9        0.000000        0.133325         1
        43         9        10        45     9      180.000000       -0.010983         2
        43         9        10        45     9        0.000000        0.306120         3
        43         9        10        45     9      180.000000        0.120667         4
        44        10        11        46     9        0.000000       -0.070481         1
        44        10        11        46     9      180.000000        0.015541         2
        44        10        11        46     9        0.000000        0.710971         3
        44        10        11        46     9      180.000000       -0.050506         4
        45        10        11        46     9        0.000000       -0.070481         1
        45        10        11        46     9      180.000000        0.015541         2
        45        10        11        46     9        0.000000        0.710971         3
        45        10        11        46     9      180.000000       -0.050506         4
        46        11        12        47     9        0.000000        0.014150         1
        46        11        12        47     9      180.000000       -0.018802         2
        46        11        12        47     9        0.000000        0.460944         3
        46        11        12        47     9      180.000000       -0.049636         4
        46        11        12        48     9        0.000000        0.014150         1
        46        11        12        48     9      180.000000       -0.018802         2
        46        11        12        48     9        0.000000        0.460944         3
        46        11        12        48     9      180.000000       -0.049636         4
        47        12        13        49     9        0.000000        0.002684         1
        47        12        13        49     9      180.000000       -0.017611         2
        47        12        13        49     9        0.000000        0.282926         3
        47        12        13        49     9      180.000000        0.007699         4
        47        12        13        50     9        0.000000        0.002684         1
        47        12        13        50     9      180.000000       -0.017611         2
        47        12        13        50     9        0.000000        0.282926         3
        47        12        13        50     9      180.000000        0.007699         4
        48        12        13        49     9        0.000000        0.002684         1
        48        12        13        49     9      180.000000       -0.017611         2
        48        12        13        49     9        0.000000        0.282926         3
        48        12        13        49     9      180.000000        0.007699         4
        48        12        13        50     9        0.000000        0.002684         1
        48        12        13        50     9      180.000000       -0.017611         2
        48        12        13        50     9        0.000000        0.282926         3
        48        12        13        50     9      180.000000        0.007699         4
        49        13        14        51     9        0.000000        0.307712         1
        49        13        14        51     9      180.000000        0.073108         2
        49        13        14        51     9        0.000000        0.368973         3
        49        13        14        51     9      180.000000       -0.053939         4
        50        13        14        51     9        0.000000        0.307712         1
        50        13        14        51     9      180.000000        0.073108         2
        50        13        14        51     9        0.000000        0.368973         3
        50        13        14        51     9      180.000000       -0.053939         4
        51        14        15        52     9        0.000000        0.583554         1
        51        14        15        52     9      180.000000        0.096562         2
        51        14        15        52     9        0.000000        0.457936         3
        51        14        15        52     9      180.000000       -0.279237         4
        51        14        31        61     9        0.000000        0.091311         1
        51        14        31        61     9      180.000000        0.067833         2
        51        14        31        61     9        0.000000        0.246209         3
        51        14        31        61     9      180.000000       -0.118243         4
        52        15        22        58     9        0.000000       -0.771406         1
        52        15        22        58     9      180.000000       -0.244059         2
        52        15        22        58     9        0.000000        0.458117         3
        52        15        22        58     9      180.000000       -0.163048         4
        53        17        18        54     9        0.000000       -0.180341         1
        53        17        18        54     9      180.000000       11.789161         2
        53        17        18        54     9        0.000000       -0.659630         3
        53        17        18        54     9      180.000000        0.310085         4
        54        18        19        55     9        0.000000       -0.084557         1
        54        18        19        55     9      180.000000       11.520938         2
        54        18        19        55     9        0.000000       -0.587926         3
        54        18        19        55     9      180.000000        0.263272         4
        55        19        20        56     9        0.000000       -0.084557         1
        55        19        20        56     9      180.000000       11.520938         2
        55        19        20        56     9        0.000000       -0.587926         3
        55        19        20        56     9      180.000000        0.263272         4
        56        20        21        57     9        0.000000       -0.180341         1
        56        20        21        57     9      180.000000       11.789161         2
        56        20        21        57     9        0.000000       -0.659630         3
        56        20        21        57     9      180.000000        0.310085         4

[ dihedrals ] ; impropers
;       ai        aj        ak        al funct           phase               k        pn
        17        16        18        53     4      180.000000        0.182436         2
        17        18        53        16     4      180.000000        0.182436         2
        17        53        16        18     4      180.000000        0.182436         2
        18        17        19        54     4      180.000000        0.258179         2
        18        19        54        17     4      180.000000        0.258179         2
        18        54        17        19     4      180.000000        0.258179         2
        19        18        20        55     4      180.000000        0.333131         2
        19        20        55        18     4      180.000000        0.333131         2
        19        55        18        20     4      180.000000        0.333131         2
        20        19        21        56     4      180.000000        0.258179         2
        20        21        56        19     4      180.000000        0.258179         2
        20        56        19        21     4      180.000000        0.258179         2
        21        16        20        57     4      180.000000        0.182436         2
        21        20        57        16     4      180.000000        0.182436         2
        21        57        16        20     4      180.000000        0.182436         2

[ pairs ]
;       ai        aj funct
         1         5     1
         1        36     1
         1        37     1
         1        38     1
         1        39     1
         1        40     1
         2         6     1
         2        41     1
         2        42     1
         3         5     1
         3        33     1
         3        34     1
         3        35     1
         3        39     1
         3        40     1
         4         7     1
         4         8     1
         4         9     1
         4        33     1
         4        34     1
         4        35     1
         4        36     1
         4        37     1
         4        38     1
         5        10     1
         5        43     1
         5        62     1
         6        11     1
         6        39     1
         6        40     1
         6        44     1
         6        45     1
         7        10     1
         7        41     1
         7        42     1
         7        43     1
         8        10     1
         8        41     1
         8        42     1
         8        43     1
         9        12     1
         9        32     1
         9        41     1
         9        42     1
         9        46     1
        10        13     1
        10        31     1
        10        47     1
        10        48     1
        11        14     1
        11        30     1
        11        43     1
        11        49     1
        11        50     1
        11        61     1
        12        15     1
        12        31     1
        12        44     1
        12        45     1
        12        51     1
        13        16     1
        13        22     1
        13        30     1
        13        32     1
        13        46     1
        13        52     1
        13        61     1
        14        17     1
        14        21     1
        14        23     1
        14        29     1
        14        47     1
        14        48     1
        14        58     1
        15        18     1
        15        20     1
        15        24     1
        15        30     1
        15        32     1
        15        49     1
        15        50     1
        15        53     1
        15        57     1
        15        61     1
        16        19     1
        16        23     1
        16        31     1
        16        51     1
        16        54     1
        16        56     1
        16        58     1
        17        20     1
        17        22     1
        17        52     1
        17        55     1
        17        57     1
        18        21     1
        18        56     1
        19        53     1
        19        57     1
        20        54     1
        21        22     1
        21        52     1
        21        53     1
        21        55     1
        22        25     1
        22        26     1
        22        29     1
        22        31     1
        22        51     1
        23        27     1
        23        32     1
        23        52     1
        23        59     1
        23        60     1
        23        61     1
        24        28     1
        24        29     1
        24        31     1
        24        58     1
        25        27     1
        25        30     1
        25        59     1
        26        30     1
        26        60     1
        27        31     1
        28        30     1
        28        59     1
        28        60     1
        29        32     1
        29        59     1
        29        61     1
        30        51     1
        30        58     1
        31        46     1
        31        49     1
        31        50     1
        31        52     1
        31        60     1
        32        44     1
        32        45     1
        32        47     1
        32        48     1
        32        51     1
        33        62     1
        34        62     1
        35        62     1
        36        62     1
        37        62     1
        38        62     1
        39        41     1
        39        42     1
        39        62     1
        40        41     1
        40        42     1
        40        62     1
        43        44     1
        43        45     1
        44        46     1
        45        46     1
        46        47     1
        46        48     1
        47        49     1
        47        50     1
        48        49     1
        48        50     1
        49        51     1
        50        51     1
        51        52     1
        51        61     1
        52        58     1
        53        54     1
        54        55     1
        55        56     1
        56        57     1
